INSANE! Membrane UpperLeaflet>loPI:POPI:DPPI:PYPI:ERGO=30.0:5.0:3.0:2.0:10.0 LowerLeaflet>loPI:POPI:DPPI:PYPI:ERGO=30.0:5.0:3.0:2.0:10.0
48670
    1loPI    C1    1   6.578  10.237  11.748  0.1593 -0.0741  0.0328
    1loPI    C2    2   6.908  10.380  11.923  0.0467  0.2100  0.0179
    1loPI    C3    3   6.606  10.244  12.147  0.1818 -0.0748  0.0313
    1loPI   PO4    4   6.505  10.385  11.523  0.1558  0.1937 -0.1613
    1loPI   GL1    5   6.338  10.168  11.117  0.1505 -0.0384 -0.0916
    1loPI   GL2    6   6.551  10.025  10.891  0.1817 -0.3625 -0.0674
    1loPI   C1A    7   6.187  10.282  10.605 -0.1942 -0.2852  0.0843
    1loPI   C2A    8   5.938  10.246  10.168 -0.0885 -0.2874 -0.1298
    1loPI   C3A    9   5.997  10.274   9.755 -0.1733 -0.1119 -0.1274
    1loPI   C4A   10   5.959  10.521   9.485  0.1820 -0.1352 -0.2382
    1loPI   C5A   11   5.707  10.622   9.167  0.0777  0.2323  0.0656
    1loPI   C6A   12   5.518  10.684   8.765 -0.1272 -0.2100 -0.0332
    1loPI   C1B   13   6.566   9.966  10.437  0.0250 -0.0190  0.0665
    1loPI   C2B   14   6.532   9.946  10.068  0.4107  0.0145  0.1973
    1loPI   C3B   15   6.626   9.963   9.565  0.2803  0.0266 -0.0266
    1loPI   C4B   16   6.617   9.868   9.126 -0.0223  0.4148  0.2279
    2loPI    C1   17  13.413   2.383  12.072 -0.0994  0.0534 -0.0294
    2loPI    C2   18  13.744   2.227  12.232  0.0097  0.1924 -0.1172
    2loPI    C3   19  13.390   2.166  12.407  0.1368  0.4135  0.2278
    2loPI   PO4   20  13.499   2.327  11.810 -0.1561  0.2204  0.2908
    2loPI   GL1   21  13.634   2.452  11.380 -0.0235 -0.1298  0.0207
    2loPI   GL2   22  13.556   2.099  11.262 -0.1439  0.0620  0.0796
    2loPI   C1A   23  13.595   2.429  10.909  0.0412  0.1449  0.0069
    2loPI   C2A   24  13.560   2.343  10.513 -0.1281 -0.0484 -0.0284
    2loPI   C3A   25  13.633   2.333  10.174  0.1387  0.1678 -0.1963
    2loPI   C4A   26  13.623   2.493   9.821 -0.0541 -0.0588 -0.1457
    2loPI   C5A   27  13.420   2.433   9.423 -0.0595  0.2240  0.1196
    2loPI   C6A   28  13.019   2.567   9.157 -0.0304  0.1697 -0.0432
    2loPI   C1B   29  13.480   1.905  10.888  0.0537 -0.2218 -0.0047
    2loPI   C2B   30  13.489   1.850  10.419  0.0619  0.0086  0.0841
    2loPI   C3B   31  13.524   1.852   9.920 -0.0885 -0.0942 -0.0520
    2loPI   C4B   32  13.545   1.934   9.475  0.0685 -0.0126 -0.1033
    3loPI    C1   33   9.012   9.556  11.247  0.2158 -0.1783 -0.3432
    3loPI    C2   34   9.340   9.782  11.219  0.1826 -0.0830 -0.0104
    3loPI    C3   35   9.241   9.617  11.569  0.0203 -0.3345 -0.1718
    3loPI   PO4   36   9.008   9.404  11.076  0.0176  0.0855  0.0967
    3loPI   GL1   37   9.239   9.012  10.923 -0.1706 -0.0532 -0.1189
    3loPI   GL2   38   9.360   8.718  10.865 -0.0276 -0.0518 -0.2298
    3loPI   C1A   39   9.129   8.994  10.527 -0.0938  0.3504 -0.0411
    3loPI   C2A   40   9.164   8.965  10.099 -0.0746  0.0233 -0.2816
    3loPI   C3A   41   9.037   8.889   9.639 -0.2755  0.0020  0.0057
    3loPI   C4A   42   9.105   8.864   9.234 -0.2301  0.0846  0.0399
    3loPI   C5A   43   9.135   8.690   8.800 -0.1240  0.0294 -0.1073
    3loPI   C6A   44   9.239   8.335   8.430  0.0556 -0.0392  0.0079
    3loPI   C1B   45   9.487   8.673  10.394 -0.0736 -0.2395 -0.0507
    3loPI   C2B   46   9.467   8.536  10.053  0.0522  0.0180  0.0450
    3loPI   C3B   47   9.486   8.635   9.585 -0.4199  0.1672 -0.1004
    3loPI   C4B   48   9.583   8.595   9.143 -0.0340  0.0561 -0.0216
    4loPI    C1   49  11.687   1.552  11.773 -0.0338  0.1380  0.0666
    4loPI    C2   50  11.309   1.466  11.871 -0.1007  0.2790 -0.0640
    4loPI    C3   51  11.598   1.439  12.146 -0.2304  0.3239  0.0781
    4loPI   PO4   52  11.720   1.775  11.657 -0.2150  0.0814 -0.3054
    4loPI   GL1   53  11.782   1.782  11.204  0.3479 -0.1744  0.1069
    4loPI   GL2   54  11.989   1.616  11.211  0.0733 -0.2326  0.0529
    4loPI   C1A   55  11.986   1.848  10.762  0.2646 -0.0981 -0.0874
    4loPI   C2A   56  12.224   1.788  10.309 -0.1357 -0.1580 -0.0934
    4loPI   C3A   57  12.143   1.862   9.867  0.1784 -0.1413 -0.0552
    4loPI   C4A   58  12.225   1.869   9.470  0.1369  0.0590 -0.0367
    4loPI   C5A   59  12.538   1.644   9.237 -0.0351 -0.1677  0.0339
    4loPI   C6A   60  12.748   1.601   8.797 -0.4080 -0.2624  0.0607
    4loPI   C1B   61  11.976   1.357  10.803  0.0599 -0.1173  0.1781
    4loPI   C2B   62  12.048   1.325  10.289 -0.0729 -0.0383 -0.0236
    4loPI   C3B   63  12.099   1.297   9.889  0.1145  0.1716 -0.1218
    4loPI   C4B   64  12.161   1.369   9.491 -0.1260 -0.1284 -0.1485
    5loPI    C1   65  14.456   9.470  11.446 -0.1350  0.0001  0.0287
    5loPI    C2   66  14.825   9.322  11.397  0.0165  0.3986 -0.0714
    5loPI    C3   67  14.701   9.436  11.760 -0.0696  0.1151 -0.0093
    5loPI   PO4   68  14.340   9.343  11.274 -0.1496  0.4349 -0.1217
    5loPI   GL1   69  14.375   9.148  10.919 -0.1592  0.4625  0.1707
    5loPI   GL2   70  14.686   9.376  10.954 -0.1144  0.3620  0.0162
    5loPI   C1A   71  14.568   9.229  10.461 -0.0981 -0.0049  0.1932
    5loPI   C2A   72  14.620   9.141  10.020  0.2291 -0.4108 -0.0649
    5loPI   C3A   73  14.748   9.180   9.560 -0.3096 -0.3152 -0.5547
    5loPI   C4A   74  14.725   8.971   9.267 -0.3117 -0.1516  0.1921
    5loPI   C5A   75  14.947   8.641   8.963  0.1321  0.3638  0.0081
    5loPI   C6A   76  14.892   8.382   8.658  0.3371  0.1040 -0.0631
    5loPI   C1B   77  15.011   9.544  10.633 -0.1414  0.3651 -0.0437
    5loPI   C2B   78  15.135   9.987  10.435 -0.1036 -0.2461  0.1747
    5loPI   C3B   79  15.136   9.956   9.975 -0.0511 -0.0540 -0.1152
    5loPI   C4B   80  15.337   9.909   9.623 -0.2316  0.0837 -0.1259
    6loPI    C1   81   2.381   3.732  11.798  0.0761  0.0053  0.1197
    6loPI    C2   82   1.981   3.722  11.799  0.0680  0.2524  0.1224
    6loPI    C3   83   2.185   3.615  12.127  0.0168 -0.1820  0.0188
    6loPI   PO4   84   2.431   3.910  11.628  0.0174  0.0568  0.2729
    6loPI   GL1   85   2.480   3.913  11.250  0.1514  0.4295  0.0096
    6loPI   GL2   86   2.348   4.156  11.046  0.0818 -0.0560 -0.2372
    6loPI   C1A   87   2.604   3.830  10.823 -0.0224 -0.2377  0.1286
    6loPI   C2A   88   2.499   3.754  10.444  0.1207  0.1443 -0.1350
    6loPI   C3A   89   2.312   3.743  10.075  0.0721 -0.1128  0.1762
    6loPI   C4A   90   2.223   3.658   9.723 -0.0368  0.1426 -0.2114
    6loPI   C5A   91   2.030   3.596   9.319  0.1642 -0.0197 -0.0100
    6loPI   C6A   92   1.951   3.327   8.943  0.2093  0.1787 -0.2472
    6loPI   C1B   93   2.233   4.205  10.661  0.2746 -0.0691  0.2026
    6loPI   C2B   94   2.291   4.188  10.255  0.0374 -0.1138 -0.1173
    6loPI   C3B   95   2.401   4.186   9.796  0.1943 -0.0075 -0.2272
    6loPI   C4B   96   2.152   4.144   9.433  0.0336  0.0763  0.3419
    7loPI    C1   97   1.825   4.116  11.510 -0.0411 -0.1409 -0.1257
    7loPI    C2   98   1.431   4.168  11.472 -0.0695 -0.2137  0.0613
    7loPI    C3   99   1.608   4.236  11.824  0.1059 -0.0527 -0.0566
    7loPI   PO4  100   1.961   4.004  11.321 -0.0968 -0.1294  0.0997
    7loPI   GL1  101   1.946   3.889  10.944 -0.0207  0.0696  0.0771
    7loPI   GL2  102   2.087   3.675  10.866 -0.2570  0.1019 -0.4001
    7loPI   C1A  103   1.892   3.840  10.449 -0.0673 -0.2482  0.3224
    7loPI   C2A  104   1.907   3.954   9.998  0.0484  0.0038  0.2160
    7loPI   C3A  105   1.696   3.866   9.559 -0.0687 -0.2323 -0.2536
    7loPI   C4A  106   1.623   3.976   9.197 -0.0489  0.3528  0.0825
    7loPI   C5A  107   1.716   4.231   8.759 -0.0039  0.0818  0.2891
    7loPI   C6A  108   1.769   4.240   8.411  0.0893 -0.0559  0.1448
    7loPI   C1B  109   2.136   3.439  10.395  0.0530  0.4568  0.0015
    7loPI   C2B  110   1.995   3.156  10.220  0.4083 -0.1229 -0.0544
    7loPI   C3B  111   2.121   3.099   9.825 -0.1981 -0.0991  0.2344
    7loPI   C4B  112   2.060   2.974   9.436  0.3421 -0.0569 -0.4273
    8loPI    C1  113   6.618   7.060  11.481  0.1511 -0.0637  0.0848
    8loPI    C2  114   6.658   7.424  11.642  0.0721  0.0461 -0.1393
    8loPI    C3  115   6.750   7.099  11.856 -0.2743  0.1744  0.2159
    8loPI   PO4  116   6.546   7.046  11.226  0.0351  0.1987  0.0704
    8loPI   GL1  117   6.567   6.747  10.905 -0.0880 -0.0157  0.2238
    8loPI   GL2  118   6.871   6.743  10.688  0.1812 -0.2198 -0.3553
    8loPI   C1A  119   6.328   6.609  10.494 -0.0033 -0.1416 -0.0228
    8loPI   C2A  120   6.294   6.526  10.054  0.1722 -0.0209  0.1050
    8loPI   C3A  121   6.355   6.523   9.600 -0.0753 -0.0497 -0.0275
    8loPI   C4A  122   6.435   6.511   9.226 -0.1138 -0.0539  0.0027
    8loPI   C5A  123   6.728   6.326   8.824  0.0230 -0.1039  0.0370
    8loPI   C6A  124   7.027   6.072   8.890  0.1073  0.1741  0.0829
    8loPI   C1B  125   6.830   6.775  10.249 -0.1477  0.0977 -0.1834
    8loPI   C2B  126   6.781   6.807   9.863  0.1036 -0.0217  0.1008
    8loPI   C3B  127   6.772   6.779   9.442  0.2092 -0.2191 -0.2781
    8loPI   C4B  128   6.966   6.627   9.093  0.0845  0.2372  0.0711
    9loPI    C1  129   6.871   3.149  11.657 -0.2645 -0.3772  0.2055
    9loPI    C2  130   7.039   3.076  12.013  0.1299 -0.1060  0.0819
    9loPI    C3  131   6.668   3.224  11.994  0.1741  0.0515  0.3859
    9loPI   PO4  132   7.046   3.052  11.506  0.1421  0.1026  0.1306
    9loPI   GL1  133   7.381   3.047  11.248 -0.0583  0.1212  0.1049
    9loPI   GL2  134   7.703   3.056  11.052  0.3410 -0.0774 -0.0773
    9loPI   C1A  135   7.245   2.905  10.833 -0.0333 -0.3964 -0.2263
    9loPI   C2A  136   7.119   2.925  10.500  0.3027  0.0795 -0.1482
    9loPI   C3A  137   7.197   2.953  10.121  0.0092 -0.0595 -0.3373
    9loPI   C4A  138   7.170   2.893   9.794 -0.0262 -0.0511 -0.3897
    9loPI   C5A  139   7.097   3.039   9.264 -0.0561  0.1727 -0.1474
    9loPI   C6A  140   7.066   3.111   8.916  0.0294  0.0154 -0.1476
    9loPI   C1B  141   7.671   3.088  10.677 -0.0851 -0.2399 -0.0754
    9loPI   C2B  142   7.614   3.137  10.325 -0.1499 -0.0288  0.1331
    9loPI   C3B  143   7.613   3.037   9.847  0.1722 -0.0562  0.0967
    9loPI   C4B  144   7.636   2.939   9.410  0.0406 -0.1942  0.0101
   10loPI    C1  145   3.515  11.643  11.965  0.0765 -0.1271  0.0835
   10loPI    C2  146   3.748  11.377  12.153  0.0819 -0.0258  0.2209
   10loPI    C3  147   3.446  11.554  12.349  0.0829  0.0749  0.1326
   10loPI   PO4  148   3.518  11.608  11.692  0.0679  0.0484  0.3934
   10loPI   GL1  149   3.376  11.266  11.455  0.0504 -0.0088 -0.0669
   10loPI   GL2  150   3.411  11.018  11.338  0.0215 -0.1741 -0.0138
   10loPI   C1A  151   3.406  11.420  11.046  0.1674  0.2563  0.0170
   10loPI   C2A  152   3.324  11.434  10.609  0.1171 -0.1669  0.1439
   10loPI   C3A  153   3.232  11.440  10.225 -0.2197  0.0497  0.1430
   10loPI   C4A  154   3.219  11.527   9.743  0.1090  0.1425 -0.1070
   10loPI   C5A  155   3.101  11.392   9.285 -0.1406 -0.1153  0.1314
   10loPI   C6A  156   2.706  11.464   9.067 -0.2215  0.1967  0.0634
   10loPI   C1B  157   3.277  10.918  10.971 -0.1692  0.1146  0.0768
   10loPI   C2B  158   3.258  10.959  10.502 -0.1884 -0.2077 -0.1769
   10loPI   C3B  159   3.250  10.898  10.033  0.0811 -0.0528 -0.1780
   10loPI   C4B  160   3.238  11.014   9.705  0.2993  0.1869  0.3252
   11loPI    C1  161  13.889   5.797  11.992  0.0121  0.0156  0.0956
   11loPI    C2  162  14.186   6.054  12.070 -0.1741  0.2338  0.0945
   11loPI    C3  163  13.979   5.891  12.371 -0.0250  0.0459  0.0969
   11loPI   PO4  164  13.951   5.744  11.657  0.0067 -0.1490  0.0576
   11loPI   GL1  165  13.625   5.723  11.321  0.1998  0.1609  0.1391
   11loPI   GL2  166  13.440   5.433  11.321  0.1241 -0.0215  0.1863
   11loPI   C1A  167  13.522   5.810  10.930  0.0755 -0.1084  0.1067
   11loPI   C2A  168  13.589   5.858  10.559  0.5118  0.2921 -0.2544
   11loPI   C3A  169  13.608   5.800  10.126  0.0578  0.1391 -0.1075
   11loPI   C4A  170  13.709   5.726   9.701 -0.1651  0.0012 -0.1291
   11loPI   C5A  171  13.876   5.778   9.238  0.1049  0.1817  0.3335
   11loPI   C6A  172  14.001   5.655   8.775 -0.0335 -0.1299 -0.0501
   11loPI   C1B  173  13.484   5.338  10.873 -0.1958  0.0398  0.0272
   11loPI   C2B  174  13.496   5.336  10.486 -0.0597 -0.2465 -0.0719
   11loPI   C3B  175  13.474   5.221  10.045 -0.4079 -0.2103  0.1503
   11loPI   C4B  176  13.598   5.257   9.646 -0.2908 -0.3394  0.0398
   12loPI    C1  177   8.476   9.775  11.508  0.0737  0.2827  0.0690
   12loPI    C2  178   8.753   9.572  11.715 -0.2236 -0.2859 -0.0689
   12loPI    C3  179   8.536   9.856  11.895  0.2814  0.0061  0.0982
   12loPI   PO4  180   8.589   9.830  11.289 -0.1434 -0.0864 -0.2217
   12loPI   GL1  181   8.409   9.637  10.907 -0.0211  0.0562 -0.2191
   12loPI   GL2  182   8.168   9.828  10.844  0.3492 -0.4508 -0.0759
   12loPI   C1A  183   8.346   9.584  10.423 -0.1549 -0.3699  0.2053
   12loPI   C2A  184   8.405   9.632  10.067  0.1374 -0.0362 -0.2622
   12loPI   C3A  185   8.385   9.584   9.573  0.0493 -0.3323 -0.0230
   12loPI   C4A  186   8.272   9.531   9.132 -0.0780  0.1031  0.0445
   12loPI   C5A  187   8.084   9.721   8.680 -0.3011  0.2602 -0.1252
   12loPI   C6A  188   7.909  10.062   8.529 -0.0036  0.0532 -0.1687
   12loPI   C1B  189   8.017   9.956  10.422  0.1953 -0.0326  0.3049
   12loPI   C2B  190   7.912   9.954  10.014  0.0602 -0.0138 -0.0328
   12loPI   C3B  191   8.017   9.938   9.606  0.1875 -0.2306  0.0991
   12loPI   C4B  192   7.933   9.945   9.124  0.1974  0.2171 -0.1744
   13loPI    C1  193   2.149  11.534  12.084  0.0630 -0.0128 -0.0855
   13loPI    C2  194   2.197  11.916  12.194  0.0417  0.0665 -0.3458
   13loPI    C3  195   1.925  11.688  12.378 -0.0223  0.2080 -0.2633
   13loPI   PO4  196   2.086  11.502  11.834  0.3196 -0.2511  0.1148
   13loPI   GL1  197   2.162  11.243  11.491  0.1200  0.1749  0.3238
   13loPI   GL2  198   2.323  10.964  11.487 -0.2693  0.1427 -0.0384
   13loPI   C1A  199   1.954  11.374  11.113 -0.1520 -0.0728  0.2152
   13loPI   C2A  200   1.959  11.350  10.710 -0.2677 -0.1577 -0.0859
   13loPI   C3A  201   1.895  11.378  10.294 -0.0545 -0.0696 -0.1487
   13loPI   C4A  202   2.004  11.378   9.874  0.3065 -0.1943 -0.0565
   13loPI   C5A  203   1.904  11.551   9.497  0.0594 -0.1712 -0.4021
   13loPI   C6A  204   1.559  11.852   9.340 -0.2935 -0.3105  0.1158
   13loPI   C1B  205   2.396  11.028  11.084  0.0515  0.1222 -0.2044
   13loPI   C2B  206   2.367  10.981  10.692 -0.2211  0.5682 -0.1548
   13loPI   C3B  207   2.322  11.078  10.171  0.1016 -0.0456  0.1086
   13loPI   C4B  208   2.400  11.019   9.785  0.1217  0.2636 -0.0929
   14loPI    C1  209   7.890   5.982  11.563 -0.0154 -0.0277 -0.0109
   14loPI    C2  210   7.729   5.629  11.468 -0.3135  0.0570  0.1655
   14loPI    C3  211   7.753   5.741  11.851 -0.0213  0.1380  0.1264
   14loPI   PO4  212   8.054   6.005  11.288  0.1180 -0.1763  0.3017
   14loPI   GL1  213   8.353   6.152  11.008 -0.3236  0.1077 -0.0710
   14loPI   GL2  214   8.498   6.373  10.869 -0.1535  0.1981 -0.1921
   14loPI   C1A  215   8.225   6.187  10.488  0.1009 -0.2348  0.0967
   14loPI   C2A  216   8.168   6.232  10.079  0.1496  0.0917 -0.0422
   14loPI   C3A  217   8.176   6.260   9.673  0.0618  0.1018 -0.0595
   14loPI   C4A  218   8.290   6.163   9.337  0.1197  0.1193 -0.2956
   14loPI   C5A  219   8.140   6.018   8.972 -0.1043 -0.1087 -0.1552
   14loPI   C6A  220   8.115   5.718   8.706  0.0012  0.0170  0.2111
   14loPI   C1B  221   8.684   6.456  10.464 -0.0263  0.1264 -0.2071
   14loPI   C2B  222   8.722   6.368   9.998 -0.0306  0.1411  0.1841
   14loPI   C3B  223   8.666   6.318   9.552 -0.3001 -0.1691 -0.0085
   14loPI   C4B  224   8.723   6.342   9.040  0.1907  0.4320  0.1831
   15loPI    C1  225   6.755   5.546  12.029 -0.0111 -0.0942  0.0749
   15loPI    C2  226   6.766   5.930  11.919  0.0509 -0.1080  0.0322
   15loPI    C3  227   6.610   5.828  12.273 -0.4087 -0.0897 -0.1574
   15loPI   PO4  228   6.696   5.486  11.678 -0.0208  0.0686 -0.0825
   15loPI   GL1  229   6.392   5.577  11.339  0.3006 -0.1864  0.2548
   15loPI   GL2  230   6.572   5.367  11.195 -0.3908 -0.2974  0.3676
   15loPI   C1A  231   6.213   5.648  10.959  0.2005 -0.0780  0.0516
   15loPI   C2A  232   6.135   5.578  10.544  0.2212 -0.1144 -0.1098
   15loPI   C3A  233   6.093   5.568  10.114  0.1086 -0.0680  0.1679
   15loPI   C4A  234   6.131   5.537   9.705 -0.1076 -0.3857 -0.0989
   15loPI   C5A  235   6.244   5.491   9.270  0.0474 -0.4208 -0.1384
   15loPI   C6A  236   6.194   5.500   8.843  0.1181 -0.0328 -0.4435
   15loPI   C1B  237   6.611   5.317  10.738  0.2713 -0.1014 -0.2807
   15loPI   C2B  238   6.590   5.259  10.336  0.1886 -0.1484 -0.1072
   15loPI   C3B  239   6.491   5.198   9.965 -0.3479 -0.2597  0.2288
   15loPI   C4B  240   6.628   5.123   9.521  0.3310 -0.3186  0.2619
   16loPI    C1  241   3.200   2.564  11.861 -0.2120 -0.0155 -0.0476
   16loPI    C2  242   2.930   2.562  12.156 -0.0973  0.0027  0.0581
   16loPI    C3  243   3.248   2.804  12.178 -0.0773 -0.0115 -0.0706
   16loPI   PO4  244   3.092   2.644  11.599 -0.0283  0.0659 -0.0249
   16loPI   GL1  245   3.372   2.640  11.343  0.0130 -0.0904 -0.1603
   16loPI   GL2  246   3.624   2.723  11.663 -0.1517 -0.1315 -0.1198
   16loPI   C1A  247   3.289   2.734  10.949  0.4930 -0.0475  0.1157
   16loPI   C2A  248   3.362   2.566  10.549 -0.0575  0.1353 -0.0366
   16loPI   C3A  249   3.335   2.567  10.124  0.2838 -0.0623 -0.0765
   16loPI   C4A  250   3.322   2.672   9.671 -0.1032  0.1034  0.0179
   16loPI   C5A  251   3.487   2.977   9.289 -0.0457  0.2590  0.0333
   16loPI   C6A  252   3.663   3.124   8.971 -0.2482 -0.0420 -0.2519
   16loPI   C1B  253   3.857   2.853  11.199  0.0082  0.1664  0.1696
   16loPI   C2B  254   3.826   2.863  10.702 -0.1927  0.0812 -0.2948
   16loPI   C3B  255   3.792   2.828  10.265 -0.2106 -0.0065 -0.0331
   16loPI   C4B  256   3.839   2.800   9.700  0.0524 -0.3226 -0.4148
   17loPI    C1  257  11.584  14.320  11.367  0.1784 -0.0881  0.1974
   17loPI    C2  258  11.492  14.316  11.756 -0.0799  0.3338  0.1480
   17loPI    C3  259  11.643  14.647  11.590  0.1285  0.1230 -0.0926
   17loPI   PO4  260  11.367  14.183  11.192 -0.1502 -0.1138 -0.0484
   17loPI   GL1  261  11.302  13.964  10.847  0.3047  0.1966  0.0592
   17loPI   GL2  262  11.546  13.939  10.639 -0.0616 -0.1854  0.1199
   17loPI   C1A  263  11.245  14.331  10.510 -0.0051  0.0974  0.1419
   17loPI   C2A  264  11.247  14.362  10.007 -0.0630  0.0916 -0.1094
   17loPI   C3A  265  11.297  14.338   9.484  0.0954 -0.0458 -0.0790
   17loPI   C4A  266  11.284  14.149   9.117  0.0860 -0.4322  0.2936
   17loPI   C5A  267  11.093  13.960   8.843 -0.1512 -0.2486  0.1620
   17loPI   C6A  268  10.659  14.047   8.762 -0.0161 -0.0523  0.1385
   17loPI   C1B  269  11.659  14.079  10.200 -0.5100 -0.0966  0.1089
   17loPI   C2B  270  11.684  14.047   9.781  0.1695 -0.2786  0.0688
   17loPI   C3B  271  11.684  13.929   9.300 -0.0638 -0.1213  0.2516
   17loPI   C4B  272  11.599  13.771   9.009  0.2494  0.2452  0.0640
   18loPI    C1  273  14.949   7.309  11.686 -0.1661  0.2269  0.0174
   18loPI    C2  274  15.124   7.552  11.951  0.1078 -0.0105  0.0591
   18loPI    C3  275  14.882   7.259  12.077 -0.0527  0.1052  0.0222
   18loPI   PO4  276  15.002   7.431  11.458 -0.1315 -0.0157  0.1879
   18loPI   GL1  277  14.880   7.415  11.046  0.0015  0.1388  0.1123
   18loPI   GL2  278  14.846   7.682  10.926 -0.0815  0.1977  0.0445
   18loPI   C1A  279  14.764   7.166  10.730  0.0741  0.1248 -0.1857
   18loPI   C2A  280  14.799   7.152  10.283  0.1507 -0.1000  0.0129
   18loPI   C3A  281  14.779   7.206   9.830  0.1254 -0.1480  0.0081
   18loPI   C4A  282  14.962   7.220   9.472 -0.0956 -0.0369  0.1261
   18loPI   C5A  283  14.995   7.269   9.000 -0.2788  0.2113 -0.4961
   18loPI   C6A  284  14.718   7.467   8.771  0.0843 -0.0650  0.0221
   18loPI   C1B  285  14.803   7.649  10.567 -0.0377  0.0619  0.2153
   18loPI   C2B  286  14.839   7.683  10.145 -0.1290  0.0591 -0.1052
   18loPI   C3B  287  14.895   7.665   9.687 -0.2902 -0.1054 -0.2984
   18loPI   C4B  288  14.924   7.666   9.282  0.1527  0.0819 -0.1679
   19loPI    C1  289   4.310   2.344  12.210  0.2079 -0.0501  0.0312
   19loPI    C2  290   4.418   2.609  12.490  0.3250 -0.1195  0.0523
   19loPI    C3  291   4.438   2.217  12.567  0.1095 -0.1347  0.0367
   19loPI   PO4  292   4.422   2.409  11.943  0.1125  0.0963  0.1059
   19loPI   GL1  293   4.710   2.360  11.646 -0.3870  0.1432 -0.0027
   19loPI   GL2  294   5.106   2.228  11.625  0.1953  0.0523  0.0756
   19loPI   C1A  295   4.853   2.163  11.219 -0.0049  0.5300  0.0814
   19loPI   C2A  296   4.794   2.074  10.900 -0.1322  0.1089  0.4382
   19loPI   C3A  297   4.724   2.119  10.437  0.0503 -0.0131  0.0542
   19loPI   C4A  298   4.609   2.211  10.124  0.1041  0.3052  0.0110
   19loPI   C5A  299   4.638   2.190   9.668  0.1283  0.2932  0.1321
   19loPI   C6A  300   4.654   2.136   9.116  0.1119 -0.3567  0.2585
   19loPI   C1B  301   5.323   2.260  11.161  0.2278 -0.2076 -0.2195
   19loPI   C2B  302   5.226   2.277  10.848 -0.2408  0.0066  0.0711
   19loPI   C3B  303   5.186   2.269  10.449  0.0389 -0.0744 -0.3841
   19loPI   C4B  304   5.082   2.361  10.006 -0.3310 -0.0208 -0.1177
   20loPI    C1  305  10.248   0.232  11.261  0.1880 -0.1013 -0.0947
   20loPI    C2  306  10.314  -0.139  11.125  0.0644 -0.1562 -0.0068
   20loPI    C3  307  10.066  -0.080  11.433  0.2158 -0.0168  0.0902
   20loPI   PO4  308  10.325   0.331  10.955  0.1240 -0.1724  0.0326
   20loPI   GL1  309  10.479   0.178  10.652  0.1764  0.0433  0.1166
   20loPI   GL2  310  10.764   0.374  10.720  0.1119 -0.2016 -0.0842
   20loPI   C1A  311  10.328   0.200  10.305  0.3661  0.0715 -0.0135
   20loPI   C2A  312  10.283   0.047   9.907 -0.0838  0.0044 -0.2312
   20loPI   C3A  313  10.399   0.123   9.521  0.0367 -0.1544 -0.0745
   20loPI   C4A  314  10.456  -0.104   9.160  0.2184  0.0350 -0.1327
   20loPI   C5A  315  10.538  -0.364   8.872 -0.0213  0.0417 -0.0820
   20loPI   C6A  316  10.807  -0.474   8.515  0.2445 -0.1250 -0.1950
   20loPI   C1B  317  10.848   0.303  10.295 -0.0641  0.1737  0.2826
   20loPI   C2B  318  10.956   0.427   9.858 -0.4010  0.0856 -0.1410
   20loPI   C3B  319  11.091   0.607   9.474  0.0963 -0.3313  0.0762
   20loPI   C4B  320  11.254   0.396   9.050  0.1354  0.1269 -0.0308
   21loPI    C1  321   5.765  15.202  11.765 -0.0197  0.1063 -0.1282
   21loPI    C2  322   5.937  15.554  11.847 -0.3188  0.2356 -0.0414
   21loPI    C3  323   5.891  15.281  12.136  0.1178  0.0299 -0.1582
   21loPI   PO4  324   5.819  15.179  11.514  0.4129  0.2644  0.2266
   21loPI   GL1  325   5.761  15.221  11.118 -0.1493 -0.1605 -0.1035
   21loPI   GL2  326   6.140  15.042  11.028  0.2125  0.0294  0.0628
   21loPI   C1A  327   5.854  15.382  10.771 -0.3140  0.2973 -0.3346
   21loPI   C2A  328   5.799  15.448  10.342  0.1671 -0.0036  0.0659
   21loPI   C3A  329   5.732  15.367   9.865 -0.2787 -0.0566 -0.0035
   21loPI   C4A  330   5.749  15.253   9.429  0.2573 -0.0016  0.4939
   21loPI   C5A  331   5.605  15.289   9.031  0.0622 -0.2130  0.1874
   21loPI   C6A  332   5.598  14.894   8.897 -0.1741  0.3186  0.0179
   21loPI   C1B  333   6.288  15.067  10.644  0.3659  0.1300 -0.0256
   21loPI   C2B  334   6.306  15.065  10.234  0.0922  0.1637  0.0221
   21loPI   C3B  335   6.177  15.023   9.815  0.0313 -0.0966  0.1603
   21loPI   C4B  336   6.212  14.968   9.375 -0.0247  0.2268 -0.2494
   22loPI    C1  337   5.736  10.954  11.442 -0.0152  0.0561  0.1632
   22loPI    C2  338   6.092  11.132  11.406  0.0268 -0.0183  0.2079
   22loPI    C3  339   5.860  11.212  11.722  0.1374 -0.2022  0.3380
   22loPI   PO4  340   5.739  10.868  11.090  0.2283 -0.2921  0.0229
   22loPI   GL1  341   6.108  10.875  10.843 -0.2002  0.0425 -0.0000
   22loPI   GL2  342   6.448  11.087  11.009  0.1501 -0.0426  0.1371
   22loPI   C1A  343   6.114  10.758  10.385  0.1166  0.2407  0.1644
   22loPI   C2A  344   6.123  10.741   9.984 -0.0436  0.0057 -0.0561
   22loPI   C3A  345   6.340  10.782   9.647 -0.2000 -0.0344 -0.0652
   22loPI   C4A  346   6.350  10.750   9.237  0.0533  0.0930  0.0196
   22loPI   C5A  347   6.613  10.518   9.005  0.0239  0.0223  0.2892
   22loPI   C6A  348   6.518  10.281   8.656  0.2259  0.1753  0.0618
   22loPI   C1B  349   6.424  11.154  10.549 -0.3217 -0.0197  0.0374
   22loPI   C2B  350   6.495  11.142  10.083  0.1095 -0.0928  0.1410
   22loPI   C3B  351   6.339  11.258   9.706  0.0286 -0.0183  0.0523
   22loPI   C4B  352   6.425  11.314   9.228  0.0956  0.0116  0.0515
   23loPI    C1  353   0.362   2.653  12.033 -0.1990 -0.1683  0.0536
   23loPI    C2  354   0.124   2.915  12.219  0.1211 -0.0471  0.3016
   23loPI    C3  355   0.105   2.526  12.312 -0.1905 -0.0840  0.0998
   23loPI   PO4  356   0.313   2.598  11.758  0.2324 -0.0886  0.0752
   23loPI   GL1  357   0.409   2.735  11.324  0.1820  0.0161 -0.2340
   23loPI   GL2  358   0.165   2.898  11.191  0.1697 -0.3998  0.1215
   23loPI   C1A  359   0.570   2.667  10.934  0.0758  0.0370 -0.3565
   23loPI   C2A  360   0.579   2.584  10.470 -0.0348 -0.1915 -0.1073
   23loPI   C3A  361   0.477   2.547  10.037 -0.3779  0.0737  0.4785
   23loPI   C4A  362   0.553   2.400   9.674 -0.2694 -0.1391  0.2664
   23loPI   C5A  363   0.277   2.310   9.259 -0.2181 -0.1444  0.1661
   23loPI   C6A  364   0.001   2.537   9.095 -0.0246 -0.1030  0.0344
   23loPI   C1B  365   0.118   2.839  10.831  0.0754  0.0868  0.1998
   23loPI   C2B  366   0.190   2.854  10.398  0.2042 -0.2345  0.1109
   23loPI   C3B  367   0.072   2.872   9.883 -0.4342 -0.0134 -0.0580
   23loPI   C4B  368   0.280   2.764   9.424  0.3165 -0.1108 -0.1553
   24loPI    C1  369  11.094   0.484  11.499 -0.0077 -0.3423 -0.1349
   24loPI    C2  370  11.350   0.593  11.786 -0.1449  0.0209 -0.1449
   24loPI    C3  371  11.041   0.355  11.874  0.0099 -0.1544 -0.0668
   24loPI   PO4  372  11.165   0.436  11.362 -0.0076 -0.0083  0.0133
   24loPI   GL1  373  11.202   0.405  10.978  0.1153 -0.4861 -0.0775
   24loPI   GL2  374  11.531   0.607  10.823  0.1732 -0.1793 -0.0859
   24loPI   C1A  375  11.295   0.215  10.585  0.3157 -0.1210  0.0359
   24loPI   C2A  376  11.395   0.167  10.185 -0.3265 -0.3663  0.1304
   24loPI   C3A  377  11.435   0.152   9.726  0.2074  0.0418  0.0606
   24loPI   C4A  378  11.631   0.089   9.321  0.2237 -0.0987  0.0949
   24loPI   C5A  379  11.980  -0.003   9.166  0.3022 -0.0804 -0.2955
   24loPI   C6A  380  11.952  -0.286   8.833 -0.1243  0.2068  0.2112
   24loPI   C1B  381  11.483   0.661  10.410  0.0748 -0.1135 -0.0665
   24loPI   C2B  382  11.455   0.708   9.832 -0.0074 -0.0878  0.1035
   24loPI   C3B  383  11.600   0.699   9.384  0.2502  0.1133 -0.0817
   24loPI   C4B  384  11.782   0.509   8.941 -0.0106 -0.1044  0.2797
   25loPI    C1  385   5.680  14.336  11.695  0.1233 -0.1178 -0.0479
   25loPI    C2  386   5.718  14.705  11.844 -0.0524 -0.0925 -0.0638
   25loPI    C3  387   5.929  14.404  12.000 -0.0890 -0.0303  0.1085
   25loPI   PO4  388   5.695  14.358  11.425  0.0639  0.1357  0.0097
   25loPI   GL1  389   5.446  14.339  11.146 -0.1940 -0.1697 -0.1926
   25loPI   GL2  390   5.285  14.528  11.007  0.2046 -0.3383  0.0775
   25loPI   C1A  391   5.591  14.278  10.689  0.3415  0.0812  0.3024
   25loPI   C2A  392   5.592  14.260  10.199  0.3228 -0.2148 -0.4008
   25loPI   C3A  393   5.542  14.341   9.817  0.3834 -0.0755 -0.1911
   25loPI   C4A  394   5.414  14.215   9.374 -0.0860  0.1137 -0.2287
   25loPI   C5A  395   5.558  13.891   9.099  0.0596 -0.0634 -0.0827
   25loPI   C6A  396   5.413  13.967   8.738 -0.2390  0.2007 -0.0443
   25loPI   C1B  397   5.186  14.679  10.547  0.1444 -0.0891  0.0225
   25loPI   C2B  398   5.240  14.636  10.089 -0.1366  0.1346  0.1905
   25loPI   C3B  399   5.151  14.596   9.621  0.2011  0.2732  0.3490
   25loPI   C4B  400   5.181  14.698   9.084 -0.1286  0.0435 -0.1025
   26loPI    C1  401   4.032   5.302  11.998 -0.0165  0.1511  0.1491
   26loPI    C2  402   3.959   4.935  12.140 -0.0614  0.0822 -0.0494
   26loPI    C3  403   3.697   5.231  12.205 -0.0505  0.0670  0.0656
   26loPI   PO4  404   4.105   5.202  11.768 -0.1360 -0.1648  0.0001
   26loPI   GL1  405   4.362   5.356  11.443 -0.2614  0.0948  0.0476
   26loPI   GL2  406   4.231   5.037  11.315  0.0264 -0.2838  0.0218
   26loPI   C1A  407   4.327   5.453  11.029  0.0730 -0.1174  0.4703
   26loPI   C2A  408   4.236   5.443  10.616  0.0603  0.2512  0.1312
   26loPI   C3A  409   4.234   5.321  10.221 -0.0139  0.0172  0.0016
   26loPI   C4A  410   4.291   5.336   9.814 -0.0887  0.1146  0.2159
   26loPI   C5A  411   4.231   5.387   9.371 -0.2426  0.2973  0.1365
   26loPI   C6A  412   3.912   5.222   9.109 -0.0461  0.2675  0.1782
   26loPI   C1B  413   4.188   4.963  10.863 -0.1611  0.1352  0.0724
   26loPI   C2B  414   4.163   4.876  10.400  0.2158 -0.0518 -0.1492
   26loPI   C3B  415   4.183   4.751   9.981  0.0519 -0.0376  0.2572
   26loPI   C4B  416   4.175   4.815   9.460  0.0536  0.0918  0.0767
   27loPI    C1  417  14.818   2.899  11.954 -0.1454  0.0089 -0.1297
   27loPI    C2  418  14.633   2.635  12.191 -0.1013 -0.0170 -0.1240
   27loPI    C3  419  14.723   2.999  12.329  0.1051 -0.1000 -0.0350
   27loPI   PO4  420  14.733   2.764  11.672  0.0653 -0.2460  0.0172
   27loPI   GL1  421  14.844   2.748  11.242 -0.1156 -0.1483  0.2134
   27loPI   GL2  422  15.035   3.054  11.178 -0.2074 -0.1759  0.0316
   27loPI   C1A  423  14.675   2.748  10.773 -0.1022  0.4646 -0.0729
   27loPI   C2A  424  14.598   2.743  10.372 -0.1451 -0.0660  0.3427
   27loPI   C3A  425  14.576   2.773   9.934 -0.1179  0.1846 -0.1337
   27loPI   C4A  426  14.523   2.831   9.480 -0.2419 -0.2647  0.0383
   27loPI   C5A  427  14.239   2.828   9.130 -0.4608 -0.0988  0.0231
   27loPI   C6A  428  13.772   2.626   9.132  0.1986 -0.1091 -0.2619
   27loPI   C1B  429  15.116   2.932  10.851 -0.1266 -0.2693  0.2094
   27loPI   C2B  430  15.027   2.940  10.404  0.0691 -0.0388 -0.1665
   27loPI   C3B  431  15.088   3.001  10.013 -0.3337 -0.0275  0.1088
   27loPI   C4B  432  15.003   3.003   9.586 -0.1372  0.1491 -0.1050
   28loPI    C1  433   5.740  12.263  11.523 -0.0861 -0.1433 -0.2495
   28loPI    C2  434   5.715  11.994  11.817  0.1756  0.0706 -0.0261
   28loPI    C3  435   5.506  12.335  11.839  0.0059 -0.0198 -0.2085
   28loPI   PO4  436   5.920  12.125  11.360  0.1183  0.0044 -0.1347
   28loPI   GL1  437   6.033  12.285  11.001  0.0473 -0.1348  0.0256
   28loPI   GL2  438   6.250  11.990  10.915  0.1619  0.2121 -0.1716
   28loPI   C1A  439   5.904  12.467  10.659 -0.0528  0.3909 -0.0011
   28loPI   C2A  440   5.888  12.497  10.192 -0.0464 -0.2910 -0.0702
   28loPI   C3A  441   5.720  12.520   9.808  0.1737 -0.0334  0.2735
   28loPI   C4A  442   5.714  12.531   9.306 -0.1111  0.1805 -0.2242
   28loPI   C5A  443   5.583  12.512   8.910 -0.1165 -0.1191  0.1505
   28loPI   C6A  444   5.796  12.427   8.579  0.0939 -0.2669  0.2704
   28loPI   C1B  445   6.246  12.105  10.460  0.2471 -0.0230 -0.2373
   28loPI   C2B  446   6.257  12.233   9.938  0.0055 -0.2777 -0.0246
   28loPI   C3B  447   6.093  12.179   9.500  0.1525 -0.1171  0.1472
   28loPI   C4B  448   5.907  12.145   9.027 -0.1561  0.0319  0.1250
   29loPI    C1  449  10.994   9.065  11.590 -0.2044 -0.1843  0.0812
   29loPI    C2  450  11.327   8.879  11.711 -0.0135  0.1465  0.0739
   29loPI    C3  451  11.077   9.037  11.980 -0.1504 -0.0746  0.0781
   29loPI   PO4  452  11.036   8.977  11.281 -0.1821 -0.1304 -0.2524
   29loPI   GL1  453  11.077   8.735  10.809 -0.0731 -0.2080  0.0734
   29loPI   GL2  454  11.311   8.507  10.740 -0.0793  0.0205 -0.0268
   29loPI   C1A  455  10.939   8.579  10.409  0.0825 -0.3076  0.0333
   29loPI   C2A  456  10.903   8.632   9.970  0.2322 -0.1957  0.0694
   29loPI   C3A  457  10.906   8.596   9.477 -0.0290 -0.2713 -0.1237
   29loPI   C4A  458  10.864   8.575   9.038 -0.1037 -0.1914 -0.0545
   29loPI   C5A  459  11.174   8.554   8.759 -0.0240 -0.1969 -0.0412
   29loPI   C6A  460  11.592   8.449   8.687  0.0236 -0.3229 -0.0585
   29loPI   C1B  461  11.347   8.352  10.368 -0.1530  0.0303 -0.0816
   29loPI   C2B  462  11.261   8.345   9.913 -0.2839  0.5975  0.1012
   29loPI   C3B  463  11.250   8.232   9.505 -0.2705  0.0393 -0.0386
   29loPI   C4B  464  11.401   8.178   9.066  0.1121  0.1797 -0.1027
   30loPI    C1  465  16.846  13.537  11.946 -0.0071 -0.1774  0.0366
   30loPI    C2  466  16.909  13.174  12.104  0.3184 -0.0837  0.1303
   30loPI    C3  467  16.727  13.457  12.320 -0.0642 -0.2296  0.0075
   30loPI   PO4  468  16.730  13.536  11.753  0.1397  0.3340  0.1199
   30loPI   GL1  469  16.658  13.633  11.321 -0.1682 -0.3566 -0.0342
   30loPI   GL2  470  16.781  13.297  11.252  0.2604  0.1156  0.2055
   30loPI   C1A  471  16.845  13.825  11.072 -0.1909 -0.2349 -0.0889
   30loPI   C2A  472  16.751  13.812  10.652 -0.4260 -0.0425  0.0146
   30loPI   C3A  473  16.805  13.947  10.336 -0.0402  0.0996  0.0362
   30loPI   C4A  474  16.782  13.937   9.920 -0.1590 -0.1220  0.0365
   30loPI   C5A  475  16.869  13.969   9.483 -0.0072  0.1346  0.1126
   30loPI   C6A  476  16.704  13.651   9.300  0.0350 -0.2624  0.0067
   30loPI   C1B  477  16.597  13.359  10.870 -0.1172 -0.1594  0.0651
   30loPI   C2B  478  16.701  13.381  10.433  0.0814 -0.2339  0.0815
   30loPI   C3B  479  16.731  13.396  10.021  0.1486  0.1411  0.2145
   30loPI   C4B  480  16.626  13.333   9.644  0.0598  0.1355 -0.2397
   31loPI    C1  481   9.835   4.669  11.543  0.0800 -0.3118 -0.0065
   31loPI    C2  482  10.075   4.565  11.846  0.1864  0.0076  0.0228
   31loPI    C3  483   9.863   4.904  11.865 -0.0521 -0.1299 -0.1258
   31loPI   PO4  484   9.943   4.570  11.342 -0.2330 -0.2570 -0.3437
   31loPI   GL1  485  10.238   4.356  11.130 -0.2381 -0.1384  0.0085
   31loPI   GL2  486  10.192   4.054  11.095  0.1400  0.0331 -0.1477
   31loPI   C1A  487  10.290   4.564  10.637 -0.0438  0.0139  0.1719
   31loPI   C2A  488  10.218   4.441  10.251  0.1429  0.0730 -0.1093
   31loPI   C3A  489  10.268   4.497   9.861 -0.1211  0.2034  0.0185
   31loPI   C4A  490  10.315   4.570   9.376  0.1552 -0.0281  0.0877
   31loPI   C5A  491  10.482   4.859   9.158  0.4030  0.0762  0.1153
   31loPI   C6A  492  10.260   5.100   8.839  0.0146 -0.1634 -0.0775
   31loPI   C1B  493  10.131   3.997  10.660  0.1204  0.0887  0.0241
   31loPI   C2B  494   9.985   3.935  10.181 -0.3543  0.0570 -0.0167
   31loPI   C3B  495  10.138   3.941   9.766  0.0773  0.1959 -0.2826
   31loPI   C4B  496  10.320   4.016   9.467 -0.1078  0.1787  0.1085
   32loPI    C1  497  16.272  12.718  11.980  0.0754 -0.2730 -0.1075
   32loPI    C2  498  16.068  12.990  11.769  0.3280 -0.0867 -0.1169
   32loPI    C3  499  15.993  12.942  12.159  0.1527 -0.1371 -0.1557
   32loPI   PO4  500  16.397  12.581  11.779 -0.3115  0.0691 -0.3384
   32loPI   GL1  501  16.423  12.615  11.318  0.1290 -0.0250 -0.0193
   32loPI   GL2  502  16.457  12.927  11.131 -0.1289 -0.2063  0.1506
   32loPI   C1A  503  16.527  12.361  10.983 -0.0193 -0.0490  0.2845
   32loPI   C2A  504  16.547  12.340  10.593  0.2003  0.1056 -0.3192
   32loPI   C3A  505  16.519  12.400  10.101 -0.2507  0.2212 -0.3228
   32loPI   C4A  506  16.500  12.366   9.746 -0.1626  0.1567 -0.1674
   32loPI   C5A  507  16.518  12.474   9.285 -0.0328 -0.1847  0.1121
   32loPI   C6A  508  16.280  12.589   8.891 -0.1738  0.2276 -0.1281
   32loPI   C1B  509  16.630  12.811  10.740  0.0319 -0.4277  0.1408
   32loPI   C2B  510  16.575  12.901  10.400 -0.2678  0.1348 -0.0025
   32loPI   C3B  511  16.652  12.883  10.049 -0.0624  0.1595  0.2281
   32loPI   C4B  512  16.531  12.844   9.625 -0.0973 -0.2798  0.2280
   33loPI    C1  513  15.381   8.755  11.511 -0.0789 -0.1070 -0.1545
   33loPI    C2  514  15.563   8.952  11.808  0.1462 -0.1236 -0.2790
   33loPI    C3  515  15.321   8.645  11.890  0.1615 -0.0912 -0.1097
   33loPI   PO4  516  15.192   8.886  11.364 -0.1706 -0.0782 -0.1614
   33loPI   GL1  517  15.235   9.126  10.999  0.0179  0.1351 -0.4188
   33loPI   GL2  518  15.529   8.974  10.999 -0.0769 -0.2099 -0.0707
   33loPI   C1A  519  15.048   9.057  10.690 -0.3379  0.1708 -0.0381
   33loPI   C2A  520  15.031   9.089  10.267  0.1567  0.3739  0.0018
   33loPI   C3A  521  15.074   9.325   9.922  0.1021  0.0212 -0.0745
   33loPI   C4A  522  15.220   9.438   9.467  0.2504 -0.4434  0.0269
   33loPI   C5A  523  15.355   9.560   9.063 -0.0619 -0.0684  0.0112
   33loPI   C6A  524  15.435   9.562   8.601 -0.1154  0.0195 -0.1520
   33loPI   C1B  525  15.522   8.940  10.530 -0.0456  0.1069  0.1577
   33loPI   C2B  526  15.463   8.979  10.132  0.5137  0.3108  0.0223
   33loPI   C3B  527  15.458   9.054   9.692 -0.0884  0.1578  0.1969
   33loPI   C4B  528  15.749   9.170   9.353  0.0361 -0.0652 -0.1575
   34loPI    C1  529  14.706  10.017  11.564  0.0348 -0.0423 -0.2222
   34loPI    C2  530  14.317   9.947  11.499 -0.0158  0.0614 -0.0387
   34loPI    C3  531  14.441  10.067  11.860  0.2088 -0.1329 -0.0492
   34loPI   PO4  532  14.791   9.828  11.417 -0.2100  0.0562 -0.1405
   34loPI   GL1  533  14.781   9.914  10.987 -0.2106  0.0222  0.2461
   34loPI   GL2  534  14.439   9.773  10.986  0.0950 -0.2019  0.3923
   34loPI   C1A  535  14.599   9.781  10.490  0.0104  0.0466  0.0697
   34loPI   C2A  536  14.716   9.646  10.097  0.1209  0.1729 -0.0410
   34loPI   C3A  537  14.731   9.694   9.673 -0.1141 -0.0487 -0.1756
   34loPI   C4A  538  14.831   9.663   9.252  0.1747 -0.1527  0.4084
   34loPI   C5A  539  14.911   9.367   8.866 -0.0859 -0.0807 -0.3496
   34loPI   C6A  540  14.859   9.104   8.477  0.2949 -0.0769 -0.0509
   34loPI   C1B  541  14.284  10.061  10.734  0.1339 -0.0883 -0.0356
   34loPI   C2B  542  14.275  10.135  10.332 -0.0242  0.2567 -0.0840
   34loPI   C3B  543  14.320  10.166   9.880  0.2336 -0.3334  0.0297
   34loPI   C4B  544  14.384   9.997   9.404 -0.1740  0.0549  0.2126
   35loPI    C1  545   1.283   7.242  11.811  0.0358  0.0470  0.0145
   35loPI    C2  546   0.912   7.376  11.880  0.0839  0.0618  0.2544
   35loPI    C3  547   1.151   7.283  12.187  0.1853 -0.2070  0.0971
   35loPI   PO4  548   1.194   7.127  11.575 -0.2571  0.1239 -0.1988
   35loPI   GL1  549   1.268   7.187  11.149 -0.1876  0.3329 -0.1042
   35loPI   GL2  550   1.462   7.111  10.954  0.0257  0.1740  0.0246
   35loPI   C1A  551   0.978   7.059  10.872  0.1724 -0.2116  0.0457
   35loPI   C2A  552   0.893   6.986  10.444  0.1563  0.1086 -0.0427
   35loPI   C3A  553   0.887   6.954  10.015  0.0017  0.0368  0.1354
   35loPI   C4A  554   0.858   6.963   9.602  0.1386 -0.0514 -0.0313
   35loPI   C5A  555   0.601   7.130   9.264  0.2378 -0.2105 -0.1406
   35loPI   C6A  556   0.354   7.464   9.330  0.2857 -0.2753 -0.0468
   35loPI   C1B  557   1.384   7.113  10.504 -0.0157  0.0158  0.1875
   35loPI   C2B  558   1.438   7.136  10.063  0.2630  0.0307 -0.0575
   35loPI   C3B  559   1.355   7.038   9.649 -0.0735  0.1221  0.1809
   35loPI   C4B  560   1.205   6.648   9.374 -0.1919 -0.1357 -0.3174
   36loPI    C1  561  10.874   1.581  11.674  0.0568 -0.0655  0.0435
   36loPI    C2  562  10.626   1.268  11.684  0.1523 -0.1413  0.0519
   36loPI    C3  563  10.792   1.403  12.022 -0.0404  0.0410  0.0755
   36loPI   PO4  564  10.848   1.739  11.581  0.0067 -0.0083  0.0607
   36loPI   GL1  565  10.911   1.944  11.188 -0.0355  0.1442 -0.0192
   36loPI   GL2  566  10.701   2.164  11.195 -0.3942  0.1694  0.1784
   36loPI   C1A  567  11.131   1.906  10.790 -0.1904 -0.1293  0.5214
   36loPI   C2A  568  11.208   1.943  10.314 -0.0481 -0.1089  0.3553
   36loPI   C3A  569  11.294   1.932   9.854 -0.0148  0.1164  0.0753
   36loPI   C4A  570  11.388   2.053   9.415  0.1267 -0.0423  0.1324
   36loPI   C5A  571  11.278   1.821   9.092 -0.0186 -0.1441  0.0999
   36loPI   C6A  572  11.068   1.551   8.845 -0.0481 -0.2487 -0.0036
   36loPI   C1B  573  10.662   2.217  10.809  0.0133 -0.1910  0.0250
   36loPI   C2B  574  10.765   2.279  10.428 -0.2461 -0.2010 -0.0648
   36loPI   C3B  575  10.766   2.258   9.989 -0.1149 -0.4635 -0.0340
   36loPI   C4B  576  10.892   2.177   9.588  0.1286 -0.0745  0.3376
   37loPI    C1  577   1.457   5.383  12.024 -0.0577 -0.1627 -0.2724
   37loPI    C2  578   1.848   5.394  12.106 -0.1059  0.0700 -0.0645
   37loPI    C3  579   1.596   5.211  12.357 -0.1487  0.0493 -0.1226
   37loPI   PO4  580   1.381   5.211  11.756 -0.3609  0.2274 -0.0149
   37loPI   GL1  581   1.167   5.345  11.442 -0.2949  0.2339  0.1912
   37loPI   GL2  582   0.956   5.525  11.495  0.2619  0.1408 -0.0772
   37loPI   C1A  583   0.986   5.249  10.969 -0.1346  0.1499 -0.1398
   37loPI   C2A  584   0.864   5.228  10.604 -0.0580  0.0007  0.2439
   37loPI   C3A  585   0.969   5.047  10.243  0.2580  0.2054  0.0448
   37loPI   C4A  586   1.047   5.028   9.763  0.4352 -0.1045 -0.0761
   37loPI   C5A  587   1.085   4.948   9.292  0.0850  0.0657  0.4222
   37loPI   C6A  588   1.238   4.578   8.971 -0.2107  0.2042 -0.2179
   37loPI   C1B  589   0.967   5.769  11.079  0.0017 -0.2643  0.1045
   37loPI   C2B  590   1.107   5.650  10.718 -0.0318 -0.2586 -0.0674
   37loPI   C3B  591   0.975   5.674  10.365 -0.3782 -0.0074  0.0479
   37loPI   C4B  592   1.058   5.596   9.914  0.1714  0.3107  0.1018
   38loPI    C1  593   4.162   6.896  11.912  0.1993 -0.0064 -0.0324
   38loPI    C2  594   4.360   6.618  12.120  0.0010  0.0211  0.1987
   38loPI    C3  595   4.397   7.004  12.218  0.0100  0.0465  0.0966
   38loPI   PO4  596   4.241   6.861  11.697 -0.2782 -0.0698 -0.0653
   38loPI   GL1  597   4.117   6.820  11.255 -0.0356 -0.1128 -0.0434
   38loPI   GL2  598   4.097   6.442  11.261  0.0796 -0.2390 -0.2225
   38loPI   C1A  599   4.056   6.854  10.826  0.1527  0.0877  0.2450
   38loPI   C2A  600   4.022   6.905  10.402  0.1441  0.0207  0.3858
   38loPI   C3A  601   4.095   6.724   9.994  0.0028  0.0144 -0.2186
   38loPI   C4A  602   4.079   6.850   9.577  0.1386  0.0693  0.0599
   38loPI   C5A  603   4.274   6.676   9.140  0.0077 -0.2067  0.2353
   38loPI   C6A  604   4.467   6.638   8.713 -0.1039  0.0299  0.0711
   38loPI   C1B  605   3.923   6.314  10.851 -0.0928 -0.1050 -0.1880
   38loPI   C2B  606   4.006   6.205  10.351 -0.1604  0.0417  0.0992
   38loPI   C3B  607   4.041   6.188   9.863  0.0549  0.0531 -0.3436
   38loPI   C4B  608   3.894   6.390   9.521  0.1655 -0.4884  0.4238
   39loPI    C1  609  11.191   7.111  11.424 -0.1187  0.0385  0.0192
   39loPI    C2  610  11.122   6.863  11.730 -0.1152 -0.0253 -0.0315
   39loPI    C3  611  11.487   6.883  11.568 -0.1332 -0.0396 -0.0739
   39loPI   PO4  612  10.964   7.084  11.253 -0.2692 -0.2457  0.0413
   39loPI   GL1  613  11.065   6.866  10.957  0.1298 -0.1727  0.0685
   39loPI   GL2  614  10.727   6.708  11.015  0.2237  0.2497 -0.1079
   39loPI   C1A  615  11.064   6.857  10.476 -0.2943  0.1048  0.2467
   39loPI   C2A  616  11.079   6.821  10.097  0.1994 -0.0524 -0.1922
   39loPI   C3A  617  10.976   6.566   9.832 -0.0043  0.1038  0.3159
   39loPI   C4A  618  11.100   6.652   9.386  0.0734  0.0338 -0.1695
   39loPI   C5A  619  11.317   6.654   8.952  0.0394  0.4611  0.2887
   39loPI   C6A  620  11.355   6.627   8.600  0.2541 -0.2112 -0.2370
   39loPI   C1B  621  10.585   6.706  10.608  0.3725 -0.3129 -0.0987
   39loPI   C2B  622  10.447   6.569  10.251  0.2094 -0.5325  0.1732
   39loPI   C3B  623  10.492   6.484   9.884 -0.0412 -0.2561 -0.0134
   39loPI   C4B  624  10.564   6.563   9.427  0.1862 -0.0964  0.2150
   40loPI    C1  625   7.211   5.700  11.404  0.1371  0.1467 -0.1461
   40loPI    C2  626   7.353   5.980  11.652 -0.2498  0.2397 -0.0232
   40loPI    C3  627   7.185   5.648  11.800  0.0305  0.0288 -0.1678
   40loPI   PO4  628   7.281   5.711  11.190 -0.1643 -0.0643 -0.2129
   40loPI   GL1  629   7.014   5.603  10.860 -0.2107  0.2672 -0.1364
   40loPI   GL2  630   6.783   5.759  10.967  0.2842  0.0350  0.0124
   40loPI   C1A  631   7.074   5.382  10.582 -0.1403 -0.1467  0.2414
   40loPI   C2A  632   7.074   5.431  10.179 -0.0709  0.0746  0.0708
   40loPI   C3A  633   7.035   5.384   9.796 -0.3472 -0.0342 -0.2443
   40loPI   C4A  634   7.098   5.422   9.392 -0.0459  0.1473 -0.0179
   40loPI   C5A  635   7.146   5.517   8.955  0.0449  0.2389 -0.0411
   40loPI   C6A  636   7.511   5.490   8.638 -0.1378  0.5025  0.1501
   40loPI   C1B  637   6.673   5.809  10.537 -0.0882 -0.1882 -0.1551
   40loPI   C2B  638   6.681   5.721  10.103  0.0228 -0.1148 -0.1645
   40loPI   C3B  639   6.674   5.707   9.637  0.0911 -0.0975 -0.2297
   40loPI   C4B  640   6.756   5.733   9.238  0.0553  0.0094  0.0941
   41loPI    C1  641  12.811   8.111  11.468 -0.0192 -0.0540 -0.1716
   41loPI    C2  642  13.116   7.901  11.618  0.0980  0.1239 -0.1580
   41loPI    C3  643  13.011   8.248  11.787  0.0930  0.2199 -0.3557
   41loPI   PO4  644  12.840   8.050  11.223 -0.1929 -0.0596 -0.1921
   41loPI   GL1  645  13.050   8.270  10.861  0.1388 -0.0192  0.1926
   41loPI   GL2  646  13.209   8.023  10.770 -0.0123  0.3720  0.1733
   41loPI   C1A  647  13.257   8.400  10.468 -0.2389 -0.1174  0.2383
   41loPI   C2A  648  13.106   8.490  10.061 -0.2275 -0.4449 -0.1314
   41loPI   C3A  649  13.204   8.437   9.633  0.0397 -0.1277  0.2518
   41loPI   C4A  650  13.353   8.519   9.168  0.2696 -0.0173  0.1219
   41loPI   C5A  651  13.724   8.541   8.777 -0.2326  0.3006 -0.0742
   41loPI   C6A  652  13.970   8.641   8.481  0.3612 -0.1560 -0.0617
   41loPI   C1B  653  13.186   7.921  10.314 -0.0884  0.2611  0.2355
   41loPI   C2B  654  13.239   8.011   9.898 -0.1296 -0.1571 -0.1104
   41loPI   C3B  655  13.140   7.978   9.524  0.0055  0.1223  0.0701
   41loPI   C4B  656  13.147   7.861   9.013  0.1721 -0.4050 -0.1458
   42loPI    C1  657  13.723   8.472  11.430 -0.0502 -0.2916  0.0243
   42loPI    C2  658  14.050   8.248  11.372  0.1562  0.0081  0.0062
   42loPI    C3  659  13.977   8.407  11.732  0.1209  0.0808 -0.0327
   42loPI   PO4  660  13.680   8.618  11.173 -0.2533  0.1603 -0.1252
   42loPI   GL1  661  13.501   8.710  10.826  0.3373  0.1659  0.1282
   42loPI   GL2  662  13.203   8.830  10.691  0.2140 -0.0737 -0.0384
   42loPI   C1A  663  13.713   8.610  10.459 -0.1203  0.1597  0.1401
   42loPI   C2A  664  13.748   8.655   9.973  0.0036 -0.2507 -0.1133
   42loPI   C3A  665  13.684   8.647   9.586 -0.1250 -0.0159  0.1946
   42loPI   C4A  666  13.863   8.647   9.267 -0.1749 -0.1638  0.1430
   42loPI   C5A  667  14.193   8.524   9.022  0.1451 -0.0479 -0.1071
   42loPI   C6A  668  14.506   8.816   8.766  0.2230 -0.0206  0.0090
   42loPI   C1B  669  13.304   8.916  10.191 -0.0019 -0.2490  0.0226
   42loPI   C2B  670  13.276   8.908   9.728 -0.1010  0.0779  0.0190
   42loPI   C3B  671  13.368   9.021   9.351  0.1200  0.1092 -0.3191
   42loPI   C4B  672  13.221   9.075   8.848 -0.2311  0.0664 -0.0021
   43loPI    C1  673   7.128   7.172  11.531 -0.0492  0.0615  0.0274
   43loPI    C2  674   7.133   6.816  11.712  0.1405  0.0612  0.0234
   43loPI    C3  675   7.271   7.139  11.903 -0.0709  0.1414  0.0431
   43loPI   PO4  676   7.213   7.177  11.285  0.1138  0.0041  0.0142
   43loPI   GL1  677   7.060   7.243  10.884  0.1396  0.3660 -0.3043
   43loPI   GL2  678   6.789   7.222  10.818 -0.0006  0.0551 -0.1655
   43loPI   C1A  679   7.011   7.273  10.400  0.0678  0.1080  0.2124
   43loPI   C2A  680   6.918   7.255   9.849  0.1367 -0.1174 -0.1816
   43loPI   C3A  681   6.945   7.190   9.278  0.0068 -0.2331  0.1302
   43loPI   C4A  682   6.629   7.101   8.800 -0.4204 -0.0516 -0.0550
   43loPI   C5A  683   6.278   7.367   8.588 -0.2817 -0.2317 -0.4791
   43loPI   C6A  684   5.984   7.734   8.706  0.1648  0.0435  0.0119
   43loPI   C1B  685   6.514   7.101  10.561 -0.0191  0.0548  0.1978
   43loPI   C2B  686   6.422   7.170  10.152  0.0471 -0.2315  0.0288
   43loPI   C3B  687   6.346   7.036   9.712  0.0065 -0.1189  0.2010
   43loPI   C4B  688   6.424   7.007   9.250  0.0815  0.2592  0.0338
   44loPI    C1  689   4.819   6.287  11.958  0.0164  0.0880 -0.1150
   44loPI    C2  690   4.684   5.915  11.899  0.0964  0.0690 -0.1808
   44loPI    C3  691   4.869   6.009  12.241 -0.0363  0.0817 -0.1118
   44loPI   PO4  692   4.920   6.332  11.735 -0.1356 -0.0737 -0.2565
   44loPI   GL1  693   4.811   6.300  11.284 -0.1086 -0.1329 -0.0636
   44loPI   GL2  694   4.627   6.618  11.269 -0.0448 -0.1015  0.1501
   44loPI   C1A  695   4.863   6.209  10.910  0.1376  0.0304  0.2392
   44loPI   C2A  696   4.832   6.086  10.506 -0.0882  0.0014  0.0090
   44loPI   C3A  697   4.935   6.071  10.144  0.2622  0.0857  0.2785
   44loPI   C4A  698   4.837   5.981   9.684 -0.0855 -0.1460  0.1724
   44loPI   C5A  699   4.813   6.058   9.340 -0.1646 -0.1643  0.0629
   44loPI   C6A  700   5.014   6.157   8.954 -0.2031 -0.0277  0.1015
   44loPI   C1B  701   4.433   6.452  10.817 -0.0401 -0.0817 -0.1060
   44loPI   C2B  702   4.402   6.523  10.349  0.0353  0.0761 -0.3149
   44loPI   C3B  703   4.546   6.267   9.917  0.2820 -0.0514 -0.2273
   44loPI   C4B  704   4.408   6.366   9.529  0.1859  0.2184 -0.2009
   45loPI    C1  705   8.386  13.468  11.518  0.1798 -0.0095  0.0173
   45loPI    C2  706   8.620  13.348  11.216  0.0370 -0.0645 -0.0726
   45loPI    C3  707   8.565  13.739  11.283  0.0889 -0.0521 -0.1022
   45loPI   PO4  708   8.144  13.281  11.493 -0.0924 -0.2685  0.0447
   45loPI   GL1  709   7.853  13.116  11.094  0.1154  0.0429  0.1315
   45loPI   GL2  710   8.151  12.928  11.086  0.1917  0.1286 -0.0888
   45loPI   C1A  711   7.721  13.243  10.649 -0.1420  0.3940 -0.3101
   45loPI   C2A  712   7.762  13.211  10.230 -0.1204 -0.1063 -0.0463
   45loPI   C3A  713   7.604  13.258   9.781  0.1186  0.1368 -0.0461
   45loPI   C4A  714   7.707  13.281   9.367 -0.2560  0.3688  0.0728
   45loPI   C5A  715   7.867  13.462   9.019  0.1521  0.0682  0.1019
   45loPI   C6A  716   7.623  13.734   8.937 -0.1733 -0.0128 -0.1717
   45loPI   C1B  717   8.072  12.908  10.681 -0.1989 -0.0220 -0.0672
   45loPI   C2B  718   8.139  12.823  10.281  0.0525  0.1206 -0.0073
   45loPI   C3B  719   8.099  12.885   9.804 -0.2573 -0.1075  0.0941
   45loPI   C4B  720   8.034  12.897   9.333 -0.1603 -0.0795 -0.1728
   46loPI    C1  721  14.258   4.435  11.834  0.1568  0.0459  0.2045
   46loPI    C2  722  14.309   4.174  12.132  0.1928 -0.0476  0.1171
   46loPI    C3  723  14.627   4.336  11.952  0.1733 -0.1123  0.0241
   46loPI   PO4  724  14.054   4.307  11.756  0.3070  0.1196  0.2555
   46loPI   GL1  725  14.030   4.150  11.269 -0.0568 -0.1487 -0.2671
   46loPI   GL2  726  13.887   4.366  11.141 -0.1996  0.0553  0.0494
   46loPI   C1A  727  14.235   4.141  10.828  0.0336  0.2622 -0.0957
   46loPI   C2A  728  14.342   4.148  10.473  0.1761  0.0961 -0.1919
   46loPI   C3A  729  14.384   4.060  10.052  0.0214 -0.1275  0.1705
   46loPI   C4A  730  14.389   4.081   9.732  0.0794 -0.0543 -0.0842
   46loPI   C5A  731  14.475   4.334   9.339 -0.2647  0.2179  0.2294
   46loPI   C6A  732  14.618   4.616   8.968  0.0362  0.0308  0.0751
   46loPI   C1B  733  13.909   4.476  10.704  0.0190  0.3160  0.3191
   46loPI   C2B  734  13.904   4.467  10.217 -0.1876  0.0729 -0.0347
   46loPI   C3B  735  13.983   4.384   9.867 -0.0852 -0.0643  0.2946
   46loPI   C4B  736  14.000   4.361   9.486  0.3414  0.0069 -0.0706
   47loPI    C1  737   8.507  10.915  11.485 -0.2281 -0.0232 -0.1702
   47loPI    C2  738   8.542  10.678  11.804 -0.1614 -0.0414 -0.1909
   47loPI    C3  739   8.262  10.962  11.797 -0.0787  0.0446 -0.0616
   47loPI   PO4  740   8.674  10.709  11.292  0.2451 -0.1326 -0.2071
   47loPI   GL1  741   8.789  10.464  11.013 -0.2267 -0.2385  0.0419
   47loPI   GL2  742   8.612  10.248  10.971  0.1750  0.2313 -0.0627
   47loPI   C1A  743   8.869  10.380  10.555 -0.0856  0.0241  0.0903
   47loPI   C2A  744   8.944  10.293  10.071 -0.0371 -0.2091  0.3973
   47loPI   C3A  745   9.011  10.295   9.646 -0.0613 -0.0409 -0.0393
   47loPI   C4A  746   8.955  10.258   9.207 -0.0970 -0.0037 -0.0465
   47loPI   C5A  747   9.053  10.214   8.766  0.1602 -0.0686  0.2698
   47loPI   C6A  748   8.835   9.970   8.493  0.2655 -0.3058 -0.0237
   47loPI   C1B  749   8.469  10.069  10.524  0.2918  0.0473 -0.1687
   47loPI   C2B  750   8.421  10.091  10.088 -0.1646 -0.2960 -0.3726
   47loPI   C3B  751   8.485  10.119   9.621 -0.2365  0.2123 -0.0069
   47loPI   C4B  752   8.466  10.066   9.254 -0.0263  0.1288 -0.2847
   48loPI    C1  753   0.519  17.026  11.869 -0.0243  0.0703  0.1481
   48loPI    C2  754   0.820  17.289  11.874 -0.0178  0.0759 -0.2246
   48loPI    C3  755   0.643  17.181  12.216  0.3461  0.1399 -0.0101
   48loPI   PO4  756   0.575  16.831  11.697 -0.0321 -0.1502  0.1647
   48loPI   GL1  757   0.605  16.742  11.270  0.4167 -0.0025  0.1550
   48loPI   GL2  758   0.484  16.468  11.240  0.0208  0.0384  0.0476
   48loPI   C1A  759   0.505  16.803  10.812 -0.1365  0.2235 -0.0569
   48loPI   C2A  760   0.583  16.795  10.425 -0.0522  0.1787 -0.0818
   48loPI   C3A  761   0.529  16.793  10.015  0.1311 -0.1391 -0.0270
   48loPI   C4A  762   0.597  16.799   9.547  0.1374  0.0644 -0.1143
   48loPI   C5A  763   0.714  16.934   9.158  0.2691 -0.0189 -0.0914
   48loPI   C6A  764   1.048  17.145   8.912  0.0205  0.3642  0.0193
   48loPI   C1B  765   0.431  16.311  10.844  0.2554 -0.0473  0.0660
   48loPI   C2B  766   0.454  16.281  10.409  0.1344  0.2062 -0.0877
   48loPI   C3B  767   0.406  16.255   9.978 -0.2161 -0.1908 -0.0711
   48loPI   C4B  768   0.513  16.263   9.576 -0.1235  0.0715  0.1702
   49loPI    C1  769  11.367   3.454  11.896 -0.1006 -0.0387  0.0075
   49loPI    C2  770  11.473   3.170  12.158  0.1591 -0.1079 -0.1678
   49loPI    C3  771  11.142   3.387  12.220 -0.0374 -0.4398 -0.0261
   49loPI   PO4  772  11.342   3.359  11.646  0.2238  0.1232  0.2283
   49loPI   GL1  773  11.448   3.371  11.202 -0.0343  0.1770 -0.0521
   49loPI   GL2  774  11.415   3.581  11.105  0.0844  0.0298 -0.2936
   49loPI   C1A  775  11.788   3.141  10.998  0.3484  0.2077 -0.1091
   49loPI   C2A  776  11.750   3.262  10.634  0.0673 -0.1874 -0.2025
   49loPI   C3A  777  11.795   3.194  10.240  0.3051  0.0339  0.2883
   49loPI   C4A  778  11.910   3.102   9.824  0.0400  0.1259 -0.3179
   49loPI   C5A  779  12.048   3.188   9.322 -0.1475  0.0314 -0.1688
   49loPI   C6A  780  12.091   3.181   8.894 -0.1759  0.2161  0.1154
   49loPI   C1B  781  11.424   3.642  10.671  0.1390  0.3133 -0.0262
   49loPI   C2B  782  11.405   3.560  10.207  0.0720  0.1846  0.2988
   49loPI   C3B  783  11.493   3.397   9.882  0.1424 -0.1209  0.2715
   49loPI   C4B  784  11.612   3.400   9.501 -0.3184  0.0263 -0.2068
   50loPI    C1  785   3.402   9.867  11.663  0.1245 -0.0728 -0.0188
   50loPI    C2  786   3.551  10.224  11.765 -0.2442  0.0337  0.1651
   50loPI    C3  787   3.754   9.890  11.852  0.1554  0.1989 -0.1057
   50loPI   PO4  788   3.305   9.888  11.454  0.0612 -0.2338 -0.1282
   50loPI   GL1  789   3.514  10.119  11.147  0.4903  0.3226  0.0972
   50loPI   GL2  790   3.405  10.443  11.245 -0.0169 -0.2438 -0.0176
   50loPI   C1A  791   3.503  10.019  10.737 -0.3282  0.0186 -0.3977
   50loPI   C2A  792   3.558  10.126  10.314  0.0246  0.0616 -0.0849
   50loPI   C3A  793   3.681  10.124   9.915  0.2374 -0.2976  0.2020
   50loPI   C4A  794   3.634  10.136   9.468 -0.1496 -0.0274 -0.5118
   50loPI   C5A  795   3.491  10.349   9.154 -0.2919 -0.0863  0.0426
   50loPI   C6A  796   3.228  10.312   8.804 -0.1884  0.2284  0.1129
   50loPI   C1B  797   3.216  10.417  10.801 -0.2519 -0.0931  0.0264
   50loPI   C2B  798   3.116  10.363  10.365  0.1747  0.0810  0.0327
   50loPI   C3B  799   3.212  10.453   9.931 -0.0637  0.2979 -0.1144
   50loPI   C4B  800   3.125  10.507   9.437 -0.0658 -0.4977  0.1726
   51loPI    C1  801   3.338   7.015  11.615 -0.0026  0.0584  0.1320
   51loPI    C2  802   3.180   6.847  11.942 -0.0672  0.1981  0.1733
   51loPI    C3  803   3.576   6.899  11.915 -0.0145 -0.2392  0.0293
   51loPI   PO4  804   3.259   6.965  11.443 -0.2538  0.0611  0.0800
   51loPI   GL1  805   2.955   7.002  11.203  0.0621 -0.0574  0.0122
   51loPI   GL2  806   3.071   7.183  11.075  0.0198 -0.0261 -0.2207
   51loPI   C1A  807   2.669   6.788  10.967 -0.1686  0.0273  0.0438
   51loPI   C2A  808   2.674   6.890  10.548 -0.2434 -0.0585 -0.2775
   51loPI   C3A  809   2.705   6.711  10.126 -0.0387  0.1178  0.1375
   51loPI   C4A  810   2.659   6.560   9.646  0.0266 -0.1790  0.0490
   51loPI   C5A  811   2.636   6.444   9.162 -0.0141  0.0335  0.1104
   51loPI   C6A  812   2.830   6.047   8.942  0.5115  0.0886 -0.1107
   51loPI   C1B  813   3.119   6.972  10.760 -0.0642 -0.0805  0.0874
   51loPI   C2B  814   3.099   6.652  10.548 -0.1248 -0.3265 -0.3335
   51loPI   C3B  815   3.208   6.640  10.179 -0.0272 -0.3322  0.2123
   51loPI   C4B  816   3.114   6.308   9.848 -0.0650 -0.0345 -0.0265
   52loPI    C1  817   5.907   5.574  11.947 -0.0170 -0.0439 -0.0156
   52loPI    C2  818   6.264   5.729  11.858  0.0547 -0.2576 -0.1066
   52loPI    C3  819   6.231   5.459  12.151 -0.0628 -0.1023  0.0248
   52loPI   PO4  820   5.720   5.413  11.680  0.0637 -0.0179 -0.0508
   52loPI   GL1  821   5.357   5.287  11.521 -0.1366 -0.2149 -0.2584
   52loPI   GL2  822   5.495   5.638  11.311  0.2056  0.0189 -0.5124
   52loPI   C1A  823   5.293   5.214  11.031 -0.2365  0.0697 -0.0789
   52loPI   C2A  824   5.110   5.333  10.624 -0.0032 -0.1889 -0.2202
   52loPI   C3A  825   5.165   5.221  10.188  0.2437  0.4250 -0.0179
   52loPI   C4A  826   5.159   5.259   9.713  0.3250  0.2338  0.0670
   52loPI   C5A  827   5.278   5.068   9.358  0.0317 -0.0497  0.2018
   52loPI   C6A  828   5.309   5.205   8.992 -0.1633  0.0320 -0.1288
   52loPI   C1B  829   5.685   5.860  10.953 -0.0704  0.3676 -0.0010
   52loPI   C2B  830   5.668   5.873  10.534 -0.2631 -0.0650 -0.3236
   52loPI   C3B  831   5.719   5.951  10.175  0.1204  0.2552  0.0593
   52loPI   C4B  832   5.738   5.810   9.793  0.1695 -0.0394  0.2295
   53loPI    C1  833   6.512   4.176  11.817 -0.0488 -0.0715 -0.2017
   53loPI    C2  834   6.840   4.049  12.007  0.0175  0.0122 -0.2600
   53loPI    C3  835   6.573   4.277  12.199  0.0263 -0.0008 -0.2323
   53loPI   PO4  836   6.486   3.999  11.678 -0.0744 -0.0217  0.2049
   53loPI   GL1  837   6.608   3.973  11.286 -0.1108  0.1415 -0.1254
   53loPI   GL2  838   6.459   3.691  11.200  0.2741  0.0959  0.0796
   53loPI   C1A  839   6.481   4.218  10.987 -0.1202  0.0992  0.1271
   53loPI   C2A  840   6.335   4.399  10.586  0.0811 -0.0414  0.2831
   53loPI   C3A  841   6.283   4.327  10.129 -0.0284  0.1242 -0.0862
   53loPI   C4A  842   6.379   4.123   9.747  0.1106  0.2912  0.1675
   53loPI   C5A  843   6.157   4.040   9.317 -0.0946  0.1659  0.1274
   53loPI   C6A  844   6.141   4.023   8.897  0.1881  0.2812 -0.0051
   53loPI   C1B  845   6.327   3.723  10.883  0.0061 -0.4804 -0.1142
   53loPI   C2B  846   6.223   3.764  10.377 -0.1762  0.1019 -0.1016
   53loPI   C3B  847   6.285   3.660   9.996  0.2611  0.0223 -0.3431
   53loPI   C4B  848   6.429   3.649   9.527  0.2514  0.0837  0.4355
   54loPI    C1  849  12.297  16.820  11.520  0.1312 -0.0897  0.0347
   54loPI    C2  850  12.522  17.112  11.675 -0.0437  0.1978 -0.2393
   54loPI    C3  851  12.155  17.045  11.820  0.1156 -0.1050  0.0389
   54loPI   PO4  852  12.340  16.794  11.310  0.1375  0.1912 -0.2151
   54loPI   GL1  853  12.382  16.933  10.987  0.2237 -0.1936  0.1317
   54loPI   GL2  854  12.540  17.187  10.946  0.0438 -0.2980 -0.2809
   54loPI   C1A  855  12.525  16.753  10.632 -0.1160 -0.4397  0.2401
   54loPI   C2A  856  12.699  16.826  10.277  0.4232 -0.0545 -0.1857
   54loPI   C3A  857  12.820  16.683   9.938  0.2014  0.1386 -0.0524
   54loPI   C4A  858  12.827  16.741   9.503 -0.2027 -0.3858  0.1031
   54loPI   C5A  859  12.809  16.557   9.029  0.2477  0.0033 -0.0376
   54loPI   C6A  860  12.848  16.366   8.717 -0.0493 -0.0502  0.2177
   54loPI   C1B  861  12.773  17.273  10.606 -0.0555 -0.0030 -0.3031
   54loPI   C2B  862  12.813  17.272  10.134 -0.1340 -0.1389  0.0785
   54loPI   C3B  863  12.925  17.229   9.679  0.0462  0.2988  0.1304
   54loPI   C4B  864  12.913  17.240   9.193 -0.0743 -0.0687 -0.0980
   55loPI    C1  865   7.858  14.731  11.668 -0.0794  0.2398 -0.2676
   55loPI    C2  866   7.985  15.107  11.718  0.2506  0.1089 -0.0912
   55loPI    C3  867   7.890  14.884  12.036  0.1690  0.0041 -0.1881
   55loPI   PO4  868   7.778  14.795  11.272 -0.1147 -0.0826 -0.1418
   55loPI   GL1  869   8.028  14.528  11.059 -0.0264  0.1915 -0.1653
   55loPI   GL2  870   8.027  14.168  11.044  0.1448 -0.0716  0.2885
   55loPI   C1A  871   8.360  14.410  10.797 -0.0667  0.0964  0.2922
   55loPI   C2A  872   8.461  14.333  10.340  0.0482 -0.2377  0.3635
   55loPI   C3A  873   8.476  14.341   9.937 -0.3817  0.1761  0.0028
   55loPI   C4A  874   8.479  14.449   9.567  0.1199  0.1897 -0.0492
   55loPI   C5A  875   8.375  14.448   9.197  0.4321 -0.1948 -0.1677
   55loPI   C6A  876   8.175  14.772   8.824  0.0345 -0.0002  0.1419
   55loPI   C1B  877   7.872  14.222  10.666 -0.2299  0.3697 -0.0248
   55loPI   C2B  878   7.993  14.200  10.295  0.1177  0.0202  0.0734
   55loPI   C3B  879   7.969  14.172   9.862  0.1125  0.3582 -0.2040
   55loPI   C4B  880   7.899  14.243   9.446  0.2023  0.3096  0.3268
   56loPI    C1  881   6.031  13.062  11.864 -0.0674 -0.0881 -0.1234
   56loPI    C2  882   6.380  13.118  12.052 -0.1133 -0.1284 -0.0255
   56loPI    C3  883   6.088  12.909  12.230 -0.1994 -0.0662 -0.0930
   56loPI   PO4  884   6.070  13.066  11.585 -0.2648 -0.0630 -0.0173
   56loPI   GL1  885   5.800  13.050  11.166 -0.0971  0.3247  0.1453
   56loPI   GL2  886   5.465  13.127  11.032  0.2421 -0.0542 -0.0116
   56loPI   C1A  887   5.871  12.967  10.759 -0.0832 -0.0630 -0.1119
   56loPI   C2A  888   5.846  13.048  10.382 -0.0497 -0.1147  0.0331
   56loPI   C3A  889   5.850  12.991   9.952  0.1748  0.0458 -0.0918
   56loPI   C4A  890   5.847  13.054   9.518  0.0790 -0.1082 -0.0638
   56loPI   C5A  891   5.686  13.038   9.120  0.0384 -0.0937  0.0155
   56loPI   C6A  892   5.324  12.969   8.873 -0.3129  0.1136  0.0593
   56loPI   C1B  893   5.351  13.352  10.624  0.1034 -0.3498  0.1070
   56loPI   C2B  894   5.397  13.264  10.113  0.1398  0.0006 -0.0041
   56loPI   C3B  895   5.410  13.227   9.667 -0.1810  0.1372 -0.2466
   56loPI   C4B  896   5.222  13.290   9.226  0.0938  0.0719 -0.0370
   57loPI    C1  897   2.635  11.428  12.005  0.1857  0.1290  0.2442
   57loPI    C2  898   2.713  11.164  12.294  0.0798 -0.0475  0.1141
   57loPI    C3  899   2.962  11.471  12.231  0.2270 -0.1394  0.2388
   57loPI   PO4  900   2.562  11.321  11.746 -0.2183  0.0324 -0.0610
   57loPI   GL1  901   2.638  11.578  11.377 -0.2039  0.0222  0.2540
   57loPI   GL2  902   2.233  11.680  11.377  0.1263 -0.1386  0.0639
   57loPI   C1A  903   2.422  11.506  10.978 -0.0384  0.1592 -0.0804
   57loPI   C2A  904   2.408  11.503  10.583 -0.0456 -0.2119 -0.1009
   57loPI   C3A  905   2.425  11.584  10.145 -0.1723  0.1389  0.5456
   57loPI   C4A  906   2.380  11.568   9.675 -0.1759 -0.0839  0.0771
   57loPI   C5A  907   2.368  11.744   9.316 -0.1647 -0.1117  0.0714
   57loPI   C6A  908   2.446  11.880   8.833 -0.0001 -0.3155  0.2898
   57loPI   C1B  909   2.049  11.839  10.920  0.3061  0.1953  0.1051
   57loPI   C2B  910   2.087  11.884  10.498 -0.1861  0.1358  0.1390
   57loPI   C3B  911   2.038  11.907  10.076 -0.0872 -0.2592 -0.1321
   57loPI   C4B  912   1.951  11.966   9.690 -0.1462  0.2668 -0.3631
   58loPI    C1  913  16.513   2.383  11.890  0.0998 -0.1577  0.2526
   58loPI    C2  914  16.725   2.339  12.226  0.0196  0.0958  0.3382
   58loPI    C3  915  16.555   2.691  12.141 -0.1551 -0.0328  0.1455
   58loPI   PO4  916  16.657   2.314  11.702  0.0981  0.2645 -0.0587
   58loPI   GL1  917  16.831   2.262  11.298  0.1212  0.1289  0.2635
   58loPI   GL2  918  17.167   2.307  11.443 -0.2278  0.1296  0.0310
   58loPI   C1A  919  16.826   2.199  10.865  0.0388 -0.0972  0.2847
   58loPI   C2A  920  16.790   2.144  10.418  0.0237 -0.0779 -0.0317
   58loPI   C3A  921  16.604   2.174   9.987 -0.0308 -0.1066  0.0312
   58loPI   C4A  922  16.401   2.228   9.530  0.1612 -0.2200  0.2994
   58loPI   C5A  923  16.443   2.481   9.175 -0.0474  0.0903  0.1497
   58loPI   C6A  924  16.596   2.853   8.920  0.2649  0.0457 -0.3446
   58loPI   C1B  925  17.303   2.347  11.046  0.0650 -0.1968  0.0115
   58loPI   C2B  926  17.224   2.309  10.610  0.0313  0.3291  0.1837
   58loPI   C3B  927  17.144   2.380  10.070 -0.1174 -0.1495 -0.2179
   58loPI   C4B  928  17.157   2.363   9.654 -0.1975  0.0986 -0.3061
   59loPI    C1  929  17.160  10.516  11.781  0.0284  0.0590  0.1824
   59loPI    C2  930  17.274  10.631  12.147 -0.0512  0.1211  0.1880
   59loPI    C3  931  17.070  10.883  11.913 -0.2030  0.0009  0.1898
   59loPI   PO4  932  17.392  10.437  11.599 -0.3373 -0.2020 -0.1200
   59loPI   GL1  933  17.409  10.513  11.236  0.1136  0.1652 -0.0091
   59loPI   GL2  934  17.646  10.717  11.038 -0.1377  0.0928  0.0309
   59loPI   C1A  935  17.137  10.574  10.952 -0.2176 -0.2735 -0.2250
   59loPI   C2A  936  17.201  10.697  10.513  0.1551 -0.1182  0.1935
   59loPI   C3A  937  17.163  10.740  10.001  0.0137 -0.1797 -0.0646
   59loPI   C4A  938  17.173  10.844   9.523  0.0016  0.1034  0.2147
   59loPI   C5A  939  17.323  10.894   9.055 -0.2596 -0.1190  0.1321
   59loPI   C6A  940  17.157  11.232   8.755 -0.1717 -0.0100 -0.1631
   59loPI   C1B  941  17.635  10.790  10.644  0.1246 -0.1971  0.1397
   59loPI   C2B  942  17.670  10.823  10.295 -0.0406  0.1968 -0.1345
   59loPI   C3B  943  17.724  10.922   9.865 -0.5876  0.1341 -0.1821
   59loPI   C4B  944  17.648  11.066   9.438  0.3497 -0.0543 -0.0517
   60loPI    C1  945   7.164  10.899  11.657 -0.0329 -0.0278  0.0410
   60loPI    C2  946   7.238  11.228  11.872 -0.2256 -0.0933  0.2104
   60loPI    C3  947   7.529  10.960  11.811 -0.0129  0.1985 -0.0921
   60loPI   PO4  948   6.995  11.016  11.440 -0.1119  0.1451  0.1984
   60loPI   GL1  949   6.987  11.018  11.036  0.2585  0.0770  0.2202
   60loPI   GL2  950   7.194  10.747  11.023 -0.1066 -0.0785 -0.0287
   60loPI   C1A  951   7.026  11.014  10.557  0.0209 -0.0656  0.0778
   60loPI   C2A  952   6.994  11.001  10.105  0.1486  0.2016  0.0499
   60loPI   C3A  953   6.768  10.950   9.734  0.1881  0.1876 -0.0160
   60loPI   C4A  954   6.794  10.936   9.307  0.0601  0.1636  0.1358
   60loPI   C5A  955   6.996  10.818   8.901 -0.0596 -0.0278 -0.1233
   60loPI   C6A  956   6.987  10.497   8.518  0.0911  0.4232  0.1221
   60loPI   C1B  957   7.194  10.534  10.689  0.2385  0.1325  0.2125
   60loPI   C2B  958   7.119  10.547  10.275 -0.0582  0.2558  0.1338
   60loPI   C3B  959   7.217  10.586   9.879  0.1631  0.1257  0.1120
   60loPI   C4B  960   7.132  10.569   9.386  0.1368  0.0736  0.1036
   61loPI    C1  961  17.160  11.900  12.062 -0.1356 -0.3008 -0.1960
   61loPI    C2  962  17.186  11.611  12.338  0.1460 -0.1096 -0.0169
   61loPI    C3  963  17.057  11.975  12.441  0.1547 -0.0650 -0.1605
   61loPI   PO4  964  17.377  11.880  11.875  0.1025  0.2845 -0.1230
   61loPI   GL1  965  17.260  11.855  11.377 -0.4263  0.1820  0.2008
   61loPI   GL2  966  17.244  11.579  11.251  0.0453  0.1264 -0.0473
   61loPI   C1A  967  16.988  11.997  10.993 -0.5381 -0.2928  0.0567
   61loPI   C2A  968  16.924  12.036  10.544  0.0157 -0.0762 -0.1138
   61loPI   C3A  969  16.953  12.106  10.210 -0.1190  0.2437 -0.0915
   61loPI   C4A  970  16.934  12.091   9.763 -0.4082 -0.2243 -0.6136
   61loPI   C5A  971  16.869  12.147   9.285  0.1867  0.0167 -0.3608
   61loPI   C6A  972  16.853  12.585   8.940 -0.2175  0.1179  0.1042
   61loPI   C1B  973  17.395  11.600  10.765  0.2644  0.0967  0.4031
   61loPI   C2B  974  17.302  11.734  10.368 -0.0167  0.1368  0.0481
   61loPI   C3B  975  17.316  11.781   9.990  0.0978 -0.0338  0.1504
   61loPI   C4B  976  17.379  11.808   9.553  0.1339  0.1951 -0.3439
   62loPI    C1  977   0.538  10.033  11.803  0.1893 -0.2234  0.0250
   62loPI    C2  978   0.428  10.209  12.145 -0.0835  0.0389 -0.1916
   62loPI    C3  979   0.153  10.040  11.909  0.1117 -0.2053 -0.2494
   62loPI   PO4  980   0.665  10.205  11.678  0.0579 -0.0245 -0.0389
   62loPI   GL1  981   0.825  10.214  11.297 -0.1269 -0.0946 -0.3753
   62loPI   GL2  982   0.427  10.077  11.209  0.1048 -0.0771  0.1451
   62loPI   C1A  983   0.864  10.363  10.821 -0.2695 -0.2413 -0.1726
   62loPI   C2A  984   0.936  10.514  10.406 -0.4570  0.0390 -0.3326
   62loPI   C3A  985   0.904  10.597   9.974  0.1174 -0.1451  0.0701
   62loPI   C4A  986   0.965  10.672   9.552  0.2524  0.2517  0.2181
   62loPI   C5A  987   0.879  10.771   9.141 -0.1488  0.5584 -0.2533
   62loPI   C6A  988   0.617  11.079   8.953 -0.1106 -0.3063  0.1002
   62loPI   C1B  989   0.436  10.227  10.810 -0.0748 -0.0521 -0.1058
   62loPI   C2B  990   0.382  10.341  10.413  0.3738  0.2074  0.1551
   62loPI   C3B  991   0.399  10.381   9.878  0.0736 -0.1347  0.0443
   62loPI   C4B  992   0.429  10.575   9.470 -0.1197  0.2247  0.1206
   63loPI    C1  993  12.406   0.516  11.417 -0.0839 -0.0697  0.1150
   63loPI    C2  994  12.272   0.437  11.785 -0.0817  0.1837  0.1721
   63loPI    C3  995  12.476   0.774  11.715 -0.3308  0.2785 -0.1197
   63loPI   PO4  996  12.594   0.312  11.345  0.2842 -0.1692 -0.0591
   63loPI   GL1  997  12.968   0.273  11.178 -0.1478  0.2787  0.2200
   63loPI   GL2  998  13.127   0.477  11.099 -0.0606 -0.1876  0.2151
   63loPI   C1A  999  13.038  -0.141  10.962  0.0237  0.0083 -0.0420
   63loPI   C2A 1000  13.157  -0.217  10.520  0.2073  0.0942 -0.4114
   63loPI   C3A 1001  13.218  -0.243  10.133 -0.0206  0.1836  0.1026
   63loPI   C4A 1002  13.260  -0.291   9.756 -0.0714  0.1836  0.1722
   63loPI   C5A 1003  13.262  -0.290   9.218 -0.2883  0.3633 -0.0878
   63loPI   C6A 1004  13.428   0.094   8.925 -0.0595  0.3537  0.1503
   63loPI   C1B 1005  13.228   0.334  10.748  0.3095  0.1214 -0.0307
   63loPI   C2B 1006  13.317   0.249  10.320 -0.0099  0.1015  0.2352
   63loPI   C3B 1007  13.293   0.245   9.947 -0.2358 -0.1880 -0.1590
   63loPI   C4B 1008  13.354   0.189   9.480  0.2649  0.1134 -0.1844
   64loPI    C1 1009  10.661  10.185  11.231  0.2167  0.1939 -0.1426
   64loPI    C2 1010  10.695  10.311  11.609 -0.1674 -0.0893 -0.0061
   64loPI    C3 1011  10.813   9.942  11.510 -0.2599 -0.0895 -0.1178
   64loPI   PO4 1012  10.476  10.169  11.138 -0.1732  0.0591  0.1800
   64loPI   GL1 1013  10.330   9.857  10.889 -0.1953  0.0141 -0.1947
   64loPI   GL2 1014  10.588   9.622  10.696 -0.2470  0.0993 -0.0673
   64loPI   C1A 1015  10.171   9.764  10.490 -0.0621  0.2481  0.0854
   64loPI   C2A 1016  10.127   9.836  10.080 -0.1849 -0.0720  0.0822
   64loPI   C3A 1017  10.180   9.758   9.629  0.2221 -0.1919  0.1013
   64loPI   C4A 1018  10.228   9.768   9.175 -0.1152  0.1395 -0.1057
   64loPI   C5A 1019  10.073   9.772   8.790 -0.1745  0.0315 -0.2534
   64loPI   C6A 1020   9.743   9.839   8.497 -0.0773 -0.1883  0.4511
   64loPI   C1B 1021  10.591   9.592  10.304  0.1209 -0.3715 -0.0343
   64loPI   C2B 1022  10.559   9.488   9.797  0.2826 -0.3430 -0.0610
   64loPI   C3B 1023  10.568   9.441   9.367 -0.1679  0.2964 -0.0448
   64loPI   C4B 1024  10.543   9.418   8.950 -0.1836 -0.2664  0.1161
   65loPI    C1 1025   4.365   0.396  12.100  0.2074  0.0716 -0.0187
   65loPI    C2 1026   4.104   0.274  12.378  0.3044  0.1533  0.1096
   65loPI    C3 1027   4.462   0.099  12.350  0.2433  0.0523 -0.0555
   65loPI   PO4 1028   4.126   0.404  11.893 -0.0968  0.0711 -0.1662
   65loPI   GL1 1029   4.223   0.586  11.440  0.0474  0.0631  0.1494
   65loPI   GL2 1030   3.997   0.422  11.288 -0.3940  0.2237  0.0361
   65loPI   C1A 1031   4.494   0.701  11.014  0.2552 -0.0011 -0.1696
   65loPI   C2A 1032   4.443   0.579  10.605  0.1292 -0.1735 -0.1549
   65loPI   C3A 1033   4.385   0.707  10.123 -0.1608  0.2249  0.0801
   65loPI   C4A 1034   4.431   0.559   9.744 -0.4375 -0.0430  0.1214
   65loPI   C5A 1035   4.432   0.761   9.315 -0.2524  0.0795  0.1714
   65loPI   C6A 1036   4.246   0.857   8.911 -0.0274 -0.0982 -0.0190
   65loPI   C1B 1037   3.954   0.407  10.826  0.2623 -0.2537 -0.3997
   65loPI   C2B 1038   4.041   0.414  10.409  0.1203  0.3249  0.2413
   65loPI   C3B 1039   3.975   0.425   9.919  0.2007 -0.0854  0.1771
   65loPI   C4B 1040   3.987   0.461   9.486 -0.0566 -0.0274  0.4748
   66loPI    C1 1041   7.081  12.792  11.649  0.0153 -0.0484 -0.1404
   66loPI    C2 1042   6.824  12.894  11.938  0.1158 -0.2261  0.0145
   66loPI    C3 1043   7.188  13.060  11.927  0.0657 -0.1211 -0.0894
   66loPI   PO4 1044   6.971  12.801  11.437  0.1115 -0.0146 -0.0125
   66loPI   GL1 1045   6.806  13.027  11.014  0.2071  0.2256 -0.2465
   66loPI   GL2 1046   6.729  13.227  11.143 -0.0548  0.1067 -0.0369
   66loPI   C1A 1047   6.705  12.819  10.712 -0.1851  0.2760  0.2048
   66loPI   C2A 1048   6.742  12.890  10.230  0.0443  0.0931 -0.1265
   66loPI   C3A 1049   6.679  12.784   9.713  0.0812  0.2082  0.0794
   66loPI   C4A 1050   6.825  12.793   9.211  0.0687 -0.0010  0.1180
   66loPI   C5A 1051   6.530  13.047   8.925 -0.0518 -0.0282 -0.0835
   66loPI   C6A 1052   6.106  13.226   8.908 -0.2216  0.2298  0.0577
   66loPI   C1B 1053   6.822  13.439  10.691 -0.1143  0.4310  0.2776
   66loPI   C2B 1054   6.869  13.358  10.349 -0.1179  0.2359  0.0082
   66loPI   C3B 1055   6.803  13.375   9.932  0.1424 -0.0521  0.2606
   66loPI   C4B 1056   6.793  13.268   9.559 -0.0626  0.0413 -0.0596
   67loPI    C1 1057   4.895  16.665  11.407 -0.0891 -0.1079 -0.0349
   67loPI    C2 1058   4.801  16.469  11.743  0.1888 -0.2714 -0.0494
   67loPI    C3 1059   4.952  16.270  11.430  0.3208 -0.0586 -0.1234
   67loPI   PO4 1060   4.709  16.901  11.405  0.0912 -0.2229 -0.0769
   67loPI   GL1 1061   4.676  17.015  11.019 -0.1774 -0.1189  0.1255
   67loPI   GL2 1062   4.446  17.248  11.020 -0.2473  0.0503 -0.5238
   67loPI   C1A 1063   4.739  16.905  10.614  0.4311  0.2739 -0.3948
   67loPI   C2A 1064   4.694  16.960  10.201 -0.0038 -0.0584  0.3675
   67loPI   C3A 1065   4.804  16.890   9.768  0.3636  0.0313  0.0262
   67loPI   C4A 1066   4.540  16.866   9.351  0.0165 -0.4029 -0.1391
   67loPI   C5A 1067   4.421  16.502   9.033  0.1078 -0.1393 -0.2757
   67loPI   C6A 1068   3.990  16.352   8.915 -0.1628  0.1810 -0.1000
   67loPI   C1B 1069   4.296  17.232  10.643 -0.1407  0.1228 -0.0330
   67loPI   C2B 1070   4.317  17.245  10.126  0.1531 -0.1444 -0.1094
   67loPI   C3B 1071   4.301  17.189   9.681  0.1482  0.0630  0.0378
   67loPI   C4B 1072   4.362  17.402   9.258  0.1871 -0.0570  0.1593
   68loPI    C1 1073   6.236  12.516  11.543 -0.0147 -0.0885 -0.0540
   68loPI    C2 1074   5.975  12.562  11.842 -0.0097  0.0329 -0.0679
   68loPI    C3 1075   6.367  12.614  11.908 -0.0164  0.1452 -0.1149
   68loPI   PO4 1076   6.102  12.627  11.358  0.4136  0.0033 -0.1133
   68loPI   GL1 1077   6.281  12.973  11.118  0.2162 -0.0809 -0.0862
   68loPI   GL2 1078   6.306  12.698  10.902 -0.0408 -0.0625 -0.0952
   68loPI   C1A 1079   6.342  13.161  10.769  0.0600 -0.0792  0.0586
   68loPI   C2A 1080   6.376  13.251  10.253 -0.0133  0.3065 -0.1561
   68loPI   C3A 1081   6.276  13.253   9.784 -0.2318  0.0135 -0.1724
   68loPI   C4A 1082   6.323  13.055   9.396 -0.3096  0.0960 -0.0559
   68loPI   C5A 1083   6.127  12.768   9.066  0.0994  0.2342 -0.1110
   68loPI   C6A 1084   6.268  12.527   8.798 -0.2432 -0.0846  0.2041
   68loPI   C1B 1085   6.318  12.777  10.434 -0.3794 -0.2294  0.1767
   68loPI   C2B 1086   6.331  12.733   9.996 -0.2904  0.2297 -0.1680
   68loPI   C3B 1087   6.190  12.650   9.578  0.2247 -0.2901  0.0426
   68loPI   C4B 1088   6.467  12.406   9.282 -0.2040  0.0504  0.0173
   69loPI    C1 1089  14.232   2.833  11.961 -0.0965 -0.0040 -0.0824
   69loPI    C2 1090  14.145   2.477  12.120  0.1099 -0.0052  0.0317
   69loPI    C3 1091  14.180   2.797  12.356 -0.3686  0.1533 -0.1017
   69loPI   PO4 1092  14.213   2.781  11.674 -0.0304 -0.1187  0.0982
   69loPI   GL1 1093  14.371   2.516  11.338  0.2303 -0.0781 -0.0232
   69loPI   GL2 1094  14.095   2.617  11.222  0.1939 -0.2592 -0.1904
   69loPI   C1A 1095  14.524   2.353  11.022  0.1930 -0.3878 -0.1791
   69loPI   C2A 1096  14.438   2.235  10.545 -0.4221  0.1653 -0.0160
   69loPI   C3A 1097  14.395   2.253  10.097 -0.1287 -0.1038  0.2939
   69loPI   C4A 1098  14.516   2.269   9.703 -0.1517  0.0725  0.2281
   69loPI   C5A 1099  14.508   2.394   9.254 -0.1907  0.0795 -0.3634
   69loPI   C6A 1100  14.674   2.529   8.853  0.1033  0.0754 -0.0204
   69loPI   C1B 1101  14.105   2.598  10.742  0.0560 -0.0015  0.0183
   69loPI   C2B 1102  14.023   2.572  10.300  0.2807  0.3692 -0.1718
   69loPI   C3B 1103  14.119   2.585   9.871 -0.2826  0.0295  0.0435
   69loPI   C4B 1104  14.046   2.435   9.505  0.3123 -0.3966  0.0900
   70loPI    C1 1105   3.506   1.354  11.994  0.1462 -0.1216  0.0084
   70loPI    C2 1106   3.483   1.715  12.165  0.2272 -0.1377  0.0540
   70loPI    C3 1107   3.199   1.442  12.234  0.1633 -0.0812  0.0157
   70loPI   PO4 1108   3.749   1.280  11.742 -0.0983 -0.1578 -0.0502
   70loPI   GL1 1109   4.050   1.268  11.528  0.0325 -0.1685  0.1303
   70loPI   GL2 1110   4.162   1.547  11.408 -0.1492  0.0817 -0.0391
   70loPI   C1A 1111   3.986   0.912  11.089 -0.0093 -0.1646 -0.1181
   70loPI   C2A 1112   3.966   0.912  10.617  0.1168 -0.1694 -0.2689
   70loPI   C3A 1113   3.942   0.975  10.251 -0.1219 -0.0416 -0.0607
   70loPI   C4A 1114   3.990   0.870   9.752 -0.1507  0.4578 -0.2335
   70loPI   C5A 1115   4.028   1.096   9.284  0.4541 -0.1773 -0.1140
   70loPI   C6A 1116   3.818   1.123   8.927  0.0648 -0.0719  0.0813
   70loPI   C1B 1117   3.976   1.436  11.018  0.0210 -0.1096 -0.0974
   70loPI   C2B 1118   4.045   1.464  10.592  0.0032  0.1017  0.0441
   70loPI   C3B 1119   4.001   1.491  10.147  0.0998  0.1506 -0.1847
   70loPI   C4B 1120   4.041   1.475   9.698 -0.1775 -0.1988 -0.0746
   71loPI    C1 1121   2.715  13.875  11.796 -0.1865 -0.1553 -0.3023
   71loPI    C2 1122   2.473  13.668  12.039 -0.0685  0.1681  0.1021
   71loPI    C3 1123   2.825  13.513  11.929 -0.2132 -0.0683 -0.0368
   71loPI   PO4 1124   2.634  13.938  11.584 -0.0804 -0.0650 -0.1907
   71loPI   GL1 1125   2.693  14.357  11.260 -0.2627 -0.0292  0.0757
   71loPI   GL2 1126   2.494  14.515  10.988 -0.1915  0.0788 -0.0940
   71loPI   C1A 1127   2.820  14.229  10.856 -0.2280 -0.2280  0.0060
   71loPI   C2A 1128   2.913  14.229  10.455  0.0775  0.1141 -0.1455
   71loPI   C3A 1129   2.822  14.256  10.013  0.3112 -0.1103 -0.3107
   71loPI   C4A 1130   2.772  14.314   9.561  0.1797  0.0299 -0.2217
   71loPI   C5A 1131   2.451  14.204   9.211 -0.1972 -0.2545 -0.5505
   71loPI   C6A 1132   2.051  13.943   9.188 -0.0089 -0.1120 -0.1129
   71loPI   C1B 1133   2.428  14.561  10.511 -0.1013 -0.4089 -0.0736
   71loPI   C2B 1134   2.435  14.518   9.994 -0.0849 -0.1855  0.2240
   71loPI   C3B 1135   2.313  14.768   9.530  0.0099 -0.3942 -0.0693
   71loPI   C4B 1136   2.573  14.973   9.157  0.1388 -0.0827  0.1010
   72loPI    C1 1137   7.132   4.704  11.646  0.1627  0.2819  0.0091
   72loPI    C2 1138   6.848   4.694  11.928  0.0627  0.0204 -0.0971
   72loPI    C3 1139   7.178   4.472  11.969  0.1153  0.0940 -0.1177
   72loPI   PO4 1140   7.112   4.682  11.395 -0.0715  0.1452  0.0164
   72loPI   GL1 1141   6.853   4.802  11.056  0.1956 -0.0191  0.1748
   72loPI   GL2 1142   7.053   4.999  10.840  0.0820  0.1766 -0.0812
   72loPI   C1A 1143   6.543   4.803  10.726 -0.2071  0.0851  0.2785
   72loPI   C2A 1144   6.422   4.818  10.238  0.2113 -0.1980  0.1758
   72loPI   C3A 1145   6.473   4.706   9.873  0.1050 -0.0117 -0.1934
   72loPI   C4A 1146   6.504   4.650   9.475  0.0457 -0.2010  0.0311
   72loPI   C5A 1147   6.460   4.363   9.058 -0.0823  0.0561 -0.0843
   72loPI   C6A 1148   6.615   4.195   8.769  0.2167 -0.0755 -0.1973
   72loPI   C1B 1149   6.975   4.943  10.384 -0.0335 -0.2668  0.1309
   72loPI   C2B 1150   6.972   4.858   9.994 -0.0387 -0.1340  0.2328
   72loPI   C3B 1151   7.031   4.782   9.572 -0.2296  0.0222 -0.2945
   72loPI   C4B 1152   6.924   4.545   9.119  0.2139 -0.0875 -0.1188
   73loPI    C1 1153   8.254  16.410  11.480  0.4355 -0.1323  0.2754
   73loPI    C2 1154   8.202  16.135  11.765 -0.3919 -0.1563  0.1250
   73loPI    C3 1155   8.002  16.481  11.782 -0.0140  0.0818 -0.1353
   73loPI   PO4 1156   8.213  16.248  11.249  0.3657  0.1419  0.1381
   73loPI   GL1 1157   8.047  16.103  10.908  0.0899 -0.4357 -0.2686
   73loPI   GL2 1158   8.307  15.998  10.796 -0.0525  0.1954 -0.2528
   73loPI   C1A 1159   7.803  16.106  10.534 -0.0667  0.2500  0.0230
   73loPI   C2A 1160   7.778  16.029   9.991  0.0913  0.0307  0.0438
   73loPI   C3A 1161   7.653  16.009   9.552 -0.2352 -0.0022 -0.2998
   73loPI   C4A 1162   7.534  16.288   9.287 -0.0487 -0.2268 -0.3331
   73loPI   C5A 1163   7.371  16.358   8.875 -0.0360 -0.2365  0.1826
   73loPI   C6A 1164   6.982  16.386   8.679 -0.0223  0.4686  0.0356
   73loPI   C1B 1165   8.216  15.867  10.398  0.0687  0.1784 -0.1260
   73loPI   C2B 1166   8.237  15.765  10.018 -0.1730  0.1669  0.2126
   73loPI   C3B 1167   8.314  15.797   9.663  0.0026 -0.2651  0.1898
   73loPI   C4B 1168   8.084  15.785   9.317  0.0251 -0.0062 -0.2029
   74loPI    C1 1169   9.491   0.572  11.333 -0.0271 -0.1185 -0.2877
   74loPI    C2 1170   9.762   0.295  11.431  0.0348  0.0439  0.0159
   74loPI    C3 1171   9.559   0.485  11.718  0.0240  0.3437 -0.1862
   74loPI   PO4 1172   9.419   0.418  11.068 -0.0638  0.1535 -0.4083
   74loPI   GL1 1173   9.500   0.578  10.788  0.0033 -0.0618  0.2301
   74loPI   GL2 1174   9.552   0.840  10.573  0.0641 -0.0636  0.1437
   74loPI   C1A 1175   9.362   0.511  10.308  0.1697  0.0767  0.0240
   74loPI   C2A 1176   9.350   0.479   9.904 -0.0627 -0.3186  0.2420
   74loPI   C3A 1177   9.507   0.634   9.496 -0.0762  0.2360  0.2572
   74loPI   C4A 1178   9.553   0.425   9.205 -0.1004 -0.0316 -0.2550
   74loPI   C5A 1179   9.710   0.230   8.850 -0.2294  0.0071  0.0676
   74loPI   C6A 1180   9.599  -0.086   8.541 -0.0150  0.0231  0.0869
   74loPI   C1B 1181   9.634   0.927  10.140 -0.0493  0.1510 -0.0791
   74loPI   C2B 1182   9.778   1.177   9.850  0.1003 -0.1002 -0.2516
   74loPI   C3B 1183   9.498   1.364   9.564  0.0697 -0.0724  0.0570
   74loPI   C4B 1184   9.102   1.309   9.368 -0.0078 -0.0110 -0.1165
   75loPI    C1 1185   8.050   4.973  11.606  0.0480 -0.0568  0.0598
   75loPI    C2 1186   8.396   5.132  11.730  0.0549 -0.0638  0.0495
   75loPI    C3 1187   8.344   4.736  11.740 -0.0230 -0.0500  0.2306
   75loPI   PO4 1188   7.998   5.078  11.357 -0.0079  0.1628 -0.0484
   75loPI   GL1 1189   7.827   5.293  11.057 -0.2167 -0.1619 -0.1573
   75loPI   GL2 1190   7.825   5.633  10.988 -0.0087 -0.2004 -0.0960
   75loPI   C1A 1191   7.488   5.166  10.768 -0.0829 -0.0267  0.0218
   75loPI   C2A 1192   7.460   5.092  10.354  0.0276  0.0140  0.0335
   75loPI   C3A 1193   7.472   5.146   9.918 -0.0830  0.2179 -0.1397
   75loPI   C4A 1194   7.455   5.046   9.508 -0.1698  0.3765  0.0393
   75loPI   C5A 1195   7.676   5.088   9.022  0.1394 -0.1094 -0.0285
   75loPI   C6A 1196   7.981   5.232   8.596  0.3210  0.2468 -0.0437
   75loPI   C1B 1197   7.732   5.530  10.611  0.2458 -0.1770  0.3330
   75loPI   C2B 1198   7.606   5.590  10.254 -0.2271  0.0676  0.0740
   75loPI   C3B 1199   7.584   5.576   9.730 -0.0192 -0.0427 -0.0259
   75loPI   C4B 1200   7.633   5.521   9.269 -0.1719  0.3102  0.1929
   76loPI    C1 1201   7.594  12.925  11.501  0.1492 -0.0046  0.0182
   76loPI    C2 1202   7.566  12.733  11.851  0.0648 -0.0355 -0.0053
   76loPI    C3 1203   7.731  13.097  11.835  0.1434 -0.0682  0.0536
   76loPI   PO4 1204   7.525  12.711  11.334  0.0014  0.0674 -0.1576
   76loPI   GL1 1205   7.660  12.706  10.912  0.0796  0.1829  0.1635
   76loPI   GL2 1206   7.895  12.514  10.975 -0.0490  0.1273 -0.0954
   76loPI   C1A 1207   7.633  12.757  10.474 -0.3470  0.1280 -0.0682
   76loPI   C2A 1208   7.645  12.776   9.961 -0.1511 -0.2219 -0.0870
   76loPI   C3A 1209   7.612  12.711   9.591  0.1274 -0.0816 -0.3752
   76loPI   C4A 1210   7.580  12.743   9.209  0.0954 -0.2504 -0.0511
   76loPI   C5A 1211   7.298  12.735   8.964 -0.0081 -0.1703  0.0194
   76loPI   C6A 1212   6.947  12.850   8.737  0.1474 -0.0165  0.2335
   76loPI   C1B 1213   8.046  12.338  10.536  0.3819  0.2018  0.2456
   76loPI   C2B 1214   8.009  12.377  10.118  0.0797  0.0789  0.1143
   76loPI   C3B 1215   7.910  12.357   9.685 -0.1992  0.0996  0.1435
   76loPI   C4B 1216   7.882  12.313   9.233 -0.0270 -0.3900 -0.0269
   77loPI    C1 1217   8.947  15.470  11.537  0.1229  0.1050 -0.0037
   77loPI    C2 1218   9.237  15.588  11.786  0.1315 -0.1069  0.0891
   77loPI    C3 1219   9.156  15.199  11.745 -0.1666 -0.0477  0.0927
   77loPI   PO4 1220   8.979  15.590  11.304  0.1743 -0.3195 -0.2567
   77loPI   GL1 1221   8.976  15.719  10.842 -0.1567  0.1468  0.2535
   77loPI   GL2 1222   8.639  15.624  10.754  0.2123 -0.1980  0.2611
   77loPI   C1A 1223   9.121  15.769  10.492  0.1560  0.0625  0.1009
   77loPI   C2A 1224   9.162  15.709  10.073  0.2597 -0.0984  0.2210
   77loPI   C3A 1225   9.158  15.665   9.577  0.3053  0.2190 -0.2164
   77loPI   C4A 1226   9.111  15.451   9.194 -0.0705 -0.0831  0.0544
   77loPI   C5A 1227   9.400  15.436   8.802  0.0939 -0.0422  0.1884
   77loPI   C6A 1228   9.558  15.077   8.457  0.3896  0.0004  0.1982
   77loPI   C1B 1229   8.672  15.626  10.347 -0.0882 -0.0306 -0.0220
   77loPI   C2B 1230   8.566  15.414   9.911  0.2035 -0.0794  0.0948
   77loPI   C3B 1231   8.668  15.454   9.435  0.0095  0.0838  0.2558
   77loPI   C4B 1232   8.508  15.629   9.077  0.0684 -0.1817  0.2096
   78loPI    C1 1233   4.166  14.775  11.703  0.1576  0.1159 -0.0707
   78loPI    C2 1234   3.819  14.752  11.901  0.1259 -0.0444 -0.1430
   78loPI    C3 1235   4.088  15.031  12.000  0.0672 -0.0572  0.0567
   78loPI   PO4 1236   4.119  14.736  11.500  0.1131  0.1849  0.0580
   78loPI   GL1 1237   3.933  14.872  11.076  0.1707 -0.3162 -0.0150
   78loPI   GL2 1238   3.740  15.102  11.000  0.1996 -0.1970 -0.1142
   78loPI   C1A 1239   3.840  14.541  10.739 -0.2318  0.2324  0.0389
   78loPI   C2A 1240   3.862  14.561  10.300  0.1765 -0.1119 -0.0229
   78loPI   C3A 1241   3.768  14.568   9.870  0.1881 -0.0725 -0.2005
   78loPI   C4A 1242   3.809  14.749   9.459 -0.0122  0.1779  0.1834
   78loPI   C5A 1243   3.812  14.910   9.014  0.1333  0.1495  0.2025
   78loPI   C6A 1244   3.695  14.752   8.652 -0.1811 -0.0375  0.2015
   78loPI   C1B 1245   3.916  15.030  10.599  0.0140 -0.0512  0.2085
   78loPI   C2B 1246   3.889  15.043  10.129  0.1135  0.0970 -0.0643
   78loPI   C3B 1247   3.817  15.165   9.721 -0.1594  0.0961 -0.1547
   78loPI   C4B 1248   3.992  15.275   9.392 -0.0348 -0.1818  0.2630
   79loPI    C1 1249  11.639   4.248  12.016  0.1134 -0.0550 -0.1272
   79loPI    C2 1250  11.540   4.630  12.081  0.1374 -0.0613 -0.0528
   79loPI    C3 1251  11.591   4.382  12.390 -0.2834 -0.2286 -0.1114
   79loPI   PO4 1252  11.770   4.149  11.681 -0.0176 -0.0647  0.2318
   79loPI   GL1 1253  11.533   4.083  11.287  0.1140  0.0830  0.0350
   79loPI   GL2 1254  11.534   4.485  11.134  0.0831  0.0327 -0.0853
   79loPI   C1A 1255  11.471   4.090  10.851  0.0623  0.0108  0.0065
   79loPI   C2A 1256  11.454   4.080  10.366  0.2092  0.1119 -0.1280
   79loPI   C3A 1257  11.537   3.981   9.900 -0.0096  0.0281 -0.1470
   79loPI   C4A 1258  11.492   3.915   9.524  0.0991  0.1202  0.2273
   79loPI   C5A 1259  11.686   3.814   9.160 -0.0092 -0.1217 -0.2276
   79loPI   C6A 1260  12.126   3.650   8.987  0.2250  0.4084  0.0841
   79loPI   C1B 1261  11.605   4.577  10.704  0.0950 -0.1574 -0.0861
   79loPI   C2B 1262  11.625   4.539  10.227  0.1585  0.0419 -0.1406
   79loPI   C3B 1263  11.689   4.538   9.790 -0.0717 -0.2006  0.0597
   79loPI   C4B 1264  11.768   4.296   9.397  0.1452 -0.1228  0.2625
   80loPI    C1 1265  12.120   5.788  11.814  0.0943 -0.0867  0.2897
   80loPI    C2 1266  11.949   5.581  12.109 -0.1404 -0.0452  0.1849
   80loPI    C3 1267  11.758   5.893  11.947  0.0729  0.0551  0.1240
   80loPI   PO4 1268  12.171   5.635  11.613 -0.1120  0.0643 -0.3535
   80loPI   GL1 1269  12.286   5.693  11.215 -0.1102 -0.2202 -0.0473
   80loPI   GL2 1270  12.546   5.814  11.249 -0.0540  0.0348  0.0327
   80loPI   C1A 1271  12.275   5.853  10.816 -0.2245 -0.0878  0.1269
   80loPI   C2A 1272  12.238   5.801  10.349  0.2657 -0.3381  0.1025
   80loPI   C3A 1273  12.331   5.763   9.862 -0.1280 -0.0788 -0.1173
   80loPI   C4A 1274  12.259   5.611   9.530 -0.0904  0.1052  0.3916
   80loPI   C5A 1275  12.181   5.145   9.417 -0.2343 -0.0767 -0.1275
   80loPI   C6A 1276  12.233   4.985   8.984  0.2854  0.0144  0.1767
   80loPI   C1B 1277  12.664   5.539  10.896  0.0455 -0.0131 -0.1739
   80loPI   C2B 1278  12.653   5.478  10.382  0.0772 -0.0200  0.2283
   80loPI   C3B 1279  12.767   5.428   9.890 -0.0957  0.1872 -0.4100
   80loPI   C4B 1280  12.694   5.362   9.532 -0.1957  0.1529  0.2845
   81loPI    C1 1281   1.703   6.992  12.021  0.1380 -0.1223  0.0182
   81loPI    C2 1282   1.992   7.258  11.946 -0.0384 -0.0064 -0.2696
   81loPI    C3 1283   1.662   7.370  12.143  0.0562 -0.1092 -0.0486
   81loPI   PO4 1284   1.575   6.824  11.795 -0.0236 -0.0079 -0.0120
   81loPI   GL1 1285   1.604   6.778  11.288  0.1357  0.0328  0.2396
   81loPI   GL2 1286   1.642   6.538  11.406 -0.1743 -0.1427  0.1891
   81loPI   C1A 1287   1.268   6.630  11.053 -0.1424 -0.3900  0.1811
   81loPI   C2A 1288   1.292   6.674  10.676 -0.0662  0.3444  0.1095
   81loPI   C3A 1289   1.295   6.584  10.196 -0.0395 -0.1989  0.0776
   81loPI   C4A 1290   1.492   6.514   9.803  0.1336  0.0877  0.3034
   81loPI   C5A 1291   1.646   6.252   9.375 -0.2366  0.0112 -0.2145
   81loPI   C6A 1292   1.345   6.072   9.032  0.3079 -0.0707 -0.2647
   81loPI   C1B 1293   1.657   6.372  10.924 -0.1018 -0.2529 -0.1102
   81loPI   C2B 1294   1.683   6.383  10.548 -0.3397  0.3941  0.1474
   81loPI   C3B 1295   1.677   6.229  10.216  0.2235 -0.0896  0.0742
   81loPI   C4B 1296   1.672   6.019   9.826  0.0807 -0.2500 -0.3085
   82loPI    C1 1297  12.842   8.563  11.391 -0.0213  0.1154 -0.1873
   82loPI    C2 1298  12.569   8.855  11.403 -0.1398  0.0027 -0.1187
   82loPI    C3 1299  12.693   8.684  11.742  0.0400  0.0743 -0.1471
   82loPI   PO4 1300  13.024   8.699  11.163 -0.0582 -0.2453  0.1330
   82loPI   GL1 1301  12.790   8.714  10.857  0.3905 -0.1254 -0.0993
   82loPI   GL2 1302  12.552   8.504  11.006 -0.1000 -0.0656 -0.1160
   82loPI   C1A 1303  12.781   8.549  10.436  0.0137 -0.1187  0.0376
   82loPI   C2A 1304  12.571   8.475  10.062 -0.0284 -0.0362  0.1162
   82loPI   C3A 1305  12.704   8.324   9.681  0.1502  0.0307 -0.0012
   82loPI   C4A 1306  12.856   8.268   9.288  0.0784  0.2330  0.0334
   82loPI   C5A 1307  13.011   8.313   8.877 -0.0840  0.2567  0.0685
   82loPI   C6A 1308  13.142   8.124   8.532  0.0182 -0.3609  0.0393
   82loPI   C1B 1309  12.295   8.436  10.606  0.0425 -0.1433  0.0880
   82loPI   C2B 1310  12.172   8.318  10.269 -0.0799  0.1018 -0.2681
   82loPI   C3B 1311  12.221   8.180   9.907 -0.0831  0.0381 -0.0098
   82loPI   C4B 1312  12.143   8.207   9.486 -0.0371  0.0641  0.1149
   83loPI    C1 1313   1.137   8.845  11.792 -0.0934  0.1945  0.2409
   83loPI    C2 1314   1.110   8.479  11.953 -0.0261  0.0333 -0.1053
   83loPI    C3 1315   1.047   8.803  12.180 -0.1289 -0.1927  0.1946
   83loPI   PO4 1316   1.107   8.703  11.469 -0.0032 -0.4291  0.1733
   83loPI   GL1 1317   0.803   8.670  11.198 -0.2471 -0.1484 -0.0850
   83loPI   GL2 1318   1.009   8.464  11.020 -0.1570 -0.1335  0.1441
   83loPI   C1A 1319   0.638   8.852  10.770  0.1430  0.3284 -0.1452
   83loPI   C2A 1320   0.620   8.969  10.412 -0.3475 -0.0829  0.1604
   83loPI   C3A 1321   0.687   8.990   9.998  0.3136 -0.0133  0.2722
   83loPI   C4A 1322   0.567   9.141   9.649  0.2593  0.0798  0.1401
   83loPI   C5A 1323   0.616   9.263   9.191  0.2116 -0.3037 -0.2769
   83loPI   C6A 1324   0.339   9.484   8.937  0.0772  0.1956 -0.0293
   83loPI   C1B 1325   1.040   8.077  10.759 -0.0894  0.1707  0.3105
   83loPI   C2B 1326   0.947   7.980  10.257 -0.0879  0.1151  0.0039
   83loPI   C3B 1327   0.759   7.830   9.883  0.1269 -0.3640  0.3789
   83loPI   C4B 1328   0.494   7.910   9.561  0.3101 -0.1781 -0.0328
   84loPI    C1 1329   4.276   4.486  12.216 -0.0663 -0.0914  0.0186
   84loPI    C2 1330   3.916   4.424  12.381 -0.0492 -0.1438  0.0364
   84loPI    C3 1331   4.182   4.660  12.564 -0.0764 -0.1009  0.0207
   84loPI   PO4 1332   4.212   4.529  11.985 -0.0759  0.0287 -0.0329
   84loPI   GL1 1333   4.279   4.552  11.591 -0.0591 -0.1697  0.1777
   84loPI   GL2 1334   3.948   4.744  11.585  0.1264  0.0998 -0.2656
   84loPI   C1A 1335   4.200   4.428  11.195  0.3191 -0.1737 -0.2412
   84loPI   C2A 1336   4.154   4.423  10.734 -0.1137 -0.4526  0.2521
   84loPI   C3A 1337   4.019   4.373  10.336 -0.2707  0.3521  0.0525
   84loPI   C4A 1338   3.961   4.293   9.935  0.4046  0.0621 -0.0873
   84loPI   C5A 1339   3.899   4.298   9.492  0.0105 -0.1366  0.0173
   84loPI   C6A 1340   3.923   4.287   9.041 -0.0989  0.1643  0.0324
   84loPI   C1B 1341   3.762   4.860  11.178 -0.1403  0.0907  0.0900
   84loPI   C2B 1342   3.710   4.751  10.718 -0.0366 -0.0465 -0.0132
   84loPI   C3B 1343   3.676   4.713  10.263 -0.1177  0.0779 -0.0634
   84loPI   C4B 1344   3.666   4.658   9.825  0.0138  0.3035  0.2983
   85loPI    C1 1345  14.342  10.941  11.479 -0.1822 -0.3080 -0.0834
   85loPI    C2 1346  14.121  10.813  11.787 -0.1713 -0.0291  0.0439
   85loPI    C3 1347  14.043  11.167  11.619 -0.0400 -0.0840 -0.1365
   85loPI   PO4 1348  14.380  10.765  11.259 -0.1921 -0.1317  0.1870
   85loPI   GL1 1349  14.243  10.768  10.927 -0.0044  0.0106  0.1739
   85loPI   GL2 1350  14.483  11.101  10.888 -0.0670  0.0207  0.0146
   85loPI   C1A 1351  14.358  10.605  10.507 -0.2866 -0.1218  0.2124
   85loPI   C2A 1352  14.374  10.630  10.114  0.0583  0.2353 -0.0718
   85loPI   C3A 1353  14.455  10.701   9.691  0.1449 -0.2664  0.0866
   85loPI   C4A 1354  14.530  10.469   9.353 -0.1938  0.3233 -0.3797
   85loPI   C5A 1355  14.684  10.110   9.010 -0.0543 -0.0711  0.0446
   85loPI   C6A 1356  14.564   9.757   8.847  0.0203 -0.3408  0.0788
   85loPI   C1B 1357  14.433  11.088  10.330  0.0503 -0.1329  0.0293
   85loPI   C2B 1358  14.538  11.141   9.874  0.1535  0.1830  0.0466
   85loPI   C3B 1359  14.390  11.141   9.424  0.0602 -0.2028 -0.2081
   85loPI   C4B 1360  14.561  10.952   9.166 -0.0177  0.1181  0.0410
   86loPI    C1 1361   2.771  16.388  11.958  0.1102 -0.1233  0.1662
   86loPI    C2 1362   2.657  16.550  12.306  0.1294 -0.1667  0.1930
   86loPI    C3 1363   2.682  16.153  12.269  0.0271 -0.1660  0.1103
   86loPI   PO4 1364   2.569  16.404  11.745  0.1992 -0.1061  0.0769
   86loPI   GL1 1365   2.676  16.407  11.337  0.0564 -0.1241  0.0454
   86loPI   GL2 1366   2.344  16.561  11.273  0.1463 -0.1302  0.0937
   86loPI   C1A 1367   2.827  16.189  10.936  0.4710 -0.1688 -0.0138
   86loPI   C2A 1368   2.650  16.080  10.496 -0.2368  0.1125  0.1968
   86loPI   C3A 1369   2.663  16.148  10.021  0.1153 -0.2161  0.1383
   86loPI   C4A 1370   2.729  16.171   9.538  0.2315 -0.1106  0.0797
   86loPI   C5A 1371   3.012  16.148   9.176  0.0502  0.1352 -0.0246
   86loPI   C6A 1372   2.892  16.089   8.754  0.1123  0.1550  0.4674
   86loPI   C1B 1373   2.440  16.534  10.821 -0.1759 -0.2393  0.0014
   86loPI   C2B 1374   2.330  16.478  10.391  0.0669 -0.3260 -0.0449
   86loPI   C3B 1375   2.290  16.496  10.001 -0.0542  0.0039 -0.2811
   86loPI   C4B 1376   2.392  16.532   9.614  0.0499 -0.1675  0.0260
   87loPI    C1 1377   4.506  10.992  11.551  0.0211 -0.2130 -0.1005
   87loPI    C2 1378   4.780  10.829  11.309  0.1591 -0.1111 -0.0145
   87loPI    C3 1379   4.895  11.050  11.622 -0.0227 -0.0282 -0.0046
   87loPI   PO4 1380   4.304  11.129  11.398  0.1795 -0.0594 -0.0589
   87loPI   GL1 1381   4.258  10.942  11.040 -0.2212  0.1417  0.1412
   87loPI   GL2 1382   4.441  10.968  10.944 -0.0790  0.0289  0.0756
   87loPI   C1A 1383   4.101  10.825  10.608 -0.0688  0.0887 -0.0601
   87loPI   C2A 1384   4.186  10.767  10.277 -0.0179 -0.0738 -0.0984
   87loPI   C3A 1385   4.157  10.874   9.864  0.0419  0.2347 -0.2227
   87loPI   C4A 1386   4.133  10.866   9.487 -0.0609 -0.2561 -0.0194
   87loPI   C5A 1387   4.334  10.965   9.119 -0.1306 -0.0902  0.3394
   87loPI   C6A 1388   4.592  11.318   8.824 -0.0094 -0.0175 -0.3077
   87loPI   C1B 1389   4.659  10.895  10.492 -0.2230  0.0159  0.0702
   87loPI   C2B 1390   4.587  11.006  10.051  0.2715 -0.0430 -0.0453
   87loPI   C3B 1391   4.601  11.021   9.579  0.0633 -0.0693  0.1951
   87loPI   C4B 1392   4.802  10.990   9.197 -0.1585 -0.1029  0.2886
   88loPI    C1 1393  13.219   1.215  11.679 -0.0388 -0.1414 -0.0264
   88loPI    C2 1394  13.267   1.175  12.074  0.1159 -0.3324 -0.0628
   88loPI    C3 1395  13.452   1.471  11.880 -0.1839 -0.0659  0.0475
   88loPI   PO4 1396  12.923   1.149  11.697 -0.1320 -0.0958 -0.2402
   88loPI   GL1 1397  12.733   0.995  11.343  0.0421  0.2863 -0.0934
   88loPI   GL2 1398  12.710   0.784  11.110  0.0144 -0.0187  0.2981
   88loPI   C1A 1399  12.938   1.217  10.865  0.0370 -0.1508  0.1563
   88loPI   C2A 1400  12.955   1.163  10.400 -0.0665  0.0382  0.0729
   88loPI   C3A 1401  12.981   1.168   9.888  0.1888 -0.0945  0.1863
   88loPI   C4A 1402  13.158   0.962   9.521 -0.1604 -0.0058 -0.0063
   88loPI   C5A 1403  13.442   1.215   9.129 -0.3345  0.1395 -0.1985
   88loPI   C6A 1404  13.759   1.528   9.192  0.3969 -0.0999 -0.0949
   88loPI   C1B 1405  12.736   0.678  10.701 -0.0193  0.0695 -0.0179
   88loPI   C2B 1406  12.886   0.606  10.316 -0.0680 -0.0966 -0.0001
   88loPI   C3B 1407  12.972   0.670   9.881  0.1986  0.0118 -0.3861
   88loPI   C4B 1408  12.935   0.530   9.361  0.2303  0.1723 -0.0222
   89loPI    C1 1409  14.671   4.972  11.829 -0.1889  0.1071  0.0881
   89loPI    C2 1410  15.038   5.121  11.884 -0.1165 -0.0300 -0.0173
   89loPI    C3 1411  14.720   5.313  12.032 -0.0070  0.1160  0.0310
   89loPI   PO4 1412  14.694   4.715  11.625  0.2005 -0.2651  0.0975
   89loPI   GL1 1413  14.772   4.583  11.254 -0.1483 -0.5466  0.2071
   89loPI   GL2 1414  15.058   4.705  11.272 -0.1984 -0.0751  0.2047
   89loPI   C1A 1415  14.806   4.431  10.853 -0.1363  0.0489 -0.0334
   89loPI   C2A 1416  14.788   4.300  10.458 -0.0904  0.2984 -0.1789
   89loPI   C3A 1417  14.788   4.244  10.164  0.0074  0.1117  0.2626
   89loPI   C4A 1418  14.896   4.328   9.717 -0.1803  0.0859 -0.0037
   89loPI   C5A 1419  15.066   4.347   9.209  0.0034 -0.0148 -0.2018
   89loPI   C6A 1420  15.372   4.059   8.970  0.4046  0.0362 -0.0412
   89loPI   C1B 1421  15.012   4.836  10.824  0.1372  0.1111  0.1129
   89loPI   C2B 1422  14.971   4.742  10.385 -0.2826  0.1506 -0.2941
   89loPI   C3B 1423  14.848   4.786   9.921 -0.2671 -0.0345  0.2961
   89loPI   C4B 1424  14.790   4.693   9.411 -0.1067 -0.0439 -0.3206
   90loPI    C1 1425   1.095   0.676  12.073  0.0014 -0.2777 -0.0795
   90loPI    C2 1426   0.781   0.556  12.290 -0.1270 -0.0001 -0.1069
   90loPI    C3 1427   1.136   0.614  12.466 -0.1360 -0.1378 -0.0420
   90loPI   PO4 1428   1.162   0.543  11.838 -0.0134  0.1763 -0.5358
   90loPI   GL1 1429   1.026   0.436  11.383  0.3284 -0.0522  0.1685
   90loPI   GL2 1430   1.352   0.551  11.354 -0.1334 -0.0199 -0.0780
   90loPI   C1A 1431   1.163   0.351  10.890  0.2299  0.0489  0.2874
   90loPI   C2A 1432   1.059   0.343  10.486  0.1872 -0.0445 -0.0037
   90loPI   C3A 1433   1.137   0.268  10.083  0.5123 -0.2437  0.1269
   90loPI   C4A 1434   1.132   0.341   9.636  0.1593 -0.0770 -0.2237
   90loPI   C5A 1435   1.280   0.327   9.233  0.0803  0.2579  0.0666
   90loPI   C6A 1436   1.084   0.476   8.815 -0.1040 -0.0243  0.2793
   90loPI   C1B 1437   1.221   0.816  10.995 -0.1314  0.1541  0.1981
   90loPI   C2B 1438   1.167   0.802  10.631 -0.3468  0.1198  0.2174
   90loPI   C3B 1439   1.147   0.793  10.209  0.0768  0.0727 -0.1849
   90loPI   C4B 1440   1.144   0.911   9.809  0.0545  0.1840  0.1250
   91loPI    C1 1441   8.578   5.899  11.381  0.2771 -0.0021 -0.1113
   91loPI    C2 1442   8.713   5.903  11.758  0.0127  0.2314 -0.0154
   91loPI    C3 1443   8.396   6.124  11.657  0.0607  0.1446 -0.3698
   91loPI   PO4 1444   8.792   6.011  11.245  0.2076  0.0303  0.1630
   91loPI   GL1 1445   8.897   5.730  11.013 -0.2845  0.2489 -0.1186
   91loPI   GL2 1446   8.965   5.520  10.764 -0.1376  0.2301 -0.1242
   91loPI   C1A 1447   8.646   5.924  10.599  0.0468  0.1860  0.0545
   91loPI   C2A 1448   8.506   5.890  10.130  0.0464 -0.0863  0.1585
   91loPI   C3A 1449   8.610   5.837   9.730  0.1370  0.0996  0.3515
   91loPI   C4A 1450   8.668   5.820   9.243 -0.0919 -0.0956  0.0585
   91loPI   C5A 1451   8.639   5.907   8.813 -0.4882  0.2561  0.2794
   91loPI   C6A 1452   8.448   6.132   8.557 -0.1876 -0.1036  0.0516
   91loPI   C1B 1453   8.959   5.614  10.259  0.0719 -0.2659 -0.1239
   91loPI   C2B 1454   9.006   5.523   9.823  0.3219  0.3253 -0.0086
   91loPI   C3B 1455   9.136   5.402   9.454 -0.0267  0.1521  0.0072
   91loPI   C4B 1456   9.135   5.529   9.067 -0.3238 -0.2521 -0.0702
   92loPI    C1 1457   4.950   5.011  12.063 -0.0774 -0.1796 -0.0877
   92loPI    C2 1458   5.218   4.763  12.226 -0.1044 -0.3013 -0.2271
   92loPI    C3 1459   5.188   5.139  12.359  0.1570 -0.2769 -0.2315
   92loPI   PO4 1460   4.999   4.970  11.821 -0.1474 -0.0516  0.1984
   92loPI   GL1 1461   4.977   4.978  11.409 -0.0008 -0.0214  0.0961
   92loPI   GL2 1462   5.206   4.749  11.314 -0.2484  0.0431 -0.2446
   92loPI   C1A 1463   4.585   4.724  11.144  0.2412  0.1657  0.0725
   92loPI   C2A 1464   4.567   4.677  10.741 -0.2244  0.0462 -0.3417
   92loPI   C3A 1465   4.595   4.635  10.269  0.1656 -0.1380 -0.0178
   92loPI   C4A 1466   4.607   4.533   9.855 -0.1121 -0.1850 -0.3148
   92loPI   C5A 1467   4.774   4.419   9.478 -0.1263  0.1152 -0.0793
   92loPI   C6A 1468   5.122   4.386   9.185 -0.1076 -0.2812 -0.2305
   92loPI   C1B 1469   5.073   4.841  10.878 -0.2523 -0.0395  0.1375
   92loPI   C2B 1470   4.997   4.797  10.483  0.1459  0.1945 -0.0868
   92loPI   C3B 1471   5.039   4.707  10.108 -0.1213 -0.1663 -0.0948
   92loPI   C4B 1472   5.128   4.740   9.655 -0.0097 -0.0901  0.0984
   93loPI    C1 1473  12.303  15.806  11.596 -0.2293 -0.0781  0.0293
   93loPI    C2 1474  12.561  15.531  11.731 -0.2592 -0.1734 -0.1060
   93loPI    C3 1475  12.286  15.685  11.977 -0.1002 -0.1008  0.0285
   93loPI   PO4 1476  12.331  15.865  11.318 -0.3317  0.4590 -0.0388
   93loPI   GL1 1477  12.267  15.606  10.883  0.1093  0.1132 -0.0749
   93loPI   GL2 1478  12.204  15.217  10.846 -0.0802  0.2907 -0.0357
   93loPI   C1A 1479  12.462  15.711  10.512 -0.1804  0.2462 -0.1319
   93loPI   C2A 1480  12.482  15.673  10.120  0.2400 -0.0242  0.0701
   93loPI   C3A 1481  12.577  15.734   9.674 -0.0040  0.0195 -0.1478
   93loPI   C4A 1482  12.741  15.780   9.307  0.1402  0.0816  0.2073
   93loPI   C5A 1483  12.746  15.686   8.925 -0.1964  0.1445  0.0963
   93loPI   C6A 1484  12.653  15.378   8.654 -0.0885 -0.2687  0.0885
   93loPI   C1B 1485  12.230  15.162  10.386 -0.1751 -0.1248 -0.2030
   93loPI   C2B 1486  12.344  15.220  10.014 -0.0267  0.4292  0.1727
   93loPI   C3B 1487  12.477  15.299   9.526 -0.3949 -0.0254  0.0747
   93loPI   C4B 1488  12.623  15.252   9.164  0.0190  0.0682 -0.0188
   94loPI    C1 1489   6.209   8.491  11.402  0.0386 -0.1000 -0.1119
   94loPI    C2 1490   6.403   8.375  11.732  0.0720 -0.1582 -0.1517
   94loPI    C3 1491   6.023   8.262  11.673 -0.0386  0.1151  0.0188
   94loPI   PO4 1492   6.318   8.458  11.224  0.1223 -0.0219  0.1264
   94loPI   GL1 1493   6.466   8.729  10.972 -0.0100 -0.1265  0.2075
   94loPI   GL2 1494   6.566   8.566  10.744 -0.4653  0.1797 -0.1438
   94loPI   C1A 1495   6.289   8.919  10.622 -0.1282 -0.1008 -0.1446
   94loPI   C2A 1496   6.340   8.979  10.206 -0.1195 -0.1674  0.2900
   94loPI   C3A 1497   6.258   8.981   9.879  0.2745 -0.0753 -0.2420
   94loPI   C4A 1498   6.436   8.989   9.440 -0.2697 -0.2221  0.0046
   94loPI   C5A 1499   6.311   8.841   9.000 -0.3218 -0.0543  0.1836
   94loPI   C6A 1500   6.243   8.632   8.670 -0.2141  0.0570 -0.0563
   94loPI   C1B 1501   6.679   8.617  10.311  0.1117 -0.2766  0.1196
   94loPI   C2B 1502   6.687   8.605   9.871  0.0893 -0.0774 -0.0419
   94loPI   C3B 1503   6.771   8.566   9.544  0.0065 -0.2117  0.0229
   94loPI   C4B 1504   6.716   8.525   9.126  0.2656  0.2041 -0.1524
   95loPI    C1 1505   0.279   0.293  11.992 -0.1872 -0.1842 -0.0365
   95loPI    C2 1506  -0.016   0.132  12.209 -0.1645 -0.0269  0.1130
   95loPI    C3 1507   0.273   0.342  12.389 -0.0650 -0.0189 -0.0540
   95loPI   PO4 1508   0.221   0.274  11.775 -0.0592 -0.3620 -0.0516
   95loPI   GL1 1509   0.350   0.024  11.439 -0.0208  0.1986  0.1338
   95loPI   GL2 1510   0.645   0.130  11.411  0.0109  0.0338  0.2929
   95loPI   C1A 1511   0.228   0.036  11.075  0.0911 -0.2415  0.1039
   95loPI   C2A 1512   0.112  -0.098  10.641 -0.1487  0.1229  0.1670
   95loPI   C3A 1513   0.072   0.013  10.177  0.3434 -0.1809 -0.3333
   95loPI   C4A 1514   0.194  -0.022   9.836  0.2667  0.1599  0.0843
   95loPI   C5A 1515   0.149  -0.051   9.472  0.0708 -0.0001  0.0680
   95loPI   C6A 1516   0.341   0.057   9.031 -0.0435 -0.2055 -0.1556
   95loPI   C1B 1517   0.707   0.127  10.977 -0.1687 -0.0899 -0.0065
   95loPI   C2B 1518   0.586   0.119  10.559  0.1897 -0.1166  0.1086
   95loPI   C3B 1519   0.633   0.171  10.096 -0.0786 -0.3203  0.0564
   95loPI   C4B 1520   0.713   0.153   9.701 -0.0229 -0.0683  0.5294
   96loPI    C1 1521   1.282   7.707  11.629  0.1084 -0.0949 -0.1167
   96loPI    C2 1522   1.071   7.944  11.873 -0.0918 -0.0434 -0.3371
   96loPI    C3 1523   1.357   7.708  12.022 -0.3186 -0.1304 -0.0301
   96loPI   PO4 1524   1.221   7.621  11.498  0.5494 -0.1268  0.0972
   96loPI   GL1 1525   1.377   7.742  11.114  0.3526  0.2485  0.1072
   96loPI   GL2 1526   1.475   8.018  11.029  0.2070 -0.1521 -0.3057
   96loPI   C1A 1527   1.172   7.525  10.767 -0.1092 -0.1113 -0.0048
   96loPI   C2A 1528   1.197   7.557  10.399 -0.0240 -0.2065  0.0711
   96loPI   C3A 1529   1.038   7.463   9.985 -0.1088  0.0675  0.0994
   96loPI   C4A 1530   1.027   7.531   9.565 -0.1112 -0.2887  0.0091
   96loPI   C5A 1531   0.871   7.555   9.223 -0.2013 -0.0565 -0.0172
   96loPI   C6A 1532   0.509   7.355   8.844  0.1408 -0.0851 -0.1665
   96loPI   C1B 1533   1.524   7.945  10.553 -0.2018 -0.0735 -0.3591
   96loPI   C2B 1534   1.477   7.971  10.115  0.1820  0.2118 -0.5935
   96loPI   C3B 1535   1.525   7.564   9.765  0.0560 -0.3462  0.2930
   96loPI   C4B 1536   1.653   7.355   9.391 -0.0930 -0.0314 -0.1319
   97loPI    C1 1537   5.896   9.918  11.596  0.2380  0.2223 -0.0767
   97loPI    C2 1538   6.103  10.206  11.781  0.1272  0.2502  0.0051
   97loPI    C3 1539   5.903   9.935  11.996  0.0288  0.2600 -0.0734
   97loPI   PO4 1540   5.945  10.000  11.340  0.0774 -0.3682 -0.2179
   97loPI   GL1 1541   5.737   9.960  10.933 -0.1657 -0.1469  0.0157
   97loPI   GL2 1542   5.717  10.317  10.867 -0.3106 -0.0258  0.3015
   97loPI   C1A 1543   5.651   9.692  10.568  0.0572  0.0290  0.0433
   97loPI   C2A 1544   5.605   9.680  10.099 -0.0893  0.1448  0.2291
   97loPI   C3A 1545   5.603   9.804   9.612 -0.1817  0.5059  0.0897
   97loPI   C4A 1546   5.803  10.067   9.302 -0.2908  0.1634  0.0242
   97loPI   C5A 1547   5.643  10.193   8.904 -0.2525 -0.0480  0.1185
   97loPI   C6A 1548   5.499  10.272   8.454 -0.0330 -0.1038 -0.0727
   97loPI   C1B 1549   5.623  10.540  10.488  0.2886  0.3557  0.2761
   97loPI   C2B 1550   5.662  10.695  10.123  0.1003  0.0546 -0.0593
   97loPI   C3B 1551   5.497  10.703   9.677 -0.1231  0.1032 -0.0811
   97loPI   C4B 1552   5.365  10.948   9.328  0.0479 -0.1083 -0.0488
   98loPI    C1 1553  16.193  15.413  11.811 -0.0263 -0.0198 -0.2366
   98loPI    C2 1554  16.117  15.794  11.905 -0.0783 -0.0546 -0.1368
   98loPI    C3 1555  16.186  15.526  12.194 -0.1554 -0.1446 -0.2013
   98loPI   PO4 1556  16.367  15.328  11.577  0.1666 -0.1111  0.3263
   98loPI   GL1 1557  16.507  15.417  11.101 -0.2457 -0.2119 -0.1349
   98loPI   GL2 1558  16.162  15.587  11.195 -0.2633 -0.1666  0.2091
   98loPI   C1A 1559  16.573  15.375  10.665 -0.0564  0.1022  0.2203
   98loPI   C2A 1560  16.554  15.343  10.213  0.0894  0.2290 -0.1546
   98loPI   C3A 1561  16.610  15.320   9.771 -0.1920  0.2317 -0.1004
   98loPI   C4A 1562  16.452  15.167   9.359 -0.3434  0.2474  0.0651
   98loPI   C5A 1563  16.121  15.068   9.176  0.0645  0.1843 -0.0071
   98loPI   C6A 1564  15.812  14.892   8.943  0.2181  0.1752  0.1059
   98loPI   C1B 1565  16.144  15.714  10.804 -0.2473 -0.1264  0.0734
   98loPI   C2B 1566  16.158  15.705  10.393 -0.2323 -0.2104 -0.0860
   98loPI   C3B 1567  16.178  15.651   9.943 -0.2218  0.7205  0.0719
   98loPI   C4B 1568  16.145  15.592   9.577 -0.3214  0.2563 -0.2378
   99loPI    C1 1569  11.587  15.951  11.486 -0.1472 -0.0420 -0.1952
   99loPI    C2 1570  11.706  15.614  11.666  0.0431  0.2524  0.2467
   99loPI    C3 1571  11.320  15.667  11.576  0.0231 -0.1117  0.1051
   99loPI   PO4 1572  11.791  15.952  11.229 -0.0369  0.4434  0.0552
   99loPI   GL1 1573  11.668  15.693  10.892 -0.1880  0.0912  0.1561
   99loPI   GL2 1574  11.587  15.870  10.690 -0.0644 -0.1443 -0.2978
   99loPI   C1A 1575  11.836  15.474  10.512 -0.2839  0.0818  0.1179
   99loPI   C2A 1576  11.982  15.498  10.105  0.2716  0.0319 -0.0412
   99loPI   C3A 1577  12.115  15.549   9.685  0.1070  0.2378  0.0958
   99loPI   C4A 1578  12.217  15.834   9.309 -0.2182 -0.0626 -0.2917
   99loPI   C5A 1579  12.432  16.077   9.037 -0.1501 -0.3645  0.0296
   99loPI   C6A 1580  12.248  16.435   8.814  0.1593 -0.2768 -0.0192
   99loPI   C1B 1581  11.551  15.806  10.244 -0.1059 -0.2583  0.1260
   99loPI   C2B 1582  11.647  15.892   9.780  0.0856 -0.0850 -0.1821
   99loPI   C3B 1583  11.796  15.926   9.511  0.1319 -0.1135  0.0706
   99loPI   C4B 1584  11.789  16.018   9.081  0.2339 -0.1381 -0.1577
  100loPI    C1 1585  16.760  14.024  11.972 -0.0731  0.3154  0.1504
  100loPI    C2 1586  17.137  14.048  12.105  0.0386 -0.0713 -0.0812
  100loPI    C3 1587  16.840  13.964  12.360  0.1308  0.0641  0.0728
  100loPI   PO4 1588  16.808  14.237  11.741  0.2307  0.1965 -0.1541
  100loPI   GL1 1589  16.947  14.448  11.357 -0.0530 -0.1615 -0.5057
  100loPI   GL2 1590  16.911  14.809  11.207 -0.0375  0.0150 -0.3232
  100loPI   C1A 1591  16.920  14.385  10.907 -0.0509  0.3575  0.2697
  100loPI   C2A 1592  16.970  14.417  10.536 -0.0585 -0.1229 -0.0194
  100loPI   C3A 1593  16.809  14.427  10.129 -0.1083 -0.1791  0.2919
  100loPI   C4A 1594  16.859  14.433   9.639  0.2176 -0.3186 -0.3682
  100loPI   C5A 1595  16.708  14.600   9.241  0.0647 -0.2527 -0.2091
  100loPI   C6A 1596  16.596  14.549   8.723  0.0358  0.0266  0.0952
  100loPI   C1B 1597  16.984  14.887  10.691 -0.1461  0.0504 -0.0487
  100loPI   C2B 1598  16.977  14.914  10.234  0.1065 -0.2214  0.0667
  100loPI   C3B 1599  17.018  14.925   9.758  0.1689  0.3196  0.1429
  100loPI   C4B 1600  17.053  15.173   9.434  0.3455  0.0959  0.2465
  101loPI    C1 1601  15.395  10.668  11.559  0.0432  0.0630  0.0741
  101loPI    C2 1602  15.492  10.979  11.792  0.0593  0.0675  0.0615
  101loPI    C3 1603  15.261  10.685  11.936 -0.0240  0.1258  0.0475
  101loPI   PO4 1604  15.286  10.858  11.339 -0.1408  0.0203 -0.1661
  101loPI   GL1 1605  15.496  10.896  11.036 -0.3177  0.1627  0.2155
  101loPI   GL2 1606  15.711  10.654  11.044  0.1642  0.2563 -0.1919
  101loPI   C1A 1607  15.311  10.951  10.641 -0.1242  0.1749 -0.2250
  101loPI   C2A 1608  15.438  10.998  10.259  0.1375  0.0782  0.2126
  101loPI   C3A 1609  15.400  10.957   9.852  0.1629  0.0582  0.1636
  101loPI   C4A 1610  15.381  11.035   9.479 -0.1145 -0.0496  0.1485
  101loPI   C5A 1611  15.234  10.961   9.142 -0.0796 -0.1975 -0.0718
  101loPI   C6A 1612  14.860  11.027   8.809  0.1078  0.2878 -0.1435
  101loPI   C1B 1613  15.783  10.665  10.498  0.1961  0.0544 -0.1288
  101loPI   C2B 1614  15.829  10.634  10.088  0.2911 -0.3308 -0.0398
  101loPI   C3B 1615  15.802  10.723   9.684 -0.0251  0.0058  0.0998
  101loPI   C4B 1616  15.889  10.736   9.239  0.1585 -0.2112  0.0192
  102loPI    C1 1617  14.217   1.944  12.068  0.0464 -0.0981 -0.1684
  102loPI    C2 1618  14.512   2.096  12.293 -0.0789 -0.3468  0.1723
  102loPI    C3 1619  14.165   1.991  12.462 -0.4287  0.0873 -0.2468
  102loPI   PO4 1620  14.290   1.868  11.851  0.0461  0.2461  0.2713
  102loPI   GL1 1621  14.102   1.882  11.483  0.0108  0.0508 -0.4274
  102loPI   GL2 1622  14.411   1.916  11.374 -0.0766 -0.0753  0.0006
  102loPI   C1A 1623  14.049   2.088  11.144 -0.0179 -0.0386  0.0022
  102loPI   C2A 1624  13.970   2.098  10.744 -0.1355  0.4826  0.2720
  102loPI   C3A 1625  13.965   2.037  10.319 -0.0598  0.1590  0.1242
  102loPI   C4A 1626  13.969   2.086   9.853 -0.0086 -0.0651 -0.2427
  102loPI   C5A 1627  14.164   1.943   9.421 -0.0508  0.0474 -0.0683
  102loPI   C6A 1628  14.577   1.909   9.316 -0.0552 -0.2293 -0.5007
  102loPI   C1B 1629  14.416   1.831  10.936 -0.1452  0.0169 -0.1454
  102loPI   C2B 1630  14.377   1.722  10.590  0.2630 -0.0166 -0.0034
  102loPI   C3B 1631  14.354   1.728  10.226  0.1456  0.2090 -0.2420
  102loPI   C4B 1632  14.392   1.822   9.876  0.0622 -0.1324 -0.0254
  103loPI    C1 1633   4.958   1.762  12.024 -0.0314 -0.1808 -0.1385
  103loPI    C2 1634   4.956   1.388  11.882 -0.2786 -0.2476  0.0339
  103loPI    C3 1635   4.843   1.460  12.259  0.3018 -0.0639  0.1846
  103loPI   PO4 1636   4.855   1.873  11.866 -0.0167 -0.1644  0.1581
  103loPI   GL1 1637   4.738   1.771  11.484 -0.0263 -0.0347 -0.1996
  103loPI   GL2 1638   4.431   1.971  11.390 -0.0788 -0.1296  0.0234
  103loPI   C1A 1639   4.715   1.529  11.191  0.1348  0.0463  0.1315
  103loPI   C2A 1640   4.529   1.571  10.702 -0.3084 -0.3851  0.2488
  103loPI   C3A 1641   4.535   1.643  10.297  0.1789 -0.0065 -0.1078
  103loPI   C4A 1642   4.517   1.631   9.860  0.3520  0.0589 -0.1785
  103loPI   C5A 1643   4.501   1.569   9.408 -0.1829  0.1592 -0.1553
  103loPI   C6A 1644   4.826   1.599   9.024 -0.0969 -0.1926 -0.1976
  103loPI   C1B 1645   4.228   1.830  11.046  0.0300  0.2279  0.0331
  103loPI   C2B 1646   4.142   1.930  10.646 -0.0167  0.0376 -0.2316
  103loPI   C3B 1647   4.130   1.953  10.284 -0.0557 -0.1858 -0.2171
  103loPI   C4B 1648   4.119   1.945   9.842 -0.0121 -0.1420 -0.3440
  104loPI    C1 1649   0.676   2.286  11.826 -0.0544 -0.2276  0.0685
  104loPI    C2 1650   0.787   2.450  12.174  0.0962  0.0434 -0.1042
  104loPI    C3 1651   0.477   2.198  12.162  0.1727 -0.0725  0.2473
  104loPI   PO4 1652   0.923   2.167  11.698 -0.1627 -0.0512 -0.1123
  104loPI   GL1 1653   0.959   1.885  11.228  0.0494 -0.3144 -0.0718
  104loPI   GL2 1654   0.826   1.621  11.096  0.0875  0.0610 -0.1793
  104loPI   C1A 1655   1.302   1.925  10.896  0.0700  0.2164 -0.3232
  104loPI   C2A 1656   1.250   1.877  10.594 -0.2624  0.3449  0.0372
  104loPI   C3A 1657   1.296   1.957  10.171 -0.0767  0.1308 -0.0694
  104loPI   C4A 1658   1.481   1.888   9.811 -0.0741  0.1778  0.1225
  104loPI   C5A 1659   1.321   1.815   9.406 -0.1273 -0.0165 -0.1075
  104loPI   C6A 1660   1.071   1.669   9.156 -0.1532  0.0172  0.4549
  104loPI   C1B 1661   0.861   1.628  10.635  0.1038  0.0807 -0.0264
  104loPI   C2B 1662   0.897   1.702  10.236  0.0881 -0.0954  0.0951
  104loPI   C3B 1663   0.782   1.666   9.902 -0.3113 -0.0598 -0.0415
  104loPI   C4B 1664   0.555   1.842   9.495 -0.3320 -0.0027 -0.1323
  105loPI    C1 1665  12.418  14.692  11.588 -0.1218  0.0470 -0.0606
  105loPI    C2 1666  12.542  15.035  11.753  0.0105  0.0182 -0.0993
  105loPI    C3 1667  12.472  14.716  11.984 -0.1537  0.0827 -0.0583
  105loPI   PO4 1668  12.551  14.624  11.466 -0.1775 -0.0385  0.0019
  105loPI   GL1 1669  12.607  14.533  11.032  0.0864 -0.0242  0.2125
  105loPI   GL2 1670  12.574  14.835  10.955 -0.0701  0.0251  0.0429
  105loPI   C1A 1671  12.593  14.359  10.604 -0.1400 -0.3087  0.0739
  105loPI   C2A 1672  12.681  14.326  10.213 -0.2519 -0.0078 -0.2775
  105loPI   C3A 1673  12.749  14.435   9.819  0.3058 -0.2722  0.2813
  105loPI   C4A 1674  12.685  14.271   9.437 -0.0173  0.0050 -0.1265
  105loPI   C5A 1675  12.765  14.381   8.995 -0.1448  0.1282  0.0613
  105loPI   C6A 1676  12.576  14.485   8.628  0.0222  0.2779  0.1143
  105loPI   C1B 1677  12.701  14.836  10.539 -0.0183 -0.0873 -0.1426
  105loPI   C2B 1678  12.783  14.875  10.111  0.0471 -0.2137 -0.0339
  105loPI   C3B 1679  12.911  14.916   9.694  0.2496  0.2006 -0.3116
  105loPI   C4B 1680  12.716  14.783   9.333  0.2447  0.1302 -0.1924
  106loPI    C1 1681   7.241  14.165  11.643 -0.0892  0.0771 -0.0950
  106loPI    C2 1682   7.271  14.018  12.014 -0.0341  0.1381 -0.0751
  106loPI    C3 1683   6.970  14.264  11.920  0.0329  0.2377 -0.0313
  106loPI   PO4 1684   7.310  13.914  11.475  0.0833  0.3869  0.1529
  106loPI   GL1 1685   7.523  13.900  11.137  0.1663  0.0613 -0.1950
  106loPI   GL2 1686   7.700  13.742  11.024 -0.0148  0.1555  0.1130
  106loPI   C1A 1687   7.349  14.000  10.737  0.2375  0.0126 -0.3841
  106loPI   C2A 1688   7.424  14.327  10.467 -0.0915 -0.0312 -0.2655
  106loPI   C3A 1689   7.431  14.260  10.000 -0.1135 -0.2417 -0.0592
  106loPI   C4A 1690   7.415  14.111   9.677 -0.1916 -0.1452 -0.2566
  106loPI   C5A 1691   7.400  14.202   9.283 -0.1190 -0.1631 -0.1983
  106loPI   C6A 1692   7.274  14.376   8.918 -0.0125  0.0713 -0.0540
  106loPI   C1B 1693   7.824  13.705  10.560 -0.2714 -0.0087 -0.0407
  106loPI   C2B 1694   7.652  13.853  10.346  0.2702 -0.1728  0.0886
  106loPI   C3B 1695   7.678  13.764   9.951  0.0136  0.0779  0.2755
  106loPI   C4B 1696   7.787  13.753   9.531  0.2104 -0.0369  0.2816
  107loPI    C1 1697   8.722   1.373  11.316  0.1324 -0.0128 -0.0712
  107loPI    C2 1698   8.740   1.090  11.599 -0.0174  0.0651  0.0173
  107loPI    C3 1699   8.466   1.381  11.624  0.1928  0.2689 -0.0261
  107loPI   PO4 1700   8.648   1.339  11.126  0.2726 -0.0014  0.0089
  107loPI   GL1 1701   8.956   1.227  10.906 -0.1507 -0.2506 -0.1403
  107loPI   GL2 1702   9.251   1.384  10.816  0.1502 -0.0024  0.1068
  107loPI   C1A 1703   8.580   1.069  10.552  0.0464 -0.0056 -0.3091
  107loPI   C2A 1704   8.374   1.207  10.155  0.1755  0.1447  0.0314
  107loPI   C3A 1705   8.346   1.367   9.760  0.0251  0.0001  0.2868
  107loPI   C4A 1706   8.183   1.470   9.376 -0.2368 -0.2613 -0.1629
  107loPI   C5A 1707   8.002   1.741   9.051 -0.1816 -0.0364 -0.0208
  107loPI   C6A 1708   7.648   1.699   8.938  0.2860  0.1228 -0.1647
  107loPI   C1B 1709   8.925   1.421  10.406 -0.2972  0.0017 -0.0219
  107loPI   C2B 1710   8.769   1.547   9.985 -0.0370 -0.0037  0.0774
  107loPI   C3B 1711   8.814   1.646   9.579 -0.2713 -0.0191 -0.0140
  107loPI   C4B 1712   8.708   1.725   9.115 -0.0805 -0.0204  0.0721
  108loPI    C1 1713  16.220  13.524  11.728 -0.1669  0.1409  0.0075
  108loPI    C2 1714  16.373  13.275  12.001  0.0519  0.0962 -0.1539
  108loPI    C3 1715  16.370  13.669  12.070 -0.2134  0.0590  0.0629
  108loPI   PO4 1716  16.278  13.340  11.486  0.0192 -0.2366 -0.0483
  108loPI   GL1 1717  16.090  13.276  11.161 -0.1660  0.6100 -0.1685
  108loPI   GL2 1718  15.832  13.407  11.143  0.1298 -0.1543 -0.1207
  108loPI   C1A 1719  16.218  13.114  10.694  0.0258  0.2424  0.1484
  108loPI   C2A 1720  16.257  13.266  10.312  0.0101  0.0589 -0.1775
  108loPI   C3A 1721  16.176  13.262   9.807 -0.3754 -0.1732 -0.2323
  108loPI   C4A 1722  16.218  13.416   9.361 -0.0461 -0.1977  0.1601
  108loPI   C5A 1723  16.278  13.816   9.188  0.0946  0.1719 -0.1555
  108loPI   C6A 1724  16.376  14.199   9.314  0.2255  0.4330 -0.0277
  108loPI   C1B 1725  15.890  13.516  10.718  0.0167 -0.0870 -0.2211
  108loPI   C2B 1726  15.769  13.624  10.389 -0.2779  0.1784  0.0752
  108loPI   C3B 1727  15.871  13.571  10.059  0.2103  0.0872 -0.1527
  108loPI   C4B 1728  15.760  13.593   9.659  0.2941  0.3516 -0.2926
  109loPI    C1 1729   2.144  10.102  11.884 -0.3326  0.1124 -0.0098
  109loPI    C2 1730   1.889  10.265  12.146  0.1626  0.3884  0.3186
  109loPI    C3 1731   2.279  10.250  12.230  0.2569 -0.0834 -0.1445
  109loPI   PO4 1732   2.099  10.202  11.644  0.3530 -0.2788 -0.0646
  109loPI   GL1 1733   1.839  10.041  11.340  0.0991 -0.1773 -0.1885
  109loPI   GL2 1734   1.505  10.056  11.355  0.3681 -0.0887 -0.0448
  109loPI   C1A 1735   1.819  10.320  10.968  0.1665 -0.0681 -0.0691
  109loPI   C2A 1736   1.767  10.317  10.563  0.0877  0.1671  0.0963
  109loPI   C3A 1737   1.763  10.350  10.167  0.1336  0.1887  0.0102
  109loPI   C4A 1738   1.737  10.472   9.777 -0.2903  0.1305  0.0407
  109loPI   C5A 1739   1.746  10.558   9.299 -0.0759 -0.0825  0.1046
  109loPI   C6A 1740   1.937  10.795   9.106  0.0494  0.2737  0.0659
  109loPI   C1B 1741   1.314  10.033  10.940 -0.1972 -0.1677  0.0151
  109loPI   C2B 1742   1.263  10.160  10.557 -0.1159 -0.0099 -0.3668
  109loPI   C3B 1743   1.310  10.201  10.062 -0.2472 -0.1916 -0.0696
  109loPI   C4B 1744   1.246  10.217   9.622 -0.1321 -0.1042  0.0279
  110loPI    C1 1745   4.740   9.172  11.426  0.1703 -0.0634 -0.1555
  110loPI    C2 1746   4.715   8.826  11.626 -0.0219 -0.1217 -0.2781
  110loPI    C3 1747   5.048   9.046  11.649 -0.1051 -0.0377  0.2499
  110loPI   PO4 1748   4.611   9.054  11.173  0.0541  0.0222  0.1504
  110loPI   GL1 1749   4.556   8.949  10.756 -0.0829  0.2303  0.2625
  110loPI   GL2 1750   4.262   8.860  10.563  0.0577 -0.2496  0.2558
  110loPI   C1A 1751   4.636   9.070  10.395 -0.1280  0.1538  0.0122
  110loPI   C2A 1752   4.812   9.030   9.941 -0.1049 -0.1525 -0.0878
  110loPI   C3A 1753   5.036   9.033   9.529 -0.1537 -0.1910  0.1088
  110loPI   C4A 1754   5.104   9.235   9.242  0.0467  0.0606 -0.0863
  110loPI   C5A 1755   5.117   9.392   8.824 -0.1992  0.3827 -0.0381
  110loPI   C6A 1756   5.354   9.781   8.667  0.0040 -0.1159  0.1201
  110loPI   C1B 1757   4.355   8.848  10.094 -0.0224 -0.0529  0.1245
  110loPI   C2B 1758   4.467   8.682   9.658  0.2162  0.2708 -0.0480
  110loPI   C3B 1759   4.406   8.558   9.219 -0.1179  0.1399 -0.1234
  110loPI   C4B 1760   4.429   8.674   8.808  0.2983  0.0344 -0.1370
  111loPI    C1 1761  10.235  11.868  11.633 -0.1017  0.1053  0.0342
  111loPI    C2 1762  10.367  11.600  11.900  0.2182  0.0293 -0.1949
  111loPI    C3 1763  10.628  11.807  11.678 -0.0393  0.2229 -0.3224
  111loPI   PO4 1764  10.141  11.785  11.454 -0.0605  0.0092  0.0482
  111loPI   GL1 1765   9.958  11.709  11.122  0.0741  0.1114  0.1555
  111loPI   GL2 1766  10.287  11.545  11.012 -0.0719 -0.0652 -0.0287
  111loPI   C1A 1767   9.870  11.837  10.667  0.1374  0.2424 -0.0885
  111loPI   C2A 1768   9.741  12.035  10.239 -0.2485  0.1713  0.1555
  111loPI   C3A 1769   9.644  11.968   9.812  0.5612 -0.1316  0.1561
  111loPI   C4A 1770   9.666  11.961   9.465 -0.1196 -0.1436 -0.2276
  111loPI   C5A 1771   9.685  11.766   9.077 -0.2049  0.1718 -0.2895
  111loPI   C6A 1772   9.799  11.429   8.842  0.0735  0.1214 -0.1412
  111loPI   C1B 1773  10.262  11.505  10.609  0.2283  0.0233  0.0461
  111loPI   C2B 1774  10.100  11.568  10.117 -0.1070  0.2794 -0.0501
  111loPI   C3B 1775  10.081  11.646   9.738 -0.2879  0.0196  0.2979
  111loPI   C4B 1776  10.105  11.588   9.319 -0.0972  0.2956  0.0375
  112loPI    C1 1777  14.110  15.516  12.075  0.0015  0.1070 -0.0473
  112loPI    C2 1778  13.820  15.566  12.346 -0.0657 -0.2051 -0.0574
  112loPI    C3 1779  14.184  15.718  12.413 -0.1238 -0.1470  0.1361
  112loPI   PO4 1780  14.067  15.620  11.876 -0.1619  0.2647  0.1327
  112loPI   GL1 1781  14.195  15.635  11.416  0.2032 -0.1880  0.2240
  112loPI   GL2 1782  14.559  15.528  11.385  0.0597  0.1658  0.1150
  112loPI   C1A 1783  14.247  15.530  10.970 -0.1004  0.2092  0.1307
  112loPI   C2A 1784  14.287  15.534  10.542  0.0969 -0.0274 -0.0257
  112loPI   C3A 1785  14.312  15.433  10.060  0.0155 -0.3222 -0.1027
  112loPI   C4A 1786  14.334  15.350   9.621  0.3114 -0.0624  0.2419
  112loPI   C5A 1787  14.580  15.411   9.250 -0.0882 -0.2322 -0.1523
  112loPI   C6A 1788  14.799  15.539   8.802  0.0129 -0.1527  0.1778
  112loPI   C1B 1789  14.822  15.578  11.011  0.3734  0.0650  0.0137
  112loPI   C2B 1790  14.754  15.594  10.592  0.2016 -0.1908  0.0751
  112loPI   C3B 1791  14.835  15.657  10.148 -0.0789  0.0776 -0.0208
  112loPI   C4B 1792  14.839  15.634   9.701  0.1053 -0.0604  0.2245
  113loPI    C1 1793   3.980  10.800  11.611  0.2659 -0.1089  0.0825
  113loPI    C2 1794   3.708  11.051  11.763  0.1800 -0.3293  0.3012
  113loPI    C3 1795   4.094  11.092  11.860  0.2070 -0.1088  0.1095
  113loPI   PO4 1796   3.824  10.639  11.465  0.1769 -0.2867 -0.2745
  113loPI   GL1 1797   3.934  10.474  11.119 -0.2084  0.1311  0.0080
  113loPI   GL2 1798   4.236  10.357  10.980 -0.1201 -0.2622  0.0032
  113loPI   C1A 1799   3.658  10.608  10.809 -0.3300 -0.1545 -0.0422
  113loPI   C2A 1800   3.607  10.624  10.405  0.0650 -0.0406 -0.0993
  113loPI   C3A 1801   3.711  10.645  10.070  0.0629  0.1341 -0.0220
  113loPI   C4A 1802   3.674  10.609   9.721  0.2151  0.0703  0.1114
  113loPI   C5A 1803   3.666  10.819   9.262  0.1800  0.1851  0.1816
  113loPI   C6A 1804   3.306  10.880   9.042  0.0564 -0.0504 -0.0004
  113loPI   C1B 1805   4.470  10.476  10.571 -0.0733  0.2058 -0.2529
  113loPI   C2B 1806   4.646  10.509  10.168  0.0398 -0.0068 -0.0805
  113loPI   C3B 1807   4.593  10.573   9.781  0.0685 -0.0328 -0.3117
  113loPI   C4B 1808   4.564  10.553   9.328 -0.1874  0.0513 -0.1360
  114loPI    C1 1809  12.635   5.110  11.787  0.0912  0.0575 -0.1984
  114loPI    C2 1810  12.347   4.971  12.027  0.1977  0.1216 -0.0316
  114loPI    C3 1811  12.375   5.363  11.955  0.2108  0.1099 -0.0912
  114loPI   PO4 1812  12.817   4.931  11.808 -0.2603  0.0648  0.1377
  114loPI   GL1 1813  12.885   4.817  11.367  0.0174  0.2524  0.0461
  114loPI   GL2 1814  12.960   4.505  11.289  0.0352 -0.0682  0.0267
  114loPI   C1A 1815  12.571   4.941  10.915  0.1132  0.0007 -0.1827
  114loPI   C2A 1816  12.571   4.979  10.530  0.0836 -0.2380  0.1065
  114loPI   C3A 1817  12.587   4.909  10.116 -0.0692 -0.1266  0.0130
  114loPI   C4A 1818  12.629   4.922   9.718 -0.1682  0.0488  0.2191
  114loPI   C5A 1819  12.671   4.888   9.285 -0.3707 -0.3642 -0.0626
  114loPI   C6A 1820  12.761   5.202   9.023 -0.2275  0.1483 -0.2757
  114loPI   C1B 1821  12.933   4.643  10.873  0.1009 -0.1665  0.2584
  114loPI   C2B 1822  12.993   4.650  10.456 -0.0160  0.1630 -0.0789
  114loPI   C3B 1823  13.046   4.649  10.008  0.1245  0.0638 -0.0357
  114loPI   C4B 1824  13.083   4.580   9.543 -0.4789 -0.1039  0.2459
  115loPI    C1 1825  13.768   9.968  11.490 -0.2664 -0.0184 -0.0564
  115loPI    C2 1826  13.965   9.623  11.539  0.0030  0.1002 -0.2760
  115loPI    C3 1827  13.936   9.882  11.843 -0.0838 -0.0546 -0.1508
  115loPI   PO4 1828  13.865  10.009  11.233  0.0827 -0.1714  0.1854
  115loPI   GL1 1829  13.741   9.947  10.844  0.0806  0.5105  0.0218
  115loPI   GL2 1830  13.493  10.108  10.900 -0.0598  0.0473 -0.1006
  115loPI   C1A 1831  13.841   9.944  10.494 -0.1172  0.2278 -0.1935
  115loPI   C2A 1832  13.866   9.957  10.022 -0.1727 -0.0089 -0.1808
  115loPI   C3A 1833  13.908   9.897   9.627  0.0498 -0.0818  0.2316
  115loPI   C4A 1834  13.954   9.690   9.200 -0.0742 -0.1688  0.0594
  115loPI   C5A 1835  14.033   9.485   8.746 -0.0616  0.1490 -0.3506
  115loPI   C6A 1836  14.173   9.095   8.510 -0.1253 -0.0190 -0.1034
  115loPI   C1B 1837  13.452  10.232  10.495  0.1495 -0.0872 -0.2032
  115loPI   C2B 1838  13.451  10.282  10.027 -0.0524  0.0416  0.1943
  115loPI   C3B 1839  13.521  10.167   9.604  0.1328 -0.2430 -0.3542
  115loPI   C4B 1840  13.559   9.985   9.209  0.2590  0.2172 -0.0490
  116loPI    C1 1841  10.636  10.825  11.562  0.0621 -0.0765 -0.0944
  116loPI    C2 1842  10.985  10.740  11.737 -0.0719 -0.0650  0.1843
  116loPI    C3 1843  10.681  10.881  11.955 -0.2427 -0.0470 -0.0608
  116loPI   PO4 1844  10.670  10.913  11.378  0.1796 -0.2055 -0.3301
  116loPI   GL1 1845  10.645  11.172  11.043 -0.0507  0.0381  0.0476
  116loPI   GL2 1846  10.820  11.426  11.237  0.1311 -0.0319  0.0786
  116loPI   C1A 1847  10.652  11.198  10.561 -0.1355  0.0517  0.0527
  116loPI   C2A 1848  10.566  11.279  10.143  0.1120 -0.3419 -0.1622
  116loPI   C3A 1849  10.486  11.309   9.775  0.0603  0.0536 -0.2933
  116loPI   C4A 1850  10.521  11.310   9.263  0.0549  0.4546  0.1187
  116loPI   C5A 1851  10.677  11.545   8.957 -0.0982 -0.2010 -0.0356
  116loPI   C6A 1852  11.000  11.497   8.717  0.1256  0.0940 -0.2296
  116loPI   C1B 1853  10.684  11.727  10.786  0.2144  0.0559  0.1472
  116loPI   C2B 1854  10.687  11.777  10.422  0.1725  0.4882  0.3743
  116loPI   C3B 1855  10.603  11.904   9.936 -0.2901  0.2089  0.3151
  116loPI   C4B 1856  10.524  11.780   9.544  0.0841  0.0433  0.0244
  117loPI    C1 1857   2.824  12.064  11.690  0.1050 -0.2076 -0.0015
  117loPI    C2 1858   2.804  11.899  12.053 -0.0182  0.0395  0.1064
  117loPI    C3 1859   2.508  11.841  11.790 -0.0689  0.1002  0.1500
  117loPI   PO4 1860   3.086  12.065  11.687  0.0302  0.0032 -0.0339
  117loPI   GL1 1861   3.318  11.940  11.338  0.1431  0.2320  0.1366
  117loPI   GL2 1862   3.046  11.788  11.249  0.0484 -0.0867 -0.3278
  117loPI   C1A 1863   3.438  11.848  10.892 -0.1430 -0.1622  0.0266
  117loPI   C2A 1864   3.547  11.840  10.447 -0.1378  0.1709  0.3631
  117loPI   C3A 1865   3.377  11.934  10.069 -0.0851  0.0369  0.0505
  117loPI   C4A 1866   3.371  12.033   9.652  0.2893 -0.1393  0.1788
  117loPI   C5A 1867   3.281  11.966   9.190 -0.2955  0.2805 -0.0370
  117loPI   C6A 1868   3.149  11.688   8.880  0.1289  0.0432 -0.0665
  117loPI   C1B 1869   2.908  11.666  10.822 -0.1156  0.0693 -0.2580
  117loPI   C2B 1870   2.887  11.674  10.450 -0.0378  0.0927 -0.0866
  117loPI   C3B 1871   2.873  11.846  10.003  0.1236 -0.1756  0.1527
  117loPI   C4B 1872   2.869  11.760   9.544  0.3043 -0.0724  0.3608
  118loPI    C1 1873   6.325   6.286  11.947  0.0135  0.0256  0.0102
  118loPI    C2 1874   5.946   6.158  11.949  0.0820 -0.1858 -0.1280
  118loPI    C3 1875   6.196   6.044  12.239  0.0589 -0.1028 -0.0750
  118loPI   PO4 1876   6.371   6.182  11.618 -0.0768 -0.1677  0.0195
  118loPI   GL1 1877   6.241   6.080  11.145 -0.0265  0.2373 -0.0223
  118loPI   GL2 1878   6.544   6.251  11.120 -0.1775  0.2959  0.0041
  118loPI   C1A 1879   6.148   6.071  10.688 -0.2545 -0.2467 -0.2194
  118loPI   C2A 1880   6.249   6.048  10.297 -0.0299  0.0961 -0.1114
  118loPI   C3A 1881   6.265   5.993   9.901 -0.0385 -0.1014  0.0218
  118loPI   C4A 1882   6.403   6.051   9.457 -0.1589 -0.3712  0.2340
  118loPI   C5A 1883   6.306   6.081   8.918 -0.0502  0.3101 -0.4694
  118loPI   C6A 1884   5.947   5.921   8.773 -0.0029  0.1249 -0.1980
  118loPI   C1B 1885   6.720   6.278  10.759  0.0824 -0.1128  0.4242
  118loPI   C2B 1886   6.733   6.320  10.359  0.2277  0.2985  0.4274
  118loPI   C3B 1887   6.712   6.265   9.916  0.0319 -0.2903  0.1770
  118loPI   C4B 1888   6.885   6.180   9.338  0.1782 -0.1363  0.1201
  119loPI    C1 1889  15.208  11.322  11.366 -0.0427 -0.0035  0.0887
  119loPI    C2 1890  15.043  11.234  11.719 -0.0691 -0.0690  0.0602
  119loPI    C3 1891  14.948  11.575  11.534 -0.2826 -0.1716 -0.0233
  119loPI   PO4 1892  15.460  11.276  11.396 -0.1686 -0.0755 -0.1622
  119loPI   GL1 1893  15.887  11.375  11.175  0.0290 -0.3666 -0.1398
  119loPI   GL2 1894  16.138  11.570  10.978 -0.0913 -0.1436  0.0821
  119loPI   C1A 1895  15.940  11.171  10.854  0.0342 -0.1025  0.1414
  119loPI   C2A 1896  15.997  11.209  10.348 -0.0153 -0.2965 -0.2371
  119loPI   C3A 1897  15.934  11.145   9.925  0.1257 -0.2583  0.0172
  119loPI   C4A 1898  15.805  11.335   9.505 -0.1002 -0.0523 -0.1591
  119loPI   C5A 1899  15.695  11.168   9.058  0.0139  0.4551 -0.1222
  119loPI   C6A 1900  15.573  10.922   8.731 -0.0025 -0.0411  0.1132
  119loPI   C1B 1901  16.057  11.718  10.585  0.1535  0.1995 -0.1286
  119loPI   C2B 1902  15.996  11.719  10.199 -0.0373 -0.1541  0.0561
  119loPI   C3B 1903  15.889  11.689   9.862 -0.1604 -0.0701  0.0347
  119loPI   C4B 1904  15.938  11.821   9.521  0.3642 -0.1047  0.0414
  120loPI    C1 1905   9.822  13.181  11.445 -0.0337  0.0008 -0.0945
  120loPI    C2 1906  10.024  12.925  11.677  0.1206  0.0970 -0.1213
  120loPI    C3 1907  10.049  13.319  11.744 -0.0971  0.1075 -0.0954
  120loPI   PO4 1908   9.858  13.141  11.255 -0.0492 -0.0087  0.1221
  120loPI   GL1 1909  10.086  13.049  11.016  0.1200  0.2484  0.0871
  120loPI   GL2 1910  10.379  13.272  10.913 -0.0380 -0.3042 -0.1329
  120loPI   C1A 1911  10.041  13.065  10.628 -0.0368  0.1143  0.0457
  120loPI   C2A 1912  10.029  13.017  10.241  0.0407 -0.0386  0.0286
  120loPI   C3A 1913   9.898  12.954   9.853 -0.0979 -0.2127  0.2920
  120loPI   C4A 1914   9.957  13.006   9.465  0.0175 -0.2850 -0.0645
  120loPI   C5A 1915  10.079  13.064   9.100 -0.0366 -0.0614  0.1047
  120loPI   C6A 1916   9.945  13.435   8.888  0.1027  0.2867 -0.0845
  120loPI   C1B 1917  10.549  13.134  10.613  0.1098  0.1127 -0.2641
  120loPI   C2B 1918  10.530  13.168  10.158 -0.0576  0.3029  0.3751
  120loPI   C3B 1919  10.426  13.232   9.736  0.0062 -0.0427 -0.0397
  120loPI   C4B 1920  10.502  13.078   9.354  0.1110  0.2612  0.1152
  121loPI    C1 1921   8.887  12.626  11.640 -0.1476 -0.0813 -0.1507
  121loPI    C2 1922   8.525  12.509  11.764 -0.1079 -0.0211  0.0257
  121loPI    C3 1923   8.842  12.466  12.004 -0.0235  0.0678 -0.0688
  121loPI   PO4 1924   8.864  12.521  11.368  0.2327 -0.0066 -0.0424
  121loPI   GL1 1925   8.760  12.269  11.086 -0.2220  0.0557 -0.0461
  121loPI   GL2 1926   9.085  12.160  10.903  0.1377  0.2475 -0.0602
  121loPI   C1A 1927   8.442  12.044  10.707  0.0210 -0.1919  0.1150
  121loPI   C2A 1928   8.405  12.040  10.307 -0.0247  0.1935 -0.0975
  121loPI   C3A 1929   8.380  11.942   9.885 -0.2812 -0.1387 -0.0004
  121loPI   C4A 1930   8.226  12.015   9.492 -0.1936  0.1024 -0.5435
  121loPI   C5A 1931   8.346  12.052   9.050  0.0935  0.3333  0.1944
  121loPI   C6A 1932   8.182  12.142   8.693  0.1658  0.1285  0.4773
  121loPI   C1B 1933   8.961  12.137  10.474  0.0319 -0.3190  0.3387
  121loPI   C2B 1934   8.820  12.161  10.071 -0.2133  0.0730  0.0321
  121loPI   C3B 1935   8.877  12.148   9.556 -0.0582 -0.0253 -0.1063
  121loPI   C4B 1936   8.842  12.144   9.096 -0.2090 -0.4139  0.0972
  122loPI    C1 1937   5.296  15.213  11.660  0.0320  0.1044  0.1494
  122loPI    C2 1938   5.418  15.550  11.838  0.0787  0.0588  0.2039
  122loPI    C3 1939   5.090  15.360  11.969  0.0551  0.0804  0.1763
  122loPI   PO4 1940   5.312  15.277  11.377 -0.0343  0.0515 -0.0085
  122loPI   GL1 1941   5.101  15.522  10.991 -0.2447 -0.0425 -0.0227
  122loPI   GL2 1942   5.283  15.164  10.911 -0.2923  0.1578  0.0487
  122loPI   C1A 1943   4.823  15.584  10.692 -0.2158 -0.1661  0.2554
  122loPI   C2A 1944   4.893  15.507  10.256  0.0593 -0.1258  0.2182
  122loPI   C3A 1945   4.827  15.484   9.845  0.2702 -0.1029 -0.0481
  122loPI   C4A 1946   4.732  15.390   9.471  0.0206  0.0359 -0.1102
  122loPI   C5A 1947   4.687  14.953   9.187  0.0134 -0.2856 -0.1909
  122loPI   C6A 1948   4.647  14.627   8.836 -0.0179 -0.0715  0.0305
  122loPI   C1B 1949   5.356  15.194  10.484  0.1353 -0.2098 -0.0291
  122loPI   C2B 1950   5.299  15.223   9.989  0.0426  0.2230  0.0095
  122loPI   C3B 1951   5.214  15.140   9.702 -0.1793  0.2153  0.2223
  122loPI   C4B 1952   5.211  15.118   9.376 -0.0611  0.0419  0.0519
  123loPI    C1 1953   9.550   9.995  11.614  0.1515  0.2108  0.0268
  123loPI    C2 1954   9.515  10.173  11.971  0.3348 -0.0305  0.1677
  123loPI    C3 1955   9.658   9.799  11.946 -0.1935 -0.2238 -0.1082
  123loPI   PO4 1956   9.493  10.221  11.476 -0.0772 -0.0208 -0.3469
  123loPI   GL1 1957   9.525  10.275  11.043 -0.0912  0.1551 -0.2627
  123loPI   GL2 1958   9.290  10.413  10.814 -0.2788 -0.1368 -0.0477
  123loPI   C1A 1959   9.730  10.174  10.639  0.3029  0.2831  0.3147
  123loPI   C2A 1960   9.818  10.284  10.182  0.3653  0.1898  0.0032
  123loPI   C3A 1961   9.791  10.099   9.704 -0.1638  0.1730  0.0129
  123loPI   C4A 1962   9.860  10.145   9.279  0.1962 -0.0887 -0.0254
  123loPI   C5A 1963   9.706  10.257   8.840 -0.0322  0.0012 -0.1802
  123loPI   C6A 1964   9.641  10.451   8.506  0.0097  0.2415 -0.2320
  123loPI   C1B 1965   9.456  10.555  10.413  0.0883 -0.4021 -0.0524
  123loPI   C2B 1966   9.424  10.532   9.962 -0.1541  0.0611  0.1083
  123loPI   C3B 1967   9.413  10.526   9.504 -0.2690 -0.0081 -0.2265
  123loPI   C4B 1968   9.355  10.531   9.030 -0.1927 -0.2456 -0.1204
  124loPI    C1 1969   8.011   9.529  11.525 -0.0338  0.0303  0.0447
  124loPI    C2 1970   8.266   9.432  11.818  0.0084  0.0486  0.0142
  124loPI    C3 1971   8.074   9.783  11.827  0.0681  0.0824 -0.0195
  124loPI   PO4 1972   8.113   9.412  11.309 -0.3879 -0.1077  0.2992
  124loPI   GL1 1973   7.907   9.203  10.963 -0.0338 -0.2270  0.2056
  124loPI   GL2 1974   8.196   9.164  10.874 -0.0370 -0.3033  0.1390
  124loPI   C1A 1975   7.772   9.431  10.702 -0.1311  0.1425  0.4658
  124loPI   C2A 1976   7.913   9.386  10.306  0.0450  0.4624 -0.0394
  124loPI   C3A 1977   7.876   9.434   9.828 -0.2243 -0.0747  0.0036
  124loPI   C4A 1978   7.883   9.434   9.466  0.0156 -0.0735  0.2701
  124loPI   C5A 1979   7.689   9.452   9.094 -0.2977 -0.1543 -0.1156
  124loPI   C6A 1980   7.272   9.224   8.952  0.3478  0.0096 -0.0493
  124loPI   C1B 1981   8.294   9.073  10.429  0.0869  0.3459  0.1403
  124loPI   C2B 1982   8.253   9.032  10.020  0.1117  0.2166 -0.2853
  124loPI   C3B 1983   8.212   9.095   9.557  0.0211 -0.0807 -0.2380
  124loPI   C4B 1984   8.104   9.048   9.151 -0.0723  0.0326 -0.0616
  125loPI    C1 1985   9.492  12.926  11.609  0.1431  0.2253 -0.1548
  125loPI    C2 1986   9.157  12.984  11.819  0.1069  0.0847 -0.1728
  125loPI    C3 1987   9.412  13.286  11.763  0.2846  0.0449  0.3631
  125loPI   PO4 1988   9.369  12.748  11.397  0.0235 -0.0333  0.0663
  125loPI   GL1 1989   9.289  12.635  10.978 -0.0662  0.2814 -0.0885
  125loPI   GL2 1990   9.586  12.934  10.839  0.2291  0.0038  0.5930
  125loPI   C1A 1991   8.973  12.607  10.694 -0.2499  0.2243  0.5598
  125loPI   C2A 1992   8.954  12.677  10.254  0.0107  0.1453 -0.1553
  125loPI   C3A 1993   8.906  12.678   9.852  0.0069 -0.1157  0.0094
  125loPI   C4A 1994   8.930  12.657   9.449  0.0992  0.0758  0.2404
  125loPI   C5A 1995   9.139  12.549   9.033 -0.0492  0.0330 -0.1178
  125loPI   C6A 1996   9.421  12.179   8.966  0.0585  0.1198  0.1014
  125loPI   C1B 1997   9.461  12.806  10.439 -0.1334 -0.1178 -0.1470
  125loPI   C2B 1998   9.434  12.808  10.028 -0.2824  0.0840 -0.1585
  125loPI   C3B 1999   9.515  12.847   9.608 -0.0676 -0.0512 -0.1510
  125loPI   C4B 2000   9.587  12.857   9.136 -0.2116 -0.0183 -0.1234
  126loPI    C1 2001   3.752  13.920  11.752 -0.1694 -0.2045  0.0693
  126loPI    C2 2002   3.749  13.536  11.864 -0.0389 -0.1336  0.3244
  126loPI    C3 2003   4.085  13.750  11.895 -0.0548 -0.0542 -0.0156
  126loPI   PO4 2004   3.559  13.869  11.481  0.3797  0.0054 -0.2808
  126loPI   GL1 2005   3.380  13.596  11.089 -0.3014 -0.2372  0.1456
  126loPI   GL2 2006   3.724  13.619  11.076  0.0499 -0.0817 -0.1571
  126loPI   C1A 2007   3.637  13.527  10.625  0.0223 -0.3401  0.0615
  126loPI   C2A 2008   3.706  13.666  10.121 -0.1785  0.2218 -0.1192
  126loPI   C3A 2009   3.579  13.574   9.691  0.0044  0.1031 -0.2431
  126loPI   C4A 2010   3.664  13.508   9.232  0.1060  0.0441 -0.0232
  126loPI   C5A 2011   3.370  13.309   8.918 -0.1650 -0.2450  0.3626
  126loPI   C6A 2012   3.293  12.887   8.778 -0.0738 -0.0458 -0.4946
  126loPI   C1B 2013   4.094  13.708  10.808  0.3372 -0.1553  0.1058
  126loPI   C2B 2014   4.156  13.745  10.391 -0.0586  0.1211 -0.2160
  126loPI   C3B 2015   4.220  13.694   9.899 -0.0131  0.1812 -0.0297
  126loPI   C4B 2016   4.027  13.694   9.528  0.0630 -0.0290 -0.0744
  127loPI    C1 2017  13.022   7.439  11.507 -0.0259 -0.2355 -0.1583
  127loPI    C2 2018  12.654   7.587  11.455  0.0625  0.1210  0.1845
  127loPI    C3 2019  12.732   7.351  11.769  0.1372  0.0830  0.1373
  127loPI   PO4 2020  13.043   7.308  11.291 -0.3653 -0.2127 -0.0595
  127loPI   GL1 2021  13.091   7.222  10.984 -0.1030  0.1752 -0.2617
  127loPI   GL2 2022  13.404   7.247  10.897  0.0780  0.0891 -0.3292
  127loPI   C1A 2023  12.910   7.051  10.630  0.1766  0.0222  0.0756
  127loPI   C2A 2024  12.834   6.966  10.219  0.0847 -0.1521 -0.0701
  127loPI   C3A 2025  12.953   6.897   9.797 -0.0357 -0.1978 -0.1023
  127loPI   C4A 2026  12.890   7.015   9.429 -0.1718  0.0315  0.0694
  127loPI   C5A 2027  13.018   7.123   8.968 -0.2100 -0.0703 -0.2382
  127loPI   C6A 2028  13.004   7.453   8.649  0.4534  0.0208 -0.0743
  127loPI   C1B 2029  13.331   7.109  10.454  0.1159 -0.0791 -0.4150
  127loPI   C2B 2030  13.450   7.062  10.018 -0.2479  0.0977 -0.0299
  127loPI   C3B 2031  13.390   7.035   9.501 -0.1477  0.2308 -0.0020
  127loPI   C4B 2032  13.300   6.702   9.082  0.1313 -0.2605 -0.3594
  128loPI    C1 2033   1.995  15.157  11.901  0.0694 -0.2107 -0.0857
  128loPI    C2 2034   1.855  14.962  12.221  0.0667 -0.0152  0.0339
  128loPI    C3 2035   2.010  15.328  12.262  0.2219 -0.0567 -0.1638
  128loPI   PO4 2036   1.765  15.061  11.703  0.4107  0.1961 -0.2738
  128loPI   GL1 2037   1.557  14.862  11.318 -0.0839  0.0628 -0.2097
  128loPI   GL2 2038   1.903  14.896  11.175  0.1811 -0.2206 -0.2617
  128loPI   C1A 2039   1.626  15.170  10.866  0.0929 -0.0935 -0.1444
  128loPI   C2A 2040   1.613  15.336  10.417  0.0129 -0.0394  0.0627
  128loPI   C3A 2041   1.619  15.331  10.039  0.1081  0.0521  0.0371
  128loPI   C4A 2042   1.387  15.291   9.579 -0.1136 -0.1922  0.0552
  128loPI   C5A 2043   1.163  15.149   9.164  0.0372  0.1852  0.0926
  128loPI   C6A 2044   1.401  14.848   8.855  0.0837 -0.2616 -0.1102
  128loPI   C1B 2045   2.095  14.851  10.797 -0.2325  0.0882 -0.0084
  128loPI   C2B 2046   1.954  14.938  10.396  0.0466 -0.0415  0.1923
  128loPI   C3B 2047   1.972  15.014   9.856  0.0529 -0.1648 -0.1078
  128loPI   C4B 2048   1.752  14.913   9.446 -0.0996  0.1810 -0.1342
  129loPI    C1 2049   9.511   4.354  11.306 -0.0611  0.2469 -0.0844
  129loPI    C2 2050   9.414   4.009  11.484 -0.0238  0.2126 -0.1306
  129loPI    C3 2051   9.441   4.344  11.700 -0.1430  0.2028 -0.0998
  129loPI   PO4 2052   9.366   4.397  11.093  0.1938  0.2080 -0.1787
  129loPI   GL1 2053   9.323   4.542  10.755 -0.2372 -0.0890 -0.2759
  129loPI   GL2 2054   9.239   4.940  10.809 -0.0194 -0.1719  0.0260
  129loPI   C1A 2055   9.391   4.720  10.375 -0.4297  0.0655  0.0260
  129loPI   C2A 2056   9.422   4.644   9.931 -0.1000 -0.2120 -0.0805
  129loPI   C3A 2057   9.401   4.397   9.582  0.0021  0.1229 -0.0272
  129loPI   C4A 2058   9.346   4.246   9.288  0.0200 -0.3588  0.0021
  129loPI   C5A 2059   9.522   4.120   8.933  0.1403 -0.0486  0.1765
  129loPI   C6A 2060   9.713   3.741   8.868  0.2568  0.3104 -0.0959
  129loPI   C1B 2061   9.191   5.172  10.473  0.3405 -0.0597  0.0850
  129loPI   C2B 2062   9.303   5.268  10.147 -0.0956 -0.1515 -0.3254
  129loPI   C3B 2063   9.485   5.146   9.766 -0.0798 -0.1547  0.1424
  129loPI   C4B 2064   9.313   4.875   9.429 -0.1489  0.0857 -0.1104
  130loPI    C1 2065  14.156   4.875  12.006 -0.1648 -0.1233  0.0640
  130loPI    C2 2066  14.355   5.100  12.270  0.1780  0.0637 -0.3423
  130loPI    C3 2067  14.405   4.704  12.269  0.0903  0.0495 -0.0607
  130loPI   PO4 2068  14.126   4.962  11.843  0.1889 -0.1440  0.0660
  130loPI   GL1 2069  14.280   5.022  11.432 -0.1263  0.6044 -0.4657
  130loPI   GL2 2070  14.223   4.643  11.361 -0.2116 -0.1116  0.0216
  130loPI   C1A 2071  14.454   5.129  11.061 -0.0633 -0.2401  0.1926
  130loPI   C2A 2072  14.614   5.101  10.604 -0.3136  0.1985 -0.4357
  130loPI   C3A 2073  14.631   5.052  10.257  0.0881 -0.1088  0.1335
  130loPI   C4A 2074  14.464   5.071   9.924 -0.3657 -0.0439 -0.2137
  130loPI   C5A 2075  14.516   5.062   9.527  0.0259 -0.0854  0.1326
  130loPI   C6A 2076  14.628   5.078   9.069 -0.2119 -0.0703  0.0545
  130loPI   C1B 2077  14.287   4.650  10.979 -0.2965  0.0568 -0.1037
  130loPI   C2B 2078  14.406   4.639  10.544 -0.3113  0.0053 -0.0309
  130loPI   C3B 2079  14.374   4.639  10.152 -0.0128  0.3491 -0.2160
  130loPI   C4B 2080  14.420   4.596   9.763 -0.0325  0.1776  0.2930
  131loPI    C1 2081  15.587  13.886  12.012  0.1688 -0.0911  0.2283
  131loPI    C2 2082  15.969  13.982  11.947  0.0737  0.2697  0.1796
  131loPI    C3 2083  15.785  14.109  12.279 -0.0103  0.1149  0.1928
  131loPI   PO4 2084  15.534  13.719  11.813  0.2781 -0.1239 -0.2731
  131loPI   GL1 2085  15.607  13.772  11.466  0.1932  0.0311  0.2892
  131loPI   GL2 2086  15.945  13.853  11.386  0.0491 -0.1775 -0.2638
  131loPI   C1A 2087  15.584  13.819  11.016 -0.1519 -0.0470 -0.2405
  131loPI   C2A 2088  15.397  13.974  10.630  0.0889  0.0502  0.1024
  131loPI   C3A 2089  15.385  13.945  10.173 -0.1220 -0.2151 -0.1764
  131loPI   C4A 2090  15.387  13.930   9.705  0.0536 -0.2628 -0.0229
  131loPI   C5A 2091  15.472  14.012   9.292 -0.1996  0.0103 -0.0865
  131loPI   C6A 2092  15.869  14.066   8.992  0.1538 -0.3117  0.2620
  131loPI   C1B 2093  16.182  13.737  11.008 -0.1037  0.0996 -0.1937
  131loPI   C2B 2094  16.268  13.752  10.560  0.1491  0.0645  0.3476
  131loPI   C3B 2095  16.362  13.773  10.162 -0.2186 -0.2938 -0.0195
  131loPI   C4B 2096  16.332  13.742   9.721 -0.1681  0.0099  0.1667
  132loPI    C1 2097   8.243   1.922  11.641 -0.1202 -0.0228  0.1063
  132loPI    C2 2098   8.294   2.299  11.767  0.0111 -0.0974  0.2804
  132loPI    C3 2099   8.548   2.012  11.884  0.0708 -0.1914 -0.0677
  132loPI   PO4 2100   8.013   2.013  11.446 -0.0517 -0.3861 -0.0726
  132loPI   GL1 2101   7.959   2.060  11.052 -0.0415 -0.2122 -0.1634
  132loPI   GL2 2102   7.988   1.751  10.880  0.1978 -0.2846 -0.0528
  132loPI   C1A 2103   7.985   2.185  10.689 -0.6065  0.1429  0.2250
  132loPI   C2A 2104   7.996   2.280  10.266 -0.0880 -0.1615  0.0088
  132loPI   C3A 2105   7.841   2.248   9.888 -0.1699 -0.2403 -0.3903
  132loPI   C4A 2106   8.018   2.290   9.487  0.1060 -0.0106 -0.1073
  132loPI   C5A 2107   8.057   2.298   9.050  0.1420  0.0095 -0.1823
  132loPI   C6A 2108   8.492   2.143   8.849  0.3659  0.0432  0.2626
  132loPI   C1B 2109   7.822   1.606  10.565 -0.0739  0.2772  0.0775
  132loPI   C2B 2110   7.777   1.775  10.266  0.4508 -0.0503 -0.0363
  132loPI   C3B 2111   7.733   1.729   9.852  0.1756 -0.2400 -0.2555
  132loPI   C4B 2112   7.779   1.827   9.487  0.1781 -0.1498 -0.0299
  133loPI    C1 2113   2.231  10.662  11.946 -0.0015  0.1225 -0.0431
  133loPI    C2 2114   2.260  11.053  12.028 -0.0602  0.0590  0.2930
  133loPI    C3 2115   2.578  10.854  11.889 -0.1060  0.2828 -0.1483
  133loPI   PO4 2116   2.046  10.655  11.825  0.2616 -0.1021 -0.3636
  133loPI   GL1 2117   2.032  10.572  11.348  0.1964  0.2078 -0.3725
  133loPI   GL2 2118   1.773  10.764  11.327 -0.2207 -0.1698  0.3519
  133loPI   C1A 2119   2.276  10.467  10.938  0.0490  0.0917  0.0833
  133loPI   C2A 2120   2.300  10.481  10.472  0.1964 -0.3329  0.0091
  133loPI   C3A 2121   2.188  10.521  10.088  0.0332 -0.1636  0.1238
  133loPI   C4A 2122   2.266  10.415   9.653 -0.2748  0.0699  0.0400
  133loPI   C5A 2123   2.192  10.337   9.260 -0.0300  0.0332  0.0063
  133loPI   C6A 2124   2.269  10.173   8.826 -0.1203  0.2273 -0.0480
  133loPI   C1B 2125   1.937  10.853  10.941  0.0044 -0.2510  0.0899
  133loPI   C2B 2126   1.932  10.853  10.442  0.1659  0.0437 -0.2033
  133loPI   C3B 2127   1.840  10.956  10.002  0.1605 -0.0284 -0.5072
  133loPI   C4B 2128   1.889  11.048   9.530 -0.1884  0.1666  0.0204
  134loPI    C1 2129   8.757   2.802  11.608  0.1714 -0.0948  0.1005
  134loPI    C2 2130   8.834   2.447  11.438  0.1942 -0.0083 -0.0725
  134loPI    C3 2131   8.739   2.467  11.826  0.1490 -0.2080 -0.0722
  134loPI   PO4 2132   8.598   2.893  11.390  0.0821 -0.0977 -0.0429
  134loPI   GL1 2133   8.611   2.743  11.048  0.2712  0.1276 -0.0578
  134loPI   GL2 2134   8.977   2.786  11.019  0.1964 -0.2356  0.1212
  134loPI   C1A 2135   8.579   2.795  10.675 -0.0999 -0.0027  0.1398
  134loPI   C2A 2136   8.494   2.838  10.279 -0.2248  0.2253 -0.1452
  134loPI   C3A 2137   8.481   2.938   9.854  0.1516 -0.1507 -0.0776
  134loPI   C4A 2138   8.584   2.978   9.442  0.3618 -0.1699 -0.0310
  134loPI   C5A 2139   8.411   3.140   9.108 -0.1476 -0.2060 -0.1465
  134loPI   C6A 2140   8.003   3.191   8.956  0.1740  0.1279 -0.1467
  134loPI   C1B 2141   9.134   3.057  10.693  0.0016 -0.1963 -0.1623
  134loPI   C2B 2142   9.378   3.183  10.399  0.1387  0.1157  0.2386
  134loPI   C3B 2143   9.306   3.149   9.978  0.1224  0.2692 -0.1083
  134loPI   C4B 2144   9.175   3.153   9.523  0.1375  0.2144 -0.2263
  135loPI    C1 2145  16.184   5.638  11.823  0.0735 -0.3678 -0.0660
  135loPI    C2 2146  16.435   5.641  12.135 -0.2073  0.1473  0.1674
  135loPI    C3 2147  16.042   5.595  12.195 -0.2287 -0.1174 -0.1480
  135loPI   PO4 2148  16.363   5.604  11.529  0.0854  0.1006  0.0137
  135loPI   GL1 2149  16.171   5.604  11.142  0.0265  0.0429 -0.0366
  135loPI   GL2 2150  16.444   5.409  11.071  0.0340 -0.0649 -0.0732
  135loPI   C1A 2151  15.965   5.828  10.822 -0.0809  0.1731 -0.0203
  135loPI   C2A 2152  16.023   5.882  10.454  0.0488  0.2161  0.2163
  135loPI   C3A 2153  15.920   5.747  10.016 -0.3758  0.1202 -0.0203
  135loPI   C4A 2154  15.945   5.656   9.591  0.1743  0.2665  0.1079
  135loPI   C5A 2155  15.724   5.674   9.112  0.1571  0.1689 -0.1091
  135loPI   C6A 2156  15.305   5.798   9.004  0.1618  0.2221 -0.0390
  135loPI   C1B 2157  16.380   5.537  10.656  0.0068 -0.2165 -0.0871
  135loPI   C2B 2158  16.342   5.590  10.285  0.0475  0.1457 -0.1905
  135loPI   C3B 2159  16.408   5.538   9.883 -0.0200 -0.3481  0.2171
  135loPI   C4B 2160  16.381   5.368   9.441 -0.0769  0.0539 -0.4017
  136loPI    C1 2161   6.604   6.589  11.502  0.0485  0.0525  0.0858
  136loPI    C2 2162   6.697   6.562  11.890 -0.1847 -0.0660  0.1352
  136loPI    C3 2163   6.923   6.377  11.617  0.0291  0.0874  0.2052
  136loPI   PO4 2164   6.273   6.592  11.375  0.0605  0.3056 -0.0117
  136loPI   GL1 2165   6.090   6.641  11.006 -0.2111  0.1305 -0.1157
  136loPI   GL2 2166   5.877   6.427  10.943 -0.2054 -0.1655  0.2610
  136loPI   C1A 2167   5.925   6.867  10.657 -0.3123 -0.3354  0.2385
  136loPI   C2A 2168   6.004   6.916  10.225  0.3006 -0.1474  0.1464
  136loPI   C3A 2169   5.905   6.816   9.841 -0.0280  0.0623 -0.1809
  136loPI   C4A 2170   5.916   6.892   9.420 -0.0908  0.0430 -0.1361
  136loPI   C5A 2171   6.027   6.716   8.930  0.2033 -0.1121  0.0560
  136loPI   C6A 2172   6.151   6.874   8.555  0.1055 -0.4421  0.1407
  136loPI   C1B 2173   5.854   6.371  10.458 -0.2523 -0.0427  0.3776
  136loPI   C2B 2174   5.834   6.416  10.089  0.0979  0.1445  0.0846
  136loPI   C3B 2175   5.880   6.342   9.669 -0.2113  0.1843 -0.0768
  136loPI   C4B 2176   5.942   6.401   9.283  0.0383 -0.0081 -0.2294
  137loPI    C1 2177   9.673   6.342  11.656 -0.0860  0.0432  0.0364
  137loPI    C2 2178   9.352   6.501  11.833 -0.1292  0.2401 -0.2133
  137loPI    C3 2179   9.713   6.543  12.000 -0.1908  0.2837 -0.0896
  137loPI   PO4 2180   9.651   6.409  11.385  0.0369 -0.2168 -0.1396
  137loPI   GL1 2181   9.678   6.212  11.034  0.3440 -0.0342  0.0408
  137loPI   GL2 2182   9.940   6.094  11.075 -0.2235 -0.0853 -0.0998
  137loPI   C1A 2183   9.553   6.269  10.658 -0.1390  0.1350 -0.0620
  137loPI   C2A 2184   9.528   6.230  10.227  0.2581 -0.0682  0.0943
  137loPI   C3A 2185   9.507   6.151   9.746 -0.5285  0.1799  0.0417
  137loPI   C4A 2186   9.608   6.228   9.256  0.3421 -0.2719  0.0658
  137loPI   C5A 2187   9.907   6.279   8.984  0.0869  0.2709  0.3150
  137loPI   C6A 2188  10.123   6.528   8.575  0.6773 -0.2255  0.0246
  137loPI   C1B 2189   9.983   5.932  10.681 -0.3931 -0.0379  0.2604
  137loPI   C2B 2190   9.851   5.845  10.339 -0.0558 -0.0086  0.1531
  137loPI   C3B 2191   9.970   5.878   9.911 -0.0001  0.0188  0.0534
  137loPI   C4B 2192  10.112   5.733   9.522  0.1138 -0.0357  0.1476
  138loPI    C1 2193   3.813   7.293  11.757 -0.1186 -0.1309  0.1613
  138loPI    C2 2194   4.146   7.490  11.857 -0.0977 -0.0710 -0.0240
  138loPI    C3 2195   3.951   7.277  12.132  0.1510 -0.1918  0.0619
  138loPI   PO4 2196   3.845   7.155  11.541 -0.0043  0.1830 -0.1466
  138loPI   GL1 2197   3.666   7.039  11.189  0.2152  0.0636  0.2233
  138loPI   GL2 2198   3.614   6.830  11.004 -0.0334  0.0926  0.1425
  138loPI   C1A 2199   3.975   7.286  10.941 -0.0345  0.2084  0.0338
  138loPI   C2A 2200   4.142   7.352  10.601  0.0598  0.0990  0.1210
  138loPI   C3A 2201   4.085   7.387  10.238 -0.0561 -0.0636  0.0240
  138loPI   C4A 2202   4.142   7.266   9.883  0.0806  0.0925 -0.0833
  138loPI   C5A 2203   4.104   7.327   9.410  0.2149  0.3440 -0.0997
  138loPI   C6A 2204   4.150   7.715   9.098 -0.1271 -0.0965 -0.1766
  138loPI   C1B 2205   3.670   6.649  10.607 -0.0202  0.0861  0.1079
  138loPI   C2B 2206   3.658   6.541  10.267  0.1166 -0.0022  0.0248
  138loPI   C3B 2207   3.584   6.545   9.852  0.0122  0.4331 -0.1347
  138loPI   C4B 2208   3.398   6.692   9.552  0.3115 -0.2240  0.1623
  139loPI    C1 2209   7.309   1.718  11.752  0.0603  0.0197  0.1597
  139loPI    C2 2210   7.015   1.611  12.001 -0.0584 -0.1163 -0.0362
  139loPI    C3 2211   7.363   1.743  12.148 -0.2034  0.0126  0.1978
  139loPI   PO4 2212   7.116   1.797  11.487  0.1583 -0.2331 -0.1758
  139loPI   GL1 2213   7.087   2.054  11.165 -0.1354 -0.0315 -0.0495
  139loPI   GL2 2214   7.379   2.072  11.107  0.1277  0.0024  0.0082
  139loPI   C1A 2215   7.105   2.356  10.740  0.2139 -0.2932 -0.1278
  139loPI   C2A 2216   7.032   2.493  10.293 -0.0788 -0.3363 -0.0497
  139loPI   C3A 2217   6.995   2.462   9.900 -0.0952  0.1308 -0.0020
  139loPI   C4A 2218   7.040   2.581   9.424 -0.0224 -0.1141  0.1935
  139loPI   C5A 2219   6.754   2.760   9.062 -0.2714 -0.1791  0.1024
  139loPI   C6A 2220   6.946   2.624   8.619 -0.2372 -0.0430 -0.1329
  139loPI   C1B 2221   7.502   2.013  10.633  0.0864 -0.4081 -0.0223
  139loPI   C2B 2222   7.423   2.137  10.235 -0.1292  0.0631 -0.0749
  139loPI   C3B 2223   7.288   2.072   9.749 -0.1281  0.1282  0.0063
  139loPI   C4B 2224   7.161   2.064   9.331  0.3018  0.1788 -0.1750
  140loPI    C1 2225   9.065  16.109  11.389 -0.0370 -0.2143 -0.0472
  140loPI    C2 2226   8.703  16.209  11.526  0.0665  0.1400 -0.0236
  140loPI    C3 2227   8.925  15.942  11.725 -0.0981  0.0733  0.0727
  140loPI   PO4 2228   9.084  16.139  11.083  0.1895  0.0174 -0.0543
  140loPI   GL1 2229   9.268  16.386  10.820  0.0866  0.1461  0.3412
  140loPI   GL2 2230   9.136  16.715  10.813 -0.1983  0.0194 -0.1302
  140loPI   C1A 2231   9.247  16.212  10.373 -0.0312  0.7405 -0.0711
  140loPI   C2A 2232   9.270  16.196   9.888 -0.0205 -0.5930 -0.0056
  140loPI   C3A 2233   9.293  16.180   9.452 -0.1053 -0.1007  0.1279
  140loPI   C4A 2234   9.299  15.956   8.980 -0.5123  0.2182 -0.0335
  140loPI   C5A 2235   9.631  15.860   8.717 -0.0375 -0.1469 -0.1315
  140loPI   C6A 2236  10.018  15.926   8.529  0.1022 -0.0218  0.1252
  140loPI   C1B 2237   8.926  16.565  10.491 -0.0880 -0.2826 -0.2582
  140loPI   C2B 2238   8.874  16.558  10.076  0.0948  0.0286  0.2262
  140loPI   C3B 2239   8.888  16.512   9.676  0.0790 -0.0978 -0.1744
  140loPI   C4B 2240   8.725  16.449   9.233  0.0340 -0.1160  0.0703
  141loPI    C1 2241  16.393  11.737  11.742 -0.0079  0.1019 -0.0652
  141loPI    C2 2242  16.074  11.857  11.952  0.2161  0.3436  0.1434
  141loPI    C3 2243  16.258  11.515  12.046  0.0074  0.1915  0.0075
  141loPI   PO4 2244  16.322  11.767  11.520 -0.2026  0.1204  0.0795
  141loPI   GL1 2245  16.582  11.697  11.160 -0.1284 -0.1684 -0.4062
  141loPI   GL2 2246  16.652  11.485  11.285  0.1715 -0.1991  0.0355
  141loPI   C1A 2247  16.511  11.834  10.803  0.0085 -0.1203  0.0329
  141loPI   C2A 2248  16.460  11.841  10.266 -0.2022  0.1436 -0.2239
  141loPI   C3A 2249  16.392  11.901   9.937  0.0094 -0.1764  0.0861
  141loPI   C4A 2250  16.417  11.948   9.415  0.1726 -0.1978  0.2037
  141loPI   C5A 2251  16.314  11.686   9.008  0.1349  0.1558 -0.0276
  141loPI   C6A 2252  16.168  11.604   8.533 -0.1181 -0.2447  0.1859
  141loPI   C1B 2253  16.916  11.477  10.866 -0.1081 -0.2646  0.3020
  141loPI   C2B 2254  16.863  11.533  10.418  0.0919 -0.1033  0.0537
  141loPI   C3B 2255  16.786  11.591   9.967  0.0936  0.2135  0.1545
  141loPI   C4B 2256  16.849  11.677   9.471 -0.3545 -0.0883 -0.1718
  142loPI    C1 2257  14.225   6.954  11.678 -0.1668 -0.0229  0.1240
  142loPI    C2 2258  14.204   7.138  12.033  0.1245  0.2028  0.0288
  142loPI    C3 2259  14.553   6.991  11.904 -0.0087 -0.0023 -0.1056
  142loPI   PO4 2260  14.173   7.117  11.469  0.0179  0.1228 -0.2042
  142loPI   GL1 2261  14.359   7.310  11.055  0.0965 -0.1824  0.0511
  142loPI   GL2 2262  14.332   7.510  10.839 -0.2023 -0.0469  0.0965
  142loPI   C1A 2263  14.261   7.000  10.746 -0.0040  0.2942 -0.2848
  142loPI   C2A 2264  14.287   6.908  10.332  0.1406 -0.4645 -0.1273
  142loPI   C3A 2265  14.275   6.977   9.908  0.1305  0.4235 -0.1572
  142loPI   C4A 2266  14.365   6.986   9.484 -0.1229 -0.1008  0.0388
  142loPI   C5A 2267  14.606   6.993   9.136 -0.0716  0.0757  0.1640
  142loPI   C6A 2268  14.917   6.701   8.938  0.1337 -0.1081  0.0782
  142loPI   C1B 2269  14.347   7.419  10.410  0.1706 -0.0176  0.2433
  142loPI   C2B 2270  14.415   7.457  10.031  0.1989  0.1170  0.0553
  142loPI   C3B 2271  14.410   7.504   9.577 -0.0031 -0.0230 -0.1339
  142loPI   C4B 2272  14.443   7.456   9.168  0.0992 -0.1416  0.1153
  143loPI    C1 2273  10.458   2.798  11.898 -0.1749 -0.0337 -0.1380
  143loPI    C2 2274  10.097   2.917  12.024 -0.0524  0.1135  0.0812
  143loPI    C3 2275  10.188   2.527  12.017 -0.3215  0.0520 -0.2721
  143loPI   PO4 2276  10.486   2.990  11.701 -0.0138 -0.0732 -0.0385
  143loPI   GL1 2277  10.536   2.997  11.273  0.0626  0.0203 -0.0837
  143loPI   GL2 2278  10.393   3.183  11.169  0.0139  0.3016 -0.2191
  143loPI   C1A 2279  10.690   2.791  10.911 -0.3650  0.3753 -0.0056
  143loPI   C2A 2280  10.771   2.781  10.463 -0.1350 -0.0570 -0.5473
  143loPI   C3A 2281  10.855   2.770  10.096  0.0269  0.0168  0.1235
  143loPI   C4A 2282  10.865   2.754   9.710 -0.0020 -0.1007 -0.0871
  143loPI   C5A 2283  11.006   2.569   9.301  0.0374  0.1634  0.0795
  143loPI   C6A 2284  11.080   2.272   9.070 -0.3276 -0.0385  0.0886
  143loPI   C1B 2285  10.471   3.145  10.702  0.2737 -0.0847 -0.1719
  143loPI   C2B 2286  10.444   3.097  10.289  0.1756  0.2135  0.1875
  143loPI   C3B 2287  10.471   3.011   9.894 -0.1624  0.2046  0.3009
  143loPI   C4B 2288  10.515   3.092   9.410 -0.0260  0.0318  0.2266
  144loPI    C1 2289   8.152  10.546  11.479 -0.1611  0.1596 -0.1229
  144loPI    C2 2290   7.873  10.568  11.765 -0.1383 -0.0454 -0.0840
  144loPI    C3 2291   8.180  10.314  11.803  0.0751  0.2045 -0.1094
  144loPI   PO4 2292   8.024  10.550  11.259 -0.2461  0.0943  0.0467
  144loPI   GL1 2293   8.242  10.602  10.937  0.5788  0.1902  0.0124
  144loPI   GL2 2294   8.000  10.351  10.809 -0.1195  0.1282  0.0103
  144loPI   C1A 2295   8.426  10.569  10.435 -0.1360  0.2546  0.2290
  144loPI   C2A 2296   8.530  10.613   9.998 -0.0569 -0.0240  0.0083
  144loPI   C3A 2297   8.515  10.654   9.638 -0.1366 -0.1940  0.1934
  144loPI   C4A 2298   8.432  10.728   9.191 -0.2325 -0.5956 -0.0150
  144loPI   C5A 2299   8.559  10.482   8.891  0.2196 -0.1697  0.1646
  144loPI   C6A 2300   8.415  10.089   8.743 -0.1916 -0.2073  0.1079
  144loPI   C1B 2301   8.011  10.381  10.240 -0.0854 -0.1479 -0.3274
  144loPI   C2B 2302   8.101  10.391   9.824 -0.2958 -0.1619 -0.0552
  144loPI   C3B 2303   8.021  10.467   9.317 -0.0112  0.1653 -0.2579
  144loPI   C4B 2304   7.901  10.400   8.884 -0.1800 -0.1967  0.2390
  145loPI    C1 2305   0.981  14.070  11.939  0.0608  0.0949 -0.0543
  145loPI    C2 2306   1.190  14.367  12.106 -0.2006  0.2612 -0.0162
  145loPI    C3 2307   0.947  14.142  12.331 -0.0273  0.0361 -0.0508
  145loPI   PO4 2308   0.981  14.176  11.627  0.0456  0.1314  0.0293
  145loPI   GL1 2309   0.877  14.033  11.179 -0.1272 -0.1239 -0.2125
  145loPI   GL2 2310   0.940  13.713  11.018  0.0460 -0.0358  0.2608
  145loPI   C1A 2311   0.654  14.177  10.965  0.2046 -0.0994 -0.0251
  145loPI   C2A 2312   0.490  14.250  10.571 -0.0993 -0.3534  0.0045
  145loPI   C3A 2313   0.594  14.328  10.093  0.3495 -0.1026  0.0432
  145loPI   C4A 2314   0.568  14.374   9.669  0.1720  0.0081 -0.1027
  145loPI   C5A 2315   0.514  14.421   9.258 -0.0788  0.2226  0.0222
  145loPI   C6A 2316   0.458  14.580   8.865  0.4966  0.0627  0.0385
  145loPI   C1B 2317   0.938  13.950  10.636 -0.0774 -0.1706 -0.0492
  145loPI   C2B 2318   0.944  13.937  10.284 -0.2888  0.3304  0.0086
  145loPI   C3B 2319   0.961  14.032   9.852  0.2102  0.0407  0.1792
  145loPI   C4B 2320   0.993  14.196   9.469  0.1805  0.1091  0.1573
  146loPI    C1 2321   5.169   0.949  11.633  0.0078 -0.0969 -0.0786
  146loPI    C2 2322   5.132   0.851  12.020  0.0010  0.0503 -0.0413
  146loPI    C3 2323   5.212   0.568  11.748  0.1774 -0.0287  0.0906
  146loPI   PO4 2324   5.349   1.112  11.628 -0.2066 -0.0546 -0.0477
  146loPI   GL1 2325   5.461   1.381  11.332 -0.3038 -0.2196  0.0855
  146loPI   GL2 2326   5.183   1.526  11.422 -0.1242 -0.1088  0.4802
  146loPI   C1A 2327   5.477   1.462  10.771 -0.1874  0.0913 -0.0185
  146loPI   C2A 2328   5.409   1.528  10.326  0.1033 -0.1892 -0.2141
  146loPI   C3A 2329   5.469   1.371   9.819  0.1829 -0.2675 -0.1370
  146loPI   C4A 2330   5.305   1.469   9.426  0.0510 -0.1195 -0.2122
  146loPI   C5A 2331   5.050   1.845   9.327 -0.2624 -0.4556  0.2372
  146loPI   C6A 2332   5.104   2.318   9.475 -0.2239 -0.0188  0.3155
  146loPI   C1B 2333   5.170   1.724  11.002 -0.1411 -0.2246  0.0889
  146loPI   C2B 2334   5.075   1.787  10.598 -0.3330  0.1149  0.3163
  146loPI   C3B 2335   5.033   1.839  10.165  0.2249  0.0862  0.2295
  146loPI   C4B 2336   5.003   1.700   9.803 -0.1500 -0.1402 -0.0814
  147loPI    C1 2337   0.777   2.998  11.937  0.1183 -0.0615 -0.0868
  147loPI    C2 2338   0.982   3.147  12.247  0.0531 -0.1341 -0.0086
  147loPI    C3 2339   0.635   2.957  12.308  0.0048 -0.0874 -0.1327
  147loPI   PO4 2340   0.761   3.167  11.687 -0.1701 -0.0035 -0.2420
  147loPI   GL1 2341   0.701   3.135  11.202  0.1064 -0.0397 -0.2110
  147loPI   GL2 2342   0.914   2.910  11.162  0.1012  0.0867 -0.2644
  147loPI   C1A 2343   0.589   3.071  10.674  0.2440  0.1117  0.0479
  147loPI   C2A 2344   0.615   3.067  10.207 -0.0461  0.2442 -0.0764
  147loPI   C3A 2345   0.679   3.019   9.682  0.0055  0.0454 -0.3353
  147loPI   C4A 2346   0.706   3.028   9.265  0.1490  0.0728 -0.2175
  147loPI   C5A 2347   0.830   2.676   9.074 -0.1922  0.1956 -0.2814
  147loPI   C6A 2348   0.944   2.229   9.166 -0.2968  0.1464  0.0314
  147loPI   C1B 2349   1.064   2.803  10.651 -0.1303  0.3718 -0.0011
  147loPI   C2B 2350   1.057   2.745  10.183 -0.1107 -0.0740 -0.2441
  147loPI   C3B 2351   0.977   2.658   9.808 -0.3508  0.3222  0.1367
  147loPI   C4B 2352   1.189   2.679   9.452 -0.0440  0.1295  0.1407
  148loPI    C1 2353   9.721   6.875  11.642  0.0771 -0.0686  0.3116
  148loPI    C2 2354   9.685   7.273  11.672  0.1347 -0.0321 -0.0546
  148loPI    C3 2355   9.395   7.035  11.810  0.1288  0.1326  0.2243
  148loPI   PO4 2356   9.912   6.974  11.360  0.0820 -0.1676  0.1334
  148loPI   GL1 2357   9.989   7.047  10.959 -0.0266  0.0136  0.0688
  148loPI   GL2 2358  10.259   6.962  10.797  0.1157 -0.0097 -0.1155
  148loPI   C1A 2359   9.813   7.289  10.719  0.2112  0.1343 -0.0537
  148loPI   C2A 2360   9.633   7.306  10.214 -0.1356  0.0796  0.0654
  148loPI   C3A 2361   9.759   7.193   9.870  0.2860  0.1580  0.0716
  148loPI   C4A 2362   9.777   7.193   9.454 -0.2758  0.2249 -0.6340
  148loPI   C5A 2363   9.782   7.193   9.079  0.1010 -0.1338  0.0042
  148loPI   C6A 2364   9.879   7.149   8.587  0.3810 -0.3072 -0.2837
  148loPI   C1B 2365  10.228   6.996  10.356  0.0459  0.0577 -0.1487
  148loPI   C2B 2366  10.218   6.870   9.890 -0.2140 -0.2080  0.0694
  148loPI   C3B 2367  10.150   6.792   9.561 -0.1463 -0.0529 -0.0781
  148loPI   C4B 2368  10.154   6.734   9.154 -0.0279 -0.0773  0.0787
  149loPI    C1 2369  14.533   7.566  11.438 -0.0333  0.1507 -0.1226
  149loPI    C2 2370  14.709   7.793  11.716  0.1145 -0.0994 -0.0087
  149loPI    C3 2371  14.470   7.492  11.826 -0.3031  0.1676 -0.1614
  149loPI   PO4 2372  14.470   7.807  11.279 -0.4196  0.0108  0.1543
  149loPI   GL1 2373  14.166   7.980  10.944 -0.0024  0.4003  0.0059
  149loPI   GL2 2374  14.383   7.982  10.759  0.1240  0.0992  0.0869
  149loPI   C1A 2375  14.032   7.753  10.557  0.0877 -0.1750  0.1087
  149loPI   C2A 2376  13.974   7.732  10.219  0.0283 -0.0844 -0.1998
  149loPI   C3A 2377  14.023   7.789   9.724 -0.0286  0.2516 -0.1742
  149loPI   C4A 2378  14.075   7.815   9.223 -0.3760  0.2817 -0.2181
  149loPI   C5A 2379  14.284   7.834   8.804  0.0546 -0.1737 -0.1155
  149loPI   C6A 2380  14.369   8.358   8.612  0.1726  0.3455  0.1872
  149loPI   C1B 2381  14.431   7.930  10.342 -0.0360  0.1123 -0.2713
  149loPI   C2B 2382  14.524   7.930   9.848 -0.2674 -0.1947 -0.0173
  149loPI   C3B 2383  14.508   7.956   9.427  0.2927  0.2279  0.0850
  149loPI   C4B 2384  14.602   8.183   9.007  0.2776  0.0753 -0.1608
  150loPI    C1 2385   8.011   6.661  11.234  0.2043 -0.0116  0.1579
  150loPI    C2 2386   8.032   6.464  11.581 -0.0226 -0.1462  0.0976
  150loPI    C3 2387   8.115   6.855  11.568  0.4335 -0.2334  0.2182
  150loPI   PO4 2388   7.836   6.539  11.130  0.1164  0.1179 -0.0767
  150loPI   GL1 2389   7.830   6.405  10.755 -0.1081 -0.2870 -0.2807
  150loPI   GL2 2390   7.827   6.098  10.770  0.0276  0.1494 -0.2896
  150loPI   C1A 2391   7.783   6.592  10.484 -0.2212  0.2719 -0.1519
  150loPI   C2A 2392   7.641   6.506  10.046  0.0749 -0.1363  0.2585
  150loPI   C3A 2393   7.740   6.545   9.629  0.3431 -0.1126 -0.0895
  150loPI   C4A 2394   7.931   6.485   9.219  0.2549 -0.0330  0.0935
  150loPI   C5A 2395   7.821   6.471   8.869  0.1686  0.1790 -0.2715
  150loPI   C6A 2396   7.931   6.169   8.520  0.0622  0.2180 -0.1346
  150loPI   C1B 2397   7.751   6.104  10.316  0.1041 -0.1000  0.2593
  150loPI   C2B 2398   7.682   6.071   9.810  0.1239  0.3535  0.1439
  150loPI   C3B 2399   7.753   5.987   9.402  0.4508  0.1946 -0.1524
  150loPI   C4B 2400   7.674   5.971   8.918  0.3139  0.0629  0.0282
  151loPI    C1 2401   4.298   8.410  11.786  0.0638 -0.0145 -0.0316
  151loPI    C2 2402   4.357   8.748  11.991 -0.0205  0.0456 -0.1055
  151loPI    C3 2403   3.994   8.580  11.983  0.0413 -0.0947  0.0033
  151loPI   PO4 2404   4.370   8.448  11.581 -0.2108 -0.0234  0.1654
  151loPI   GL1 2405   4.415   8.556  11.173 -0.1187  0.0091 -0.0378
  151loPI   GL2 2406   4.379   8.111  11.193 -0.3076  0.2056  0.2027
  151loPI   C1A 2407   4.439   8.372  10.759  0.1498 -0.0630 -0.1960
  151loPI   C2A 2408   4.335   8.366  10.347  0.4369 -0.1120  0.0464
  151loPI   C3A 2409   4.360   8.275   9.875 -0.1446 -0.3404 -0.0646
  151loPI   C4A 2410   4.447   8.214   9.519  0.0887  0.0950  0.1685
  151loPI   C5A 2411   4.542   8.057   9.157 -0.2331  0.1920  0.1000
  151loPI   C6A 2412   4.574   8.160   8.711 -0.1396  0.0121 -0.0581
  151loPI   C1B 2413   4.193   7.881  10.856  0.0254 -0.1171  0.1089
  151loPI   C2B 2414   4.260   7.835  10.381  0.2588  0.0187  0.1145
  151loPI   C3B 2415   4.328   7.805   9.997 -0.2763  0.0795 -0.3050
  151loPI   C4B 2416   4.230   7.767   9.641  0.0576  0.0316 -0.1951
  152loPI    C1 2417  10.435  13.938  11.534 -0.0125 -0.0146  0.0990
  152loPI    C2 2418  10.222  14.194  11.757 -0.2273 -0.0167 -0.1004
  152loPI    C3 2419  10.163  13.800  11.794  0.0307 -0.0363  0.1326
  152loPI   PO4 2420  10.402  13.971  11.303  0.0187  0.1960  0.0912
  152loPI   GL1 2421  10.397  13.764  10.926  0.1070 -0.3443  0.0035
  152loPI   GL2 2422  10.074  13.720  10.756 -0.0382  0.0213  0.1310
  152loPI   C1A 2423  10.538  13.612  10.464  0.1790 -0.0448  0.0138
  152loPI   C2A 2424  10.660  13.633  10.077  0.2082  0.1216  0.0357
  152loPI   C3A 2425  10.568  13.731   9.747  0.2554  0.0277  0.1504
  152loPI   C4A 2426  10.720  13.911   9.283  0.0752  0.2746 -0.4143
  152loPI   C5A 2427  10.784  13.513   8.954  0.3233 -0.0425  0.0914
  152loPI   C6A 2428  10.857  13.086   8.733 -0.1578  0.3394  0.1848
  152loPI   C1B 2429  10.062  13.503  10.366  0.3087 -0.1459  0.0705
  152loPI   C2B 2430  10.046  13.471   9.925  0.0275  0.0302 -0.0923
  152loPI   C3B 2431   9.998  13.535   9.569  0.2286  0.1965 -0.0189
  152loPI   C4B 2432  10.378  13.525   9.327 -0.0710 -0.5030  0.5134
  153loPI    C1 2433  11.572   2.271  12.155  0.0082 -0.0273 -0.0017
  153loPI    C2 2434  11.701   1.894  12.196  0.2181  0.0553  0.1141
  153loPI    C3 2435  11.639   2.121  12.520 -0.2848 -0.0009  0.0650
  153loPI   PO4 2436  11.632   2.348  11.809  0.0639  0.2984 -0.0962
  153loPI   GL1 2437  11.817   2.259  11.419 -0.3357  0.0680  0.0197
  153loPI   GL2 2438  11.627   2.564  11.322  0.0160 -0.0675 -0.1202
  153loPI   C1A 2439  11.991   2.245  11.018  0.1878 -0.2321  0.0058
  153loPI   C2A 2440  12.059   2.319  10.559  0.2099  0.1884 -0.1576
  153loPI   C3A 2441  12.223   2.255  10.158 -0.0285 -0.2813 -0.3332
  153loPI   C4A 2442  12.326   2.346   9.767 -0.1726  0.1198  0.0270
  153loPI   C5A 2443  12.413   2.370   9.383 -0.1707 -0.2105  0.0410
  153loPI   C6A 2444  12.620   2.460   8.928 -0.0783 -0.2074  0.0811
  153loPI   C1B 2445  11.667   2.686  10.840 -0.0813 -0.4242 -0.0809
  153loPI   C2B 2446  11.704   2.628  10.375  0.2121  0.0024  0.2525
  153loPI   C3B 2447  11.779   2.622   9.952  0.1224  0.1508 -0.1697
  153loPI   C4B 2448  12.021   2.673   9.520 -0.1836  0.1803 -0.3782
  154loPI    C1 2449   2.941   8.511  11.553  0.0942  0.0572  0.2770
  154loPI    C2 2450   3.067   8.806  11.792 -0.4514  0.3817  0.1822
  154loPI    C3 2451   2.772   8.564  11.912  0.0115 -0.1595  0.2718
  154loPI   PO4 2452   2.910   8.612  11.276  0.0783 -0.0070  0.2191
  154loPI   GL1 2453   2.948   8.334  10.898 -0.0470  0.3323 -0.2532
  154loPI   GL2 2454   3.212   8.570  10.899 -0.0245  0.4762  0.0302
  154loPI   C1A 2455   2.915   8.391  10.497 -0.1106 -0.0256 -0.0366
  154loPI   C2A 2456   2.843   8.277  10.076 -0.2565 -0.2361  0.1741
  154loPI   C3A 2457   2.952   8.218   9.703 -0.1656 -0.3681 -0.0872
  154loPI   C4A 2458   2.932   8.148   9.288 -0.3983 -0.1496  0.1926
  154loPI   C5A 2459   2.813   7.842   9.016  0.1904 -0.1060  0.0587
  154loPI   C6A 2460   2.839   7.437   8.826 -0.4527  0.0431 -0.1339
  154loPI   C1B 2461   3.414   8.486  10.515  0.3648  0.1309 -0.2061
  154loPI   C2B 2462   3.343   8.487  10.090 -0.0378 -0.1186  0.0332
  154loPI   C3B 2463   3.447   8.436   9.599 -0.4774  0.2509 -0.0765
  154loPI   C4B 2464   3.552   8.256   9.211 -0.0345  0.2503 -0.1426
  155loPI    C1 2465  14.890  10.537  11.524  0.0386 -0.0049  0.1870
  155loPI    C2 2466  14.508  10.466  11.623  0.0574  0.1232  0.3561
  155loPI    C3 2467  14.695  10.791  11.764  0.3091 -0.0753  0.4880
  155loPI   PO4 2468  14.902  10.449  11.223  0.0554  0.1582  0.0478
  155loPI   GL1 2469  14.746  10.667  10.847 -0.3934 -0.1137 -0.2622
  155loPI   GL2 2470  14.825  10.378  10.725 -0.1245  0.5583 -0.0442
  155loPI   C1A 2471  14.917  10.811  10.410  0.0969  0.1860  0.0713
  155loPI   C2A 2472  14.937  10.839   9.958 -0.0324  0.1868  0.1363
  155loPI   C3A 2473  14.958  10.813   9.504  0.3851  0.1279 -0.0554
  155loPI   C4A 2474  14.957  10.613   9.056 -0.0756  0.1165  0.0260
  155loPI   C5A 2475  15.009  10.351   8.712  0.0647  0.0031 -0.2797
  155loPI   C6A 2476  15.084   9.893   8.698  0.1248 -0.0988 -0.1816
  155loPI   C1B 2477  14.761  10.283  10.276 -0.1079 -0.0718  0.1268
  155loPI   C2B 2478  14.823  10.337   9.932  0.0753  0.0339 -0.0661
  155loPI   C3B 2479  14.903  10.164   9.462 -0.4170 -0.3006 -0.1668
  155loPI   C4B 2480  15.165  10.067   9.168 -0.2481  0.2326  0.0227
  156loPI    C1 2481   1.229   2.704  11.995  0.0356  0.0957 -0.2052
  156loPI    C2 2482   1.452   2.533  12.279 -0.2798 -0.2844 -0.1776
  156loPI    C3 2483   1.425   2.932  12.259  0.1753 -0.2391 -0.0140
  156loPI   PO4 2484   1.282   2.541  11.773  0.1738  0.2115  0.1554
  156loPI   GL1 2485   1.473   2.521  11.371 -0.2406 -0.1287 -0.0562
  156loPI   GL2 2486   1.113   2.381  11.301 -0.0868  0.0174  0.2198
  156loPI   C1A 2487   1.459   2.511  10.817 -0.0774 -0.0016 -0.0739
  156loPI   C2A 2488   1.469   2.468  10.445 -0.0196 -0.2064 -0.0949
  156loPI   C3A 2489   1.394   2.393  10.018 -0.0953  0.0979  0.0852
  156loPI   C4A 2490   1.471   2.325   9.610 -0.1808 -0.0062  0.0470
  156loPI   C5A 2491   1.442   2.257   9.188 -0.2025  0.0151 -0.0657
  156loPI   C6A 2492   1.540   1.793   8.999  0.0254  0.1449  0.0212
  156loPI   C1B 2493   0.984   2.416  10.933  0.0303 -0.0908  0.1283
  156loPI   C2B 2494   1.003   2.320  10.529  0.1330 -0.0264  0.0210
  156loPI   C3B 2495   0.852   2.230  10.174 -0.0982  0.4893  0.1228
  156loPI   C4B 2496   0.987   2.143   9.797  0.0666 -0.1712  0.1682
  157loPI    C1 2497   0.418  10.874  11.854  0.0095  0.0071  0.2716
  157loPI    C2 2498   0.680  10.958  12.145  0.1492  0.0335  0.1399
  157loPI    C3 2499   0.689  10.601  11.963  0.2754  0.1334 -0.0535
  157loPI   PO4 2500   0.482  11.092  11.649  0.2886 -0.0369  0.0961
  157loPI   GL1 2501   0.452  11.153  11.310 -0.0376 -0.0040  0.2951
  157loPI   GL2 2502   0.570  11.337  11.034  0.2745  0.1717  0.3020
  157loPI   C1A 2503   0.145  11.113  10.892  0.1869 -0.3486  0.0487
  157loPI   C2A 2504   0.092  11.189  10.422 -0.0710 -0.0887 -0.0589
  157loPI   C3A 2505   0.145  11.215  10.088 -0.0070 -0.0318 -0.0356
  157loPI   C4A 2506   0.070  11.329   9.704  0.0902 -0.0583  0.0723
  157loPI   C5A 2507   0.059  11.351   9.242 -0.1661 -0.2342 -0.0240
  157loPI   C6A 2508   0.248  11.690   8.977  0.0066 -0.2220 -0.0809
  157loPI   C1B 2509   0.607  11.246  10.605 -0.0173 -0.3318 -0.0939
  157loPI   C2B 2510   0.641  11.353  10.247  0.0597  0.0685 -0.0847
  157loPI   C3B 2511   0.569  11.456   9.763  0.0080 -0.0992 -0.0793
  157loPI   C4B 2512   0.607  11.539   9.313 -0.3645 -0.1847  0.0016
  158loPI    C1 2513   5.089   9.659  11.482  0.0394  0.2858  0.0728
  158loPI    C2 2514   4.951   9.513  11.828  0.0781  0.1100  0.0151
  158loPI    C3 2515   4.740   9.788  11.629 -0.0767  0.0125  0.0430
  158loPI   PO4 2516   5.191   9.481  11.331  0.0211  0.2165  0.0002
  158loPI   GL1 2517   5.107   9.255  10.973 -0.1470 -0.0742  0.1028
  158loPI   GL2 2518   5.387   9.361  10.865  0.1642 -0.2690 -0.1680
  158loPI   C1A 2519   5.063   9.016  10.615 -0.1810  0.0807  0.0721
  158loPI   C2A 2520   5.093   8.846  10.236  0.2575 -0.0578  0.1356
  158loPI   C3A 2521   5.297   8.725   9.876  0.0764  0.0731 -0.0812
  158loPI   C4A 2522   5.395   8.646   9.442 -0.0705  0.0758 -0.2293
  158loPI   C5A 2523   5.206   8.824   9.048  0.1421 -0.0141  0.1243
  158loPI   C6A 2524   4.918   8.807   8.666  0.2558 -0.3339 -0.2672
  158loPI   C1B 2525   5.367   9.298  10.351 -0.0017 -0.2620  0.0241
  158loPI   C2B 2526   5.380   9.246   9.856 -0.3463 -0.0102 -0.2454
  158loPI   C3B 2527   5.538   9.153   9.436  0.4682  0.2911 -0.1992
  158loPI   C4B 2528   5.528   9.269   9.024 -0.1633 -0.3169  0.4784
  159loPI    C1 2529   9.647   7.744  11.472 -0.0234 -0.0386 -0.0357
  159loPI    C2 2530   9.403   7.714  11.787 -0.1359 -0.0028 -0.1183
  159loPI    C3 2531   9.621   8.045  11.734  0.2635 -0.2062  0.1909
  159loPI   PO4 2532   9.567   7.690  11.297  0.1260 -0.1121 -0.0413
  159loPI   GL1 2533   9.482   7.892  10.899 -0.1400 -0.0622  0.0150
  159loPI   GL2 2534   9.474   8.180  10.729  0.0881  0.0018  0.1179
  159loPI   C1A 2535   9.395   7.662  10.618  0.0425  0.1349  0.0194
  159loPI   C2A 2536   9.283   7.612  10.161 -0.0384  0.1975 -0.1837
  159loPI   C3A 2537   9.338   7.467   9.735  0.0175 -0.3104  0.0366
  159loPI   C4A 2538   9.318   7.632   9.391  0.1692  0.2323  0.0489
  159loPI   C5A 2539   9.328   7.521   8.967 -0.1271 -0.2387 -0.2734
  159loPI   C6A 2540   9.492   7.729   8.613 -0.0471 -0.0239  0.0036
  159loPI   C1B 2541   9.416   8.089  10.273  0.1821 -0.4878  0.1520
  159loPI   C2B 2542   9.400   7.979   9.835 -0.1558 -0.3335 -0.0870
  159loPI   C3B 2543   9.335   8.148   9.390  0.2368 -0.0043  0.3220
  159loPI   C4B 2544   9.371   8.146   8.915 -0.0899 -0.0442 -0.1796
  160loPI    C1 2545  12.130   1.624  12.010  0.1164 -0.1382  0.0733
  160loPI    C2 2546  12.437   1.611  12.266  0.1435  0.2423  0.0649
  160loPI    C3 2547  12.065   1.547  12.397  0.2221 -0.2318  0.0731
  160loPI   PO4 2548  12.267   1.677  11.734  0.0511  0.1533  0.0765
  160loPI   GL1 2549  12.681   1.855  11.533  0.0923 -0.0356 -0.0665
  160loPI   GL2 2550  12.737   1.559  11.474 -0.0478  0.0873 -0.0307
  160loPI   C1A 2551  12.579   1.908  11.080 -0.1279  0.0726 -0.1622
  160loPI   C2A 2552  12.497   1.991  10.647 -0.2360 -0.0026 -0.3942
  160loPI   C3A 2553  12.670   1.983  10.214  0.0071 -0.0418  0.2092
  160loPI   C4A 2554  12.729   2.009   9.771 -0.2271 -0.2848  0.0024
  160loPI   C5A 2555  12.974   2.153   9.447  0.0010 -0.0433 -0.0674
  160loPI   C6A 2556  12.936   2.093   9.048 -0.1380 -0.0540 -0.1514
  160loPI   C1B 2557  12.507   1.412  11.096  0.2231 -0.2116 -0.0054
  160loPI   C2B 2558  12.546   1.485  10.699  0.1054 -0.1657  0.1982
  160loPI   C3B 2559  12.563   1.453  10.238 -0.0050  0.3295 -0.4806
  160loPI   C4B 2560  12.580   1.455   9.802 -0.1066 -0.1403 -0.0286
  161loPI    C1 2561  17.035   8.907  11.692  0.0240  0.0064 -0.1372
  161loPI    C2 2562  16.750   8.645  11.795  0.1266 -0.0519  0.0019
  161loPI    C3 2563  16.977   8.816  12.077  0.3014 -0.0871 -0.1157
  161loPI   PO4 2564  17.076   8.858  11.380  0.0777  0.0724 -0.1151
  161loPI   GL1 2565  17.082   9.051  11.079  0.2395 -0.1267  0.1924
  161loPI   GL2 2566  17.426   9.017  11.031  0.0946  0.1793 -0.1797
  161loPI   C1A 2567  16.935   9.056  10.691  0.0787 -0.1981  0.3214
  161loPI   C2A 2568  16.958   9.121  10.280  0.1324 -0.0174  0.0541
  161loPI   C3A 2569  17.035   9.173   9.875  0.1970  0.0054  0.0527
  161loPI   C4A 2570  16.866   9.029   9.500  0.0387 -0.1913 -0.0446
  161loPI   C5A 2571  16.957   8.911   9.099 -0.1690  0.1841 -0.2480
  161loPI   C6A 2572  17.062   8.561   8.793 -0.1634 -0.2602 -0.2542
  161loPI   C1B 2573  17.431   9.247  10.671  0.0365 -0.2221 -0.3330
  161loPI   C2B 2574  17.494   9.339  10.147  0.2588 -0.0856  0.2648
  161loPI   C3B 2575  17.427   9.474   9.758 -0.0390 -0.2926 -0.1966
  161loPI   C4B 2576  17.207   9.403   9.330 -0.1514  0.1945 -0.0450
  162loPI    C1 2577  16.231  10.501  11.630  0.0108 -0.2277 -0.0300
  162loPI    C2 2578  16.336  10.866  11.755 -0.1166 -0.1564 -0.1288
  162loPI    C3 2579  16.597  10.563  11.779  0.0292 -0.0342 -0.1528
  162loPI   PO4 2580  16.216  10.577  11.341 -0.0283  0.2906  0.1888
  162loPI   GL1 2581  16.248  10.850  11.110  0.0830  0.1302  0.1594
  162loPI   GL2 2582  16.406  11.081  11.215  0.0544  0.0566  0.1739
  162loPI   C1A 2583  16.228  10.822  10.701  0.2169  0.4328  0.0467
  162loPI   C2A 2584  16.356  10.884  10.399  0.1149  0.1151  0.1331
  162loPI   C3A 2585  16.272  10.814   9.945 -0.2717 -0.1177  0.0359
  162loPI   C4A 2586  16.280  10.946   9.572 -0.2067 -0.1286 -0.3747
  162loPI   C5A 2587  16.178  11.260   9.206  0.0706 -0.1158 -0.0625
  162loPI   C6A 2588  16.032  11.133   8.723  0.1155 -0.1081  0.0660
  162loPI   C1B 2589  16.468  11.258  10.872 -0.0096  0.1722 -0.2211
  162loPI   C2B 2590  16.417  11.364  10.505 -0.1045 -0.1258  0.1441
  162loPI   C3B 2591  16.424  11.285  10.079  0.1346  0.0170 -0.0809
  162loPI   C4B 2592  16.316  11.427   9.680  0.0587  0.0448 -0.1533
  163loPI    C1 2593   2.080   0.062  11.872 -0.1204  0.0020 -0.0277
  163loPI    C2 2594   1.820  -0.179  12.057 -0.0700  0.0962  0.1679
  163loPI    C3 2595   2.017   0.101  12.265  0.2999 -0.0725  0.0522
  163loPI   PO4 2596   1.991   0.067  11.639 -0.2480  0.2739 -0.1148
  163loPI   GL1 2597   1.823  -0.165  11.322 -0.1532  0.1671  0.2337
  163loPI   GL2 2598   1.551   0.032  11.101 -0.3071 -0.1945  0.2973
  163loPI   C1A 2599   2.019  -0.335  10.938 -0.2463 -0.2005 -0.2044
  163loPI   C2A 2600   1.912  -0.366  10.507  0.0482  0.2106  0.0032
  163loPI   C3A 2601   1.960  -0.288  10.021  0.1145 -0.0024  0.2078
  163loPI   C4A 2602   1.880  -0.368   9.598 -0.0523  0.1837  0.0890
  163loPI   C5A 2603   1.912  -0.788   9.345 -0.2338 -0.0403  0.0070
  163loPI   C6A 2604   1.784  -1.181   9.416 -0.3738 -0.2639 -0.1671
  163loPI   C1B 2605   1.426  -0.035  10.623 -0.2668 -0.0334  0.2304
  163loPI   C2B 2606   1.473  -0.103  10.171  0.1079  0.3896 -0.0078
  163loPI   C3B 2607   1.546   0.039   9.803  0.4673  0.1528 -0.2928
  163loPI   C4B 2608   1.630  -0.048   9.400 -0.0840  0.0304 -0.0889
  164loPI    C1 2609   3.782   6.175  11.659 -0.0627 -0.1129 -0.0467
  164loPI    C2 2610   3.807   6.111  12.053 -0.1777 -0.2128 -0.0551
  164loPI    C3 2611   3.875   6.477  11.905 -0.2501 -0.1482  0.0695
  164loPI   PO4 2612   3.964   6.052  11.531  0.0196  0.0120  0.1485
  164loPI   GL1 2613   4.045   5.816  11.248  0.2402  0.0844  0.0296
  164loPI   GL2 2614   4.270   6.012  11.042  0.0955 -0.2268  0.1549
  164loPI   C1A 2615   3.858   5.755  10.732 -0.3251  0.2620  0.1316
  164loPI   C2A 2616   3.871   5.718  10.306  0.1455 -0.1074 -0.1008
  164loPI   C3A 2617   3.886   5.680   9.811 -0.0240  0.1062  0.1171
  164loPI   C4A 2618   3.820   5.682   9.381  0.2617 -0.0338  0.1321
  164loPI   C5A 2619   3.593   6.025   9.231  0.1976  0.1221 -0.1446
  164loPI   C6A 2620   3.647   6.528   9.072 -0.1819 -0.0491 -0.1206
  164loPI   C1B 2621   4.296   5.987  10.667 -0.4110  0.0074  0.0657
  164loPI   C2B 2622   4.347   5.841  10.298  0.0965  0.1478  0.1288
  164loPI   C3B 2623   4.422   5.813   9.846 -0.0915 -0.0522  0.1485
  164loPI   C4B 2624   4.215   5.916   9.441 -0.1912 -0.0302 -0.1176
  165loPI    C1 2625   7.484  11.346  11.414  0.0960 -0.0202 -0.0136
  165loPI    C2 2626   7.848  11.421  11.266  0.0430  0.0835 -0.0928
  165loPI    C3 2627   7.786  11.434  11.661  0.0976  0.1867 -0.0873
  165loPI   PO4 2628   7.442  11.112  11.272  0.4064 -0.3004  0.2343
  165loPI   GL1 2629   7.402  11.267  10.868 -0.1392  0.1661  0.1098
  165loPI   GL2 2630   7.536  11.563  10.887  0.0651  0.1800  0.0063
  165loPI   C1A 2631   7.371  11.425  10.468  0.2384  0.1580 -0.0844
  165loPI   C2A 2632   7.351  11.311  10.053 -0.2636  0.1614 -0.2459
  165loPI   C3A 2633   7.241  11.084   9.642  0.0360 -0.0863 -0.0664
  165loPI   C4A 2634   7.317  11.051   9.236  0.2307  0.0378  0.4428
  165loPI   C5A 2635   7.476  10.712   8.972 -0.3747  0.0629 -0.2504
  165loPI   C6A 2636   7.516  10.441   8.526 -0.0527 -0.1688 -0.1695
  165loPI   C1B 2637   7.827  11.311  10.600 -0.0312  0.0142  0.0060
  165loPI   C2B 2638   7.827  11.258  10.204 -0.2142  0.1199  0.2608
  165loPI   C3B 2639   7.743  11.330   9.791  0.0441  0.0103 -0.0976
  165loPI   C4B 2640   7.757  11.402   9.291  0.3761 -0.2353 -0.0578
  166loPI    C1 2641  15.210  14.482  11.580 -0.0862  0.1041 -0.1693
  166loPI    C2 2642  14.892  14.256  11.490 -0.2442  0.1599  0.2275
  166loPI    C3 2643  15.184  14.109  11.721  0.1215  0.0421 -0.2907
  166loPI   PO4 2644  15.348  14.588  11.366 -0.0035  0.0402 -0.1995
  166loPI   GL1 2645  15.502  14.501  10.925 -0.0703  0.0941 -0.2086
  166loPI   GL2 2646  15.745  14.335  11.120 -0.0563 -0.2799  0.2428
  166loPI   C1A 2647  15.505  14.460  10.460  0.1998  0.2335  0.1156
  166loPI   C2A 2648  15.506  14.369  10.038  0.1730 -0.1360  0.2811
  166loPI   C3A 2649  15.607  14.489   9.609 -0.0851 -0.1715  0.3840
  166loPI   C4A 2650  15.551  14.494   9.140 -0.2600 -0.0099  0.0077
  166loPI   C5A 2651  15.265  14.745   8.872  0.2652  0.2174 -0.1151
  166loPI   C6A 2652  14.851  14.731   8.754  0.1003  0.1661  0.1893
  166loPI   C1B 2653  15.952  14.183  10.784  0.0560 -0.0182 -0.4047
  166loPI   C2B 2654  15.854  14.135  10.363  0.1439  0.0332  0.0108
  166loPI   C3B 2655  15.886  14.066   9.926  0.0412 -0.0927 -0.0919
  166loPI   C4B 2656  15.865  14.067   9.526 -0.1416 -0.2764  0.0069
  167loPI    C1 2657  13.069  15.523  11.555 -0.0663  0.1178  0.0786
  167loPI    C2 2658  13.057  15.212  11.806 -0.4488  0.1088  0.0559
  167loPI    C3 2659  13.075  15.585  11.951  0.2321  0.0793  0.0823
  167loPI   PO4 2660  12.841  15.522  11.323  0.2000 -0.0357  0.1616
  167loPI   GL1 2661  12.987  15.345  10.986 -0.1295  0.0791  0.2251
  167loPI   GL2 2662  12.725  15.346  10.832 -0.0003 -0.0544 -0.1885
  167loPI   C1A 2663  13.182  15.217  10.629  0.4404 -0.1268  0.1175
  167loPI   C2A 2664  13.264  15.185  10.235  0.1853 -0.1397 -0.0378
  167loPI   C3A 2665  13.450  15.072   9.853 -0.3774 -0.0640  0.4547
  167loPI   C4A 2666  13.337  15.066   9.428  0.0825 -0.0459 -0.1874
  167loPI   C5A 2667  13.144  15.054   9.129  0.0357 -0.0795  0.3192
  167loPI   C6A 2668  13.322  15.310   8.851 -0.0269 -0.0899 -0.0117
  167loPI   C1B 2669  12.739  15.301  10.432  0.0831  0.1187  0.0308
  167loPI   C2B 2670  12.825  15.339   9.907  0.3337 -0.2123 -0.1703
  167loPI   C3B 2671  12.970  15.410   9.561 -0.1894  0.0992 -0.2883
  167loPI   C4B 2672  13.146  15.540   9.205  0.0760  0.1632 -0.0923
  168loPI    C1 2673  15.541   7.927  11.756 -0.1527  0.3324 -0.3184
  168loPI    C2 2674  15.290   8.034  12.048 -0.0522  0.1728 -0.1726
  168loPI    C3 2675  15.642   8.221  12.009  0.0007  0.0908 -0.0941
  168loPI   PO4 2676  15.396   7.795  11.603 -0.0341  0.1546  0.3001
  168loPI   GL1 2677  15.384   7.671  11.185  0.0344 -0.1642  0.3794
  168loPI   GL2 2678  15.640   7.644  11.180 -0.0548 -0.1527 -0.0072
  168loPI   C1A 2679  15.304   7.517  10.742 -0.1636  0.1069 -0.2125
  168loPI   C2A 2680  15.240   7.509  10.345 -0.3996  0.0816 -0.0139
  168loPI   C3A 2681  15.256   7.361   9.936  0.1090  0.1176  0.0336
  168loPI   C4A 2682  15.404   7.440   9.616  0.1429  0.0373  0.1417
  168loPI   C5A 2683  15.430   7.398   9.209 -0.0990  0.0117 -0.3085
  168loPI   C6A 2684  15.680   7.209   8.975 -0.2711 -0.0886  0.1085
  168loPI   C1B 2685  15.739   7.757  10.736 -0.0862 -0.1521 -0.1750
  168loPI   C2B 2686  15.709   7.638  10.424 -0.0716 -0.2019  0.0824
  168loPI   C3B 2687  15.736   7.607   9.941  0.1131  0.1030 -0.0146
  168loPI   C4B 2688  15.896   7.575   9.481  0.0510  0.0160 -0.0073
  169loPI    C1 2689  10.902   2.229  11.623 -0.0230  0.0999 -0.0920
  169loPI    C2 2690  10.898   2.513  11.905 -0.0129  0.0903 -0.0820
  169loPI    C3 2691  10.567   2.300  11.830  0.0569 -0.0880  0.1060
  169loPI   PO4 2692  11.188   2.307  11.497 -0.0913 -0.1420 -0.2464
  169loPI   GL1 2693  11.420   2.151  11.111 -0.0683  0.3669 -0.1678
  169loPI   GL2 2694  11.119   2.396  11.039  0.0609 -0.1634  0.1901
  169loPI   C1A 2695  11.598   2.133  10.693 -0.0080 -0.2196  0.0377
  169loPI   C2A 2696  11.665   2.162  10.181 -0.1423 -0.1364 -0.1906
  169loPI   C3A 2697  11.819   2.188   9.708  0.1820  0.2203  0.2084
  169loPI   C4A 2698  11.840   2.177   9.267 -0.3037  0.1045 -0.0203
  169loPI   C5A 2699  11.626   2.409   8.913  0.0139  0.1600  0.0486
  169loPI   C6A 2700  11.581   2.731   8.601 -0.3563 -0.0200 -0.0784
  169loPI   C1B 2701  11.154   2.483  10.645  0.0728  0.1134  0.0642
  169loPI   C2B 2702  11.272   2.429  10.268 -0.2198  0.0556 -0.2862
  169loPI   C3B 2703  11.288   2.472   9.839 -0.2145  0.1700  0.2374
  169loPI   C4B 2704  11.509   2.505   9.447  0.1505 -0.1280  0.0145
  170loPI    C1 2705   9.855   1.345  11.274  0.1223  0.0038  0.0358
  170loPI    C2 2706  10.075   1.327  11.608  0.3172  0.0690 -0.0876
  170loPI    C3 2707   9.951   1.681  11.468  0.1047  0.0303 -0.0012
  170loPI   PO4 2708   9.972   1.225  11.070  0.0857  0.1918 -0.0344
  170loPI   GL1 2709  10.061   1.040  10.810  0.1631  0.0577 -0.0330
  170loPI   GL2 2710  10.352   0.776  10.773  0.1056  0.0008  0.2490
  170loPI   C1A 2711  10.084   0.978  10.367 -0.0475  0.0499  0.1362
  170loPI   C2A 2712  10.175   0.925   9.905 -0.1957 -0.0275  0.1710
  170loPI   C3A 2713   9.969   0.840   9.499  0.1188 -0.4557 -0.1139
  170loPI   C4A 2714   9.849   0.761   9.040  0.2584 -0.0403  0.1144
  170loPI   C5A 2715   9.633   0.664   8.621  0.2102 -0.0729 -0.1252
  170loPI   C6A 2716   9.393   0.399   8.447  0.3844  0.3645  0.2575
  170loPI   C1B 2717  10.463   0.645  10.369  0.2446  0.2770  0.0739
  170loPI   C2B 2718  10.481   0.543   9.985  0.0574 -0.1653  0.0442
  170loPI   C3B 2719  10.531   0.586   9.643 -0.0694  0.0899  0.1492
  170loPI   C4B 2720  10.266   0.495   9.261  0.0825 -0.0021 -0.2103
  171loPI    C1 2721   8.999   8.962  11.371 -0.0379 -0.1701 -0.0139
  171loPI    C2 2722   9.081   8.777  11.716  0.1941  0.0812  0.0694
  171loPI    C3 2723   9.088   9.177  11.697 -0.2614  0.0858 -0.1178
  171loPI   PO4 2724   8.838   8.858  11.266 -0.3031  0.2196  0.0462
  171loPI   GL1 2725   8.663   8.924  10.898 -0.0814  0.1396 -0.0390
  171loPI   GL2 2726   8.696   9.264  10.658  0.1665 -0.0549  0.0958
  171loPI   C1A 2727   8.658   8.763  10.506 -0.0249 -0.0768  0.0762
  171loPI   C2A 2728   8.654   8.689  10.069  0.3381  0.1319  0.0782
  171loPI   C3A 2729   8.577   8.761   9.634 -0.0790 -0.2231  0.0751
  171loPI   C4A 2730   8.580   8.717   9.245  0.2057  0.1422 -0.1849
  171loPI   C5A 2731   8.543   8.784   8.824 -0.0494  0.1994  0.0189
  171loPI   C6A 2732   8.850   8.788   8.391  0.0372 -0.0610 -0.3241
  171loPI   C1B 2733   8.778   9.355  10.253  0.1244  0.0618  0.0464
  171loPI   C2B 2734   8.688   9.248   9.808  0.4399 -0.0078  0.2426
  171loPI   C3B 2735   8.744   9.288   9.431  0.1484 -0.2899  0.5694
  171loPI   C4B 2736   8.740   9.227   8.971 -0.1187  0.0420  0.0500
  172loPI    C1 2737  16.804   7.838  11.383  0.0819 -0.0536 -0.2372
  172loPI    C2 2738  16.768   7.733  11.767  0.2616 -0.2962 -0.2842
  172loPI    C3 2739  16.911   8.095  11.671  0.0233 -0.1564 -0.1233
  172loPI   PO4 2740  16.982   7.638  11.293  0.0717 -0.0494 -0.1614
  172loPI   GL1 2741  17.149   7.536  10.930 -0.1047  0.0716 -0.0138
  172loPI   GL2 2742  17.365   7.644  10.791 -0.1125  0.0644 -0.1155
  172loPI   C1A 2743  17.137   7.200  10.738 -0.2877 -0.0205 -0.3440
  172loPI   C2A 2744  17.172   7.181  10.386 -0.2783  0.0782 -0.0510
  172loPI   C3A 2745  17.217   7.134   9.884 -0.2132 -0.1692  0.0421
  172loPI   C4A 2746  17.129   7.077   9.510 -0.0179  0.3709  0.3436
  172loPI   C5A 2747  17.060   7.347   9.202  0.1836  0.1020 -0.0298
  172loPI   C6A 2748  17.226   7.629   8.926 -0.1232 -0.1043  0.2568
  172loPI   C1B 2749  17.232   7.653  10.318 -0.1222  0.5041 -0.2359
  172loPI   C2B 2750  17.421   7.704  10.008 -0.1999 -0.0613 -0.0207
  172loPI   C3B 2751  17.206   7.594   9.676 -0.1992  0.3346 -0.0711
  172loPI   C4B 2752  17.114   7.809   9.397  0.1689  0.0220 -0.2044
  173loPI    C1 2753   7.436  16.364  11.794  0.1524 -0.1611  0.1744
  173loPI    C2 2754   7.213  16.396  12.125 -0.2054 -0.1948 -0.0573
  173loPI    C3 2755   7.596  16.283  12.151 -0.1403  0.1020  0.3707
  173loPI   PO4 2756   7.340  16.465  11.582  0.1674 -0.1963  0.0547
  173loPI   GL1 2757   7.352  16.627  11.158  0.3215 -0.4034  0.2745
  173loPI   GL2 2758   7.530  16.367  11.023 -0.2394  0.0443  0.1654
  173loPI   C1A 2759   7.386  16.867  10.813 -0.0726 -0.0155  0.0349
  173loPI   C2A 2760   7.326  16.821  10.342  0.0347 -0.2388  0.1678
  173loPI   C3A 2761   7.362  16.809   9.934  0.2544  0.4064  0.1250
  173loPI   C4A 2762   7.453  16.833   9.520  0.1892 -0.2046 -0.2338
  173loPI   C5A 2763   7.502  16.958   9.103 -0.0359  0.1206 -0.0296
  173loPI   C6A 2764   7.638  17.221   8.694 -0.0837 -0.1219 -0.2102
  173loPI   C1B 2765   7.379  16.357  10.578  0.0799 -0.0694  0.3310
  173loPI   C2B 2766   7.251  16.319  10.070  0.2235 -0.1682  0.1683
  173loPI   C3B 2767   7.195  16.349   9.627 -0.0241  0.0700  0.1677
  173loPI   C4B 2768   7.042  16.488   9.235 -0.1610 -0.1378  0.3814
  174loPI    C1 2769   3.042  14.572  11.783 -0.0538 -0.0638  0.0639
  174loPI    C2 2770   3.008  14.244  12.010  0.2501 -0.1018  0.0589
  174loPI    C3 2771   3.110  14.593  12.176  0.0375 -0.0324  0.0468
  174loPI   PO4 2772   3.161  14.646  11.542 -0.2244  0.3352 -0.2926
  174loPI   GL1 2773   3.145  14.541  11.076 -0.1375  0.0807 -0.0287
  174loPI   GL2 2774   3.433  14.610  11.047  0.2430  0.0015  0.0452
  174loPI   C1A 2775   2.951  14.668  10.631  0.0180 -0.3329 -0.1018
  174loPI   C2A 2776   2.839  14.726  10.225  0.0010  0.1546  0.1044
  174loPI   C3A 2777   2.806  14.777   9.733 -0.1075  0.1089 -0.1240
  174loPI   C4A 2778   3.007  14.878   9.386  0.2572 -0.0727  0.4160
  174loPI   C5A 2779   3.052  15.154   9.134  0.0800  0.0190  0.4128
  174loPI   C6A 2780   2.894  15.241   8.819 -0.1215  0.0993 -0.1981
  174loPI   C1B 2781   3.472  14.841  10.646 -0.1577 -0.0251  0.0127
  174loPI   C2B 2782   3.360  14.882  10.181  0.0834 -0.0027 -0.0224
  174loPI   C3B 2783   3.391  14.942   9.710 -0.0500  0.0885  0.0040
  174loPI   C4B 2784   3.492  15.095   9.328  0.2708  0.2534 -0.0694
  175loPI    C1 2785  15.560  17.062  11.677 -0.1228  0.2020 -0.0525
  175loPI    C2 2786  15.493  16.670  11.636 -0.0135  0.2045 -0.2721
  175loPI    C3 2787  15.230  16.934  11.491  0.0425  0.2125 -0.3600
  175loPI   PO4 2788  15.812  17.214  11.638  0.0413 -0.0531  0.0779
  175loPI   GL1 2789  16.093  17.158  11.371  0.0442 -0.1077  0.2766
  175loPI   GL2 2790  16.294  17.414  11.511 -0.0885 -0.0013 -0.0731
  175loPI   C1A 2791  15.982  17.182  10.988 -0.1168 -0.1666  0.0420
  175loPI   C2A 2792  15.940  17.190  10.535  0.1486 -0.0935 -0.2055
  175loPI   C3A 2793  15.968  17.167  10.110 -0.2021  0.3612  0.0576
  175loPI   C4A 2794  16.036  17.087   9.710  0.1057 -0.2329  0.1094
  175loPI   C5A 2795  16.373  17.178   9.471  0.1578 -0.2602  0.3621
  175loPI   C6A 2796  16.282  17.151   9.083  0.0522 -0.0864 -0.3135
  175loPI   C1B 2797  16.556  17.307  11.153  0.1610  0.4054 -0.1089
  175loPI   C2B 2798  16.451  17.228  10.699  0.1277  0.1257 -0.0697
  175loPI   C3B 2799  16.404  17.391  10.314  0.1500  0.2415  0.2385
  175loPI   C4B 2800  16.427  17.338   9.970  0.0603  0.0759 -0.3270
  176loPI    C1 2801  15.952   3.384  12.217  0.0768  0.0377 -0.1016
  176loPI    C2 2802  16.310   3.502  12.353  0.1052  0.0519 -0.1885
  176loPI    C3 2803  15.990   3.735  12.406  0.1416  0.1193 -0.2644
  176loPI   PO4 2804  16.127   3.189  11.903 -0.0456  0.0057  0.0639
  176loPI   GL1 2805  15.999   3.148  11.452  0.0965  0.1536 -0.4998
  176loPI   GL2 2806  15.856   2.884  11.536 -0.3064 -0.1384  0.0341
  176loPI   C1A 2807  16.047   3.333  11.006 -0.2705 -0.1883  0.0820
  176loPI   C2A 2808  16.039   3.389  10.564  0.2012 -0.3974 -0.0830
  176loPI   C3A 2809  16.029   3.396  10.144  0.1852  0.1212  0.0079
  176loPI   C4A 2810  16.004   3.358   9.745  0.2147  0.0008 -0.0195
  176loPI   C5A 2811  16.071   3.455   9.269 -0.1296 -0.1002 -0.2273
  176loPI   C6A 2812  16.480   3.307   9.056 -0.0768 -0.0492  0.3195
  176loPI   C1B 2813  15.943   2.830  11.107  0.2326 -0.1702 -0.2285
  176loPI   C2B 2814  15.985   2.923  10.672 -0.0967 -0.0553  0.0808
  176loPI   C3B 2815  15.920   2.896  10.202  0.0368  0.1702 -0.1222
  176loPI   C4B 2816  15.985   2.806   9.761  0.1266 -0.0474  0.0831
  177loPI    C1 2817   9.575  11.191  11.595  0.1127  0.0681  0.1347
  177loPI    C2 2818   9.609  11.458  11.891  0.0371  0.1591  0.0622
  177loPI    C3 2819   9.927  11.368  11.664  0.0312  0.2840  0.0041
  177loPI   PO4 2820   9.331  11.264  11.452  0.3985 -0.0735 -0.0283
  177loPI   GL1 2821   9.074  10.999  11.093 -0.1930 -0.3326 -0.0856
  177loPI   GL2 2822   9.483  10.967  11.098 -0.0012  0.1276 -0.1389
  177loPI   C1A 2823   9.122  10.838  10.708 -0.0410  0.2961 -0.0484
  177loPI   C2A 2824   8.995  10.743  10.251  0.1157 -0.1420  0.0432
  177loPI   C3A 2825   9.001  10.813   9.811 -0.2137  0.0714  0.0199
  177loPI   C4A 2826   8.972  10.795   9.391  0.3277 -0.0854 -0.0236
  177loPI   C5A 2827   8.851  10.926   8.920 -0.0183  0.2537  0.2145
  177loPI   C6A 2828   8.411  10.991   8.732  0.0105  0.0732  0.1574
  177loPI   C1B 2829   9.556  11.012  10.589 -0.2965  0.1727  0.2639
  177loPI   C2B 2830   9.571  10.954  10.110  0.0099  0.2614  0.0052
  177loPI   C3B 2831   9.535  10.986   9.702 -0.0491 -0.0180 -0.2265
  177loPI   C4B 2832   9.454  11.026   9.290  0.0118  0.2157 -0.1508
  178loPI    C1 2833   6.569  16.447  11.747  0.1456  0.0592 -0.2191
  178loPI    C2 2834   6.620  16.828  11.637  0.0204  0.1507  0.0323
  178loPI    C3 2835   6.923  16.624  11.799  0.1039  0.1244 -0.1550
  178loPI   PO4 2836   6.507  16.291  11.577  0.0236 -0.0030 -0.0571
  178loPI   GL1 2837   6.459  16.343  11.192  0.0135  0.2139  0.2715
  178loPI   GL2 2838   6.419  15.987  11.002 -0.1124 -0.1246 -0.2362
  178loPI   C1A 2839   6.420  16.440  10.742 -0.2393  0.1095 -0.1980
  178loPI   C2A 2840   6.414  16.471  10.278  0.1045  0.2005 -0.0281
  178loPI   C3A 2841   6.454  16.554   9.828  0.0685  0.0169 -0.0962
  178loPI   C4A 2842   6.373  16.445   9.504 -0.1448  0.0191 -0.0513
  178loPI   C5A 2843   6.373  16.409   9.115  0.1585 -0.0762 -0.0890
  178loPI   C6A 2844   6.550  16.172   8.744  0.1054  0.0252 -0.0642
  178loPI   C1B 2845   6.410  16.020  10.514 -0.1231 -0.0271 -0.0827
  178loPI   C2B 2846   6.289  16.022  10.075 -0.0703 -0.1162 -0.4710
  178loPI   C3B 2847   6.322  15.962   9.685 -0.0495  0.0049 -0.4143
  178loPI   C4B 2848   6.378  15.943   9.301  0.0351  0.0473  0.1770
  179loPI    C1 2849  14.535   6.600  11.605 -0.0962  0.0768  0.0400
  179loPI    C2 2850  14.718   6.363  11.869  0.2525  0.1889 -0.0947
  179loPI    C3 2851  14.343   6.485  11.936  0.1057 -0.3071  0.0287
  179loPI   PO4 2852  14.744   6.470  11.350 -0.0189  0.0915 -0.4560
  179loPI   GL1 2853  14.974   6.675  11.021  0.0376 -0.0189 -0.0231
  179loPI   GL2 2854  14.671   6.771  10.933  0.2503  0.1719 -0.4143
  179loPI   C1A 2855  15.114   6.415  10.744 -0.0276  0.0855  0.2768
  179loPI   C2A 2856  15.174   6.371  10.390  0.0436 -0.2636 -0.2944
  179loPI   C3A 2857  15.056   6.394  10.019 -0.0454  0.0173  0.2103
  179loPI   C4A 2858  15.162   6.365   9.636  0.2279 -0.3632 -0.2900
  179loPI   C5A 2859  15.206   6.434   9.240  0.4198  0.0538  0.0016
  179loPI   C6A 2860  15.443   6.233   8.831  0.3178  0.0436 -0.1758
  179loPI   C1B 2861  14.742   6.610  10.558  0.2061 -0.0055 -0.1529
  179loPI   C2B 2862  14.685   6.740  10.159  0.0436  0.3910 -0.0750
  179loPI   C3B 2863  14.716   6.734   9.831  0.2932  0.0209 -0.3146
  179loPI   C4B 2864  14.875   6.770   9.494  0.2375  0.0335 -0.0523
  180loPI    C1 2865  13.188  13.370  11.541  0.0139  0.1213  0.0621
  180loPI    C2 2866  13.413  13.486  11.851  0.1142  0.2657 -0.0632
  180loPI    C3 2867  13.017  13.542  11.859  0.0862  0.0533  0.1385
  180loPI   PO4 2868  13.373  13.405  11.300  0.1417  0.1960 -0.1746
  180loPI   GL1 2869  13.453  13.277  10.930  0.4220 -0.3107  0.0922
  180loPI   GL2 2870  13.340  12.953  10.763 -0.0976  0.2170  0.2598
  180loPI   C1A 2871  13.836  13.021  10.679 -0.1614 -0.0092 -0.0662
  180loPI   C2A 2872  13.904  12.952  10.198 -0.1886  0.2363 -0.1352
  180loPI   C3A 2873  13.875  12.903   9.816  0.0717 -0.1758 -0.0735
  180loPI   C4A 2874  13.807  12.774   9.383 -0.1807 -0.1464 -0.0168
  180loPI   C5A 2875  13.813  12.931   8.962  0.2867  0.0271 -0.2283
  180loPI   C6A 2876  13.649  12.743   8.518  0.0973  0.0366 -0.0582
  180loPI   C1B 2877  13.431  13.121  10.372  0.1774 -0.1328  0.0363
  180loPI   C2B 2878  13.389  13.151   9.844 -0.0260  0.0417 -0.3313
  180loPI   C3B 2879  13.453  13.098   9.446 -0.0163 -0.0709  0.2320
  180loPI   C4B 2880  13.337  13.162   9.061  0.3865  0.2056  0.0155
  181loPI    C1 2881   8.383   8.465  11.260  0.1205 -0.0725  0.1071
  181loPI    C2 2882   8.313   8.849  11.347 -0.0681 -0.0773 -0.0180
  181loPI    C3 2883   8.531   8.625  11.595 -0.0862  0.0700  0.1327
  181loPI   PO4 2884   8.450   8.491  11.058 -0.0608  0.0763 -0.0977
  181loPI   GL1 2885   8.239   8.610  10.784 -0.0833 -0.1569 -0.1883
  181loPI   GL2 2886   7.899   8.471  10.874 -0.1790 -0.2433 -0.1302
  181loPI   C1A 2887   8.180   8.604  10.335 -0.0554  0.1423  0.2055
  181loPI   C2A 2888   8.184   8.553   9.856 -0.1308  0.0634  0.0499
  181loPI   C3A 2889   8.119   8.586   9.460 -0.0697  0.0189 -0.1270
  181loPI   C4A 2890   8.136   8.497   9.004  0.1046  0.1025 -0.0016
  181loPI   C5A 2891   8.360   8.345   8.632 -0.0847  0.2263 -0.2951
  181loPI   C6A 2892   8.601   8.314   8.279 -0.0401 -0.0316  0.1555
  181loPI   C1B 2893   8.039   8.164  10.589  0.2151 -0.0520 -0.3131
  181loPI   C2B 2894   8.062   8.078  10.194 -0.2096  0.1568 -0.0067
  181loPI   C3B 2895   8.073   8.086   9.742 -0.0844  0.1450  0.1868
  181loPI   C4B 2896   7.980   8.124   9.350 -0.0875 -0.4403  0.0411
  182loPI    C1 2897  14.490   3.798  11.816 -0.0048  0.0133  0.1436
  182loPI    C2 2898  14.134   3.772  11.636  0.1057 -0.2257 -0.0450
  182loPI    C3 2899  14.184   3.620  12.002 -0.0478  0.0214  0.0808
  182loPI   PO4 2900  14.634   3.703  11.624  0.2136  0.1236 -0.0551
  182loPI   GL1 2901  14.540   3.530  11.259 -0.1683  0.0144  0.1122
  182loPI   GL2 2902  14.276   3.541  11.099  0.0324 -0.0638 -0.0908
  182loPI   C1A 2903  14.651   3.360  10.841  0.3841  0.1741  0.2642
  182loPI   C2A 2904  14.624   3.317  10.360  0.2036  0.0372 -0.1117
  182loPI   C3A 2905  14.692   3.249   9.953  0.1690 -0.0612 -0.1890
  182loPI   C4A 2906  14.653   3.343   9.564 -0.0371 -0.2183 -0.0634
  182loPI   C5A 2907  14.387   3.351   9.188 -0.3422 -0.0571 -0.0411
  182loPI   C6A 2908  13.956   3.500   8.955  0.0133 -0.0364 -0.2377
  182loPI   C1B 2909  14.209   3.628  10.738 -0.2289  0.2592  0.1260
  182loPI   C2B 2910  14.228   3.651  10.300  0.0732  0.2747 -0.2351
  182loPI   C3B 2911  14.281   3.579   9.836 -0.0618  0.0698  0.2395
  182loPI   C4B 2912  14.263   3.778   9.360 -0.2945  0.1290 -0.0447
  183loPI    C1 2913   6.182  16.816  11.949  0.1669  0.3045 -0.1704
  183loPI    C2 2914   6.265  17.058  12.256 -0.0253  0.0609  0.0783
  183loPI    C3 2915   6.541  16.800  12.125  0.0707  0.1926  0.0192
  183loPI   PO4 2916   6.107  16.939  11.724 -0.2087  0.1425  0.0473
  183loPI   GL1 2917   6.095  17.133  11.306  0.0072  0.2156 -0.2683
  183loPI   GL2 2918   6.283  16.799  11.230 -0.3765 -0.1183  0.2050
  183loPI   C1A 2919   5.798  17.245  11.030 -0.0489  0.1124  0.0333
  183loPI   C2A 2920   5.697  17.215  10.563  0.5516  0.1025 -0.1083
  183loPI   C3A 2921   5.695  17.231  10.092 -0.2055  0.2345  0.0814
  183loPI   C4A 2922   5.722  17.137   9.648  0.0268 -0.0848 -0.0744
  183loPI   C5A 2923   5.818  17.157   9.178 -0.1045  0.2138  0.0976
  183loPI   C6A 2924   5.850  17.065   8.666 -0.0319 -0.0801 -0.1869
  183loPI   C1B 2925   6.150  16.922  10.858  0.0373  0.1291  0.2968
  183loPI   C2B 2926   6.048  16.901  10.412  0.0174 -0.0061 -0.2612
  183loPI   C3B 2927   6.059  16.889   9.960  0.0241 -0.2128  0.1568
  183loPI   C4B 2928   6.200  16.889   9.507 -0.0166  0.2474 -0.1303
  184loPI    C1 2929  16.576   7.239  11.853  0.0035  0.1029  0.0193
  184loPI    C2 2930  16.578   7.016  12.185 -0.1091 -0.1312 -0.1353
  184loPI    C3 2931  16.823   7.330  12.155  0.0203 -0.2064  0.1024
  184loPI   PO4 2932  16.534   6.999  11.627  0.1895 -0.0149 -0.0974
  184loPI   GL1 2933  16.342   6.910  11.160 -0.0055 -0.4270  0.2506
  184loPI   GL2 2934  16.058   6.856  11.008  0.2140  0.2173  0.0496
  184loPI   C1A 2935  16.613   7.047  10.779 -0.0402  0.0550 -0.0575
  184loPI   C2A 2936  16.590   6.996  10.365  0.0558  0.0706  0.0335
  184loPI   C3A 2937  16.706   6.993   9.948 -0.4487  0.0994  0.1538
  184loPI   C4A 2938  16.635   6.855   9.525  0.1170  0.0293 -0.0660
  184loPI   C5A 2939  16.699   6.432   9.442 -0.0092 -0.1816 -0.0065
  184loPI   C6A 2940  16.881   6.294   9.059  0.0964 -0.0415  0.0853
  184loPI   C1B 2941  16.128   6.905  10.548 -0.1500 -0.1218 -0.0570
  184loPI   C2B 2942  16.203   6.834  10.084  0.0735  0.3269 -0.0577
  184loPI   C3B 2943  16.145   6.704   9.680 -0.2134  0.0049  0.1386
  184loPI   C4B 2944  16.098   6.687   9.241  0.2526  0.0463  0.3213
  185loPI    C1 2945   0.543  13.055  11.724  0.1893  0.2110 -0.0777
  185loPI    C2 2946   0.758  12.777  11.532 -0.1652 -0.1742  0.0688
  185loPI    C3 2947   0.746  12.780  11.932  0.0427  0.2181  0.0768
  185loPI   PO4 2948   0.596  13.268  11.650  0.2824 -0.0781  0.3685
  185loPI   GL1 2949   0.855  13.203  11.286 -0.2429  0.1279 -0.0182
  185loPI   GL2 2950   1.150  13.289  11.236 -0.1867 -0.0256 -0.1390
  185loPI   C1A 2951   0.817  13.306  10.771 -0.2011  0.1767 -0.1480
  185loPI   C2A 2952   0.927  13.446  10.471  0.1650  0.1715  0.1717
  185loPI   C3A 2953   0.885  13.531  10.060  0.1268  0.0959  0.0041
  185loPI   C4A 2954   0.840  13.499   9.646 -0.0675 -0.0409  0.3239
  185loPI   C5A 2955   0.830  13.524   9.313  0.0542 -0.2260  0.0596
  185loPI   C6A 2956   0.810  13.436   8.874 -0.1999 -0.0182 -0.1019
  185loPI   C1B 2957   1.307  13.096  10.809  0.1628 -0.1827 -0.1617
  185loPI   C2B 2958   1.374  13.079  10.361  0.0620 -0.0858  0.0546
  185loPI   C3B 2959   1.264  13.227   9.990  0.0008 -0.2651  0.1769
  185loPI   C4B 2960   1.270  13.202   9.532  0.0392 -0.1576 -0.1280
  186loPI    C1 2961  12.164  13.814  11.429  0.0468 -0.3210 -0.1268
  186loPI    C2 2962  11.853  13.573  11.503 -0.0224 -0.1871  0.0259
  186loPI    C3 2963  11.835  13.960  11.605  0.2383 -0.2030  0.1418
  186loPI   PO4 2964  12.233  13.736  11.240 -0.2031  0.0214  0.0582
  186loPI   GL1 2965  12.321  14.103  10.922 -0.1714 -0.0858 -0.2973
  186loPI   GL2 2966  12.583  13.862  10.853  0.0831 -0.0359 -0.3730
  186loPI   C1A 2967  12.130  14.186  10.544  0.1069 -0.0410  0.0487
  186loPI   C2A 2968  12.199  14.221  10.150  0.3043 -0.0554  0.0359
  186loPI   C3A 2969  12.204  14.225   9.739  0.0152 -0.0210 -0.0383
  186loPI   C4A 2970  12.166  14.070   9.293  0.2262 -0.3264  0.0891
  186loPI   C5A 2971  12.404  14.061   8.858 -0.2070 -0.1004  0.0546
  186loPI   C6A 2972  12.247  13.985   8.529 -0.1706  0.0073 -0.3097
  186loPI   C1B 2973  12.574  13.890  10.389 -0.2517  0.1657 -0.2462
  186loPI   C2B 2974  12.568  13.886   9.928  0.0444  0.3016  0.2802
  186loPI   C3B 2975  12.653  13.758   9.470  0.2865  0.0086 -0.0222
  186loPI   C4B 2976  12.703  13.748   9.097 -0.2209  0.1228 -0.0284
  187loPI    C1 2977   1.976  13.565  11.858 -0.1465 -0.1406  0.0455
  187loPI    C2 2978   2.037  13.351  12.190 -0.0760 -0.0256  0.1074
  187loPI    C3 2979   1.971  13.745  12.215  0.2779  0.0472 -0.0364
  187loPI   PO4 2980   2.062  13.547  11.696  0.0382 -0.0574  0.1762
  187loPI   GL1 2981   2.005  13.545  11.292  0.1262  0.1593  0.2805
  187loPI   GL2 2982   2.311  13.774  11.268  0.1698 -0.3239 -0.1185
  187loPI   C1A 2983   1.811  13.775  10.839 -0.1562 -0.1712 -0.0859
  187loPI   C2A 2984   1.982  13.815  10.438  0.0828  0.3158 -0.1116
  187loPI   C3A 2985   1.869  13.949  10.018  0.3245  0.3159 -0.0308
  187loPI   C4A 2986   1.752  13.861   9.627 -0.0123 -0.2195 -0.1790
  187loPI   C5A 2987   1.611  14.171   9.302  0.1179 -0.3534 -0.0925
  187loPI   C6A 2988   1.889  14.394   9.018 -0.3596 -0.0062  0.1522
  187loPI   C1B 2989   2.336  14.010  10.882  0.4028 -0.0885 -0.0489
  187loPI   C2B 2990   2.432  14.078  10.433 -0.0213  0.2036  0.1850
  187loPI   C3B 2991   2.356  14.013  10.048 -0.0466  0.1473  0.0732
  187loPI   C4B 2992   2.238  14.113   9.683  0.0398 -0.1160  0.2319
  188loPI    C1 2993   8.079  15.799  11.317  0.0402  0.1817  0.0441
  188loPI    C2 2994   7.712  15.645  11.362  0.0836  0.0593 -0.0181
  188loPI    C3 2995   8.001  15.553  11.623  0.0205  0.3100  0.1429
  188loPI   PO4 2996   8.155  15.703  11.143  0.0757  0.0146 -0.2423
  188loPI   GL1 2997   8.001  15.558  10.780  0.1245  0.0843  0.1125
  188loPI   GL2 2998   8.222  15.301  10.744 -0.0135  0.2249 -0.0720
  188loPI   C1A 2999   7.816  15.586  10.277  0.1927  0.0209  0.0381
  188loPI   C2A 3000   7.775  15.560   9.790  0.2434 -0.0933  0.0150
  188loPI   C3A 3001   7.665  15.457   9.364  0.1990 -0.2049  0.2801
  188loPI   C4A 3002   7.691  15.098   9.158 -0.0371  0.0813  0.0973
  188loPI   C5A 3003   7.695  14.670   8.964 -0.2091 -0.0956  0.1043
  188loPI   C6A 3004   7.734  14.198   8.822  0.1785 -0.0063  0.0454
  188loPI   C1B 3005   8.306  15.296  10.386  0.1381 -0.0692 -0.0656
  188loPI   C2B 3006   8.133  15.202   9.945  0.0722 -0.0145 -0.5155
  188loPI   C3B 3007   8.104  15.212   9.568 -0.2254 -0.0861 -0.2167
  188loPI   C4B 3008   8.160  15.264   9.110  0.0890  0.1790 -0.1069
  189loPI    C1 3009  11.046   0.982  11.460  0.2475  0.0130  0.1330
  189loPI    C2 3010  11.054   1.022  11.858 -0.2854  0.0636  0.1463
  189loPI    C3 3011  10.782   0.784  11.687 -0.0098 -0.0199 -0.1877
  189loPI   PO4 3012  11.113   1.234  11.427 -0.3429 -0.3006 -0.1965
  189loPI   GL1 3013  11.587   1.292  11.191 -0.0455 -0.0245 -0.3834
  189loPI   GL2 3014  11.522   1.147  10.928 -0.0772  0.0269 -0.2048
  189loPI   C1A 3015  11.523   1.626  10.818  0.0536  0.1694 -0.0458
  189loPI   C2A 3016  11.704   1.737  10.409 -0.0009 -0.0964 -0.1180
  189loPI   C3A 3017  11.742   1.621  10.001 -0.3156  0.2041  0.0417
  189loPI   C4A 3018  11.713   1.668   9.570 -0.0887  0.0839  0.0139
  189loPI   C5A 3019  11.811   1.701   9.109  0.0843  0.0839  0.0249
  189loPI   C6A 3020  11.578   1.550   8.663  0.0305  0.4374 -0.0255
  189loPI   C1B 3021  11.552   1.140  10.480 -0.1101 -0.0785  0.1959
  189loPI   C2B 3022  11.625   1.049  10.098 -0.1055 -0.0185  0.2556
  189loPI   C3B 3023  11.615   1.194   9.656 -0.0483  0.2902 -0.0522
  189loPI   C4B 3024  11.518   1.325   9.249  0.0064 -0.0475 -0.2291
  190loPI    C1 3025  11.222  10.056  11.299 -0.3329 -0.0714 -0.1065
  190loPI    C2 3026  11.179  10.280  11.628 -0.1153 -0.0004 -0.1245
  190loPI    C3 3027  11.328   9.910  11.656  0.0603  0.0667 -0.1617
  190loPI   PO4 3028  11.321  10.220  11.068  0.0652  0.1096 -0.0311
  190loPI   GL1 3029  11.094  10.411  10.809  0.1240 -0.0653  0.0178
  190loPI   GL2 3030  10.811  10.219  10.723  0.2423  0.1039 -0.0957
  190loPI   C1A 3031  11.113  10.501  10.420 -0.3096  0.0413 -0.0881
  190loPI   C2A 3032  10.990  10.549  10.004  0.0199  0.0880  0.1077
  190loPI   C3A 3033  10.731  10.442   9.726 -0.1222  0.0064  0.2015
  190loPI   C4A 3034  10.642  10.546   9.302  0.3886  0.0524  0.1939
  190loPI   C5A 3035  10.454  10.758   9.056 -0.0440  0.3430 -0.0280
  190loPI   C6A 3036  10.138  10.732   8.688  0.1313  0.2620 -0.1684
  190loPI   C1B 3037  10.699  10.075  10.394 -0.3026 -0.0571 -0.2812
  190loPI   C2B 3038  10.672   9.965   9.969  0.2444 -0.0830  0.0170
  190loPI   C3B 3039  10.682   9.926   9.517  0.1187 -0.2414 -0.2790
  190loPI   C4B 3040  10.706  10.013   9.123  0.2232 -0.2623 -0.1239
  191loPI    C1 3041  14.996   1.485  11.847 -0.0468 -0.0859 -0.0678
  191loPI    C2 3042  14.795   1.810  11.729  0.2888  0.0799 -0.1974
  191loPI    C3 3043  14.742   1.664  12.098 -0.1565  0.0449 -0.2697
  191loPI   PO4 3044  15.244   1.548  11.816 -0.0109  0.2331  0.0770
  191loPI   GL1 3045  15.495   1.484  11.463 -0.3314 -0.0939 -0.0934
  191loPI   GL2 3046  15.329   1.743  11.333  0.0780  0.3535  0.3403
  191loPI   C1A 3047  15.719   1.311  11.132 -0.0026  0.3203  0.2797
  191loPI   C2A 3048  15.787   1.349  10.781  0.0520 -0.1277  0.0280
  191loPI   C3A 3049  15.672   1.414  10.447  0.0942  0.1172  0.2152
  191loPI   C4A 3050  15.677   1.255  10.038 -0.0606  0.1852 -0.0508
  191loPI   C5A 3051  15.554   1.233   9.580  0.1113  0.2018 -0.2691
  191loPI   C6A 3052  15.629   1.485   9.300 -0.1749 -0.0553 -0.1581
  191loPI   C1B 3053  15.354   1.651  10.918 -0.1369  0.1484  0.1228
  191loPI   C2B 3054  15.254   1.690  10.539  0.0655 -0.0469  0.0363
  191loPI   C3B 3055  15.336   1.610  10.074  0.0112 -0.0092 -0.0737
  191loPI   C4B 3056  15.217   1.589   9.569  0.0024 -0.3025 -0.2967
  192loPI    C1 3057   4.076  10.279  11.782  0.0309  0.0149 -0.0170
  192loPI    C2 3058   4.463  10.184  11.757  0.0402  0.0308  0.0639
  192loPI    C3 3059   4.237  10.027  12.047 -0.0275 -0.0240 -0.0183
  192loPI   PO4 3060   3.998  10.161  11.502  0.0799  0.2158 -0.1953
  192loPI   GL1 3061   3.916   9.917  10.954 -0.0484  0.1556 -0.0476
  192loPI   GL2 3062   4.219   9.918  10.793 -0.1544  0.1413 -0.0947
  192loPI   C1A 3063   3.899  10.241  10.648 -0.2549 -0.3474 -0.0664
  192loPI   C2A 3064   4.023  10.315  10.277 -0.2435 -0.0574  0.1075
  192loPI   C3A 3065   4.144  10.362   9.900  0.1120  0.1383  0.4165
  192loPI   C4A 3066   4.124  10.226   9.535 -0.1056 -0.1115  0.0116
  192loPI   C5A 3067   4.352  10.004   9.168  0.1217 -0.1548  0.2113
  192loPI   C6A 3068   4.608  10.257   8.930  0.1123  0.1944  0.2938
  192loPI   C1B 3069   3.978   9.847  10.394 -0.0037 -0.0137 -0.0222
  192loPI   C2B 3070   4.067   9.798   9.913  0.2282 -0.2919  0.0533
  192loPI   C3B 3071   3.980   9.619   9.511 -0.0970  0.1721  0.0954
  192loPI   C4B 3072   3.860   9.893   9.080 -0.1158  0.1296  0.0329
  193loPI    C1 3073  11.539   8.137  11.299  0.0139  0.0401 -0.0836
  193loPI    C2 3074  11.880   8.103  11.505 -0.0076  0.1668 -0.0263
  193loPI    C3 3075  11.572   8.306  11.659 -0.0908  0.0983 -0.1010
  193loPI   PO4 3076  11.613   8.213  11.032 -0.2460 -0.1647  0.0914
  193loPI   GL1 3077  11.850   8.283  10.712  0.0892  0.1328 -0.0517
  193loPI   GL2 3078  12.113   7.989  10.668  0.1026  0.3090 -0.0916
  193loPI   C1A 3079  11.736   8.061  10.311  0.3633 -0.1715 -0.0685
  193loPI   C2A 3080  11.747   8.046   9.802 -0.1344 -0.0217  0.1483
  193loPI   C3A 3081  11.664   7.953   9.444 -0.1203 -0.1332 -0.0432
  193loPI   C4A 3082  11.657   7.626   9.136 -0.0728  0.0227  0.0211
  193loPI   C5A 3083  11.803   7.416   8.688  0.0077 -0.0597 -0.1156
  193loPI   C6A 3084  11.731   6.947   8.556 -0.3692 -0.1158 -0.0212
  193loPI   C1B 3085  12.148   7.744  10.323  0.0041 -0.0365  0.1155
  193loPI   C2B 3086  12.183   7.601   9.945 -0.2954  0.0742 -0.0124
  193loPI   C3B 3087  12.110   7.646   9.582 -0.0463 -0.0060  0.0384
  193loPI   C4B 3088  12.110   7.448   9.191  0.0643 -0.2677 -0.1922
  194loPI    C1 3089   8.900   6.840  11.899 -0.1161  0.1768 -0.0890
  194loPI    C2 3090   8.523   6.728  11.828 -0.0366 -0.1736  0.0223
  194loPI    C3 3091   8.597   7.034  12.075 -0.2554  0.0870 -0.2276
  194loPI   PO4 3092   8.914   6.891  11.572 -0.1349 -0.0884  0.1385
  194loPI   GL1 3093   8.984   7.078  11.113 -0.2111 -0.0238 -0.0489
  194loPI   GL2 3094   8.915   6.795  11.085  0.1418 -0.0096 -0.0654
  194loPI   C1A 3095   9.218   7.161  10.752  0.0405 -0.2728 -0.0732
  194loPI   C2A 3096   9.182   7.078  10.358  0.0559  0.2532 -0.0854
  194loPI   C3A 3097   9.231   7.031   9.931 -0.0227 -0.1661  0.0225
  194loPI   C4A 3098   9.340   7.006   9.553 -0.0220  0.0498 -0.1567
  194loPI   C5A 3099   9.280   7.046   9.113  0.2028  0.2569  0.4673
  194loPI   C6A 3100   9.316   7.013   8.709 -0.0116 -0.3251  0.0693
  194loPI   C1B 3101   8.745   6.916  10.659 -0.2393 -0.2542 -0.4626
  194loPI   C2B 3102   8.708   6.868  10.142  0.2324 -0.1049  0.1427
  194loPI   C3B 3103   8.744   6.900   9.729 -0.1698 -0.0743  0.3230
  194loPI   C4B 3104   8.824   6.822   9.342 -0.0101 -0.1215  0.0546
  195loPI    C1 3105  11.076  12.011  11.535  0.0850 -0.0561  0.0031
  195loPI    C2 3106  11.230  11.729  11.297 -0.0660 -0.1377  0.0004
  195loPI    C3 3107  11.138  11.642  11.676  0.1282 -0.0213  0.0758
  195loPI   PO4 3108  10.993  12.115  11.450  0.3329  0.0088  0.2847
  195loPI   GL1 3109  10.990  12.103  11.038 -0.1940 -0.0451 -0.0990
  195loPI   GL2 3110  11.182  11.992  10.826 -0.0939  0.1312  0.0419
  195loPI   C1A 3111  10.788  12.212  10.623  0.0056 -0.1430 -0.0044
  195loPI   C2A 3112  10.805  12.279  10.208 -0.0928  0.0312 -0.1454
  195loPI   C3A 3113  10.673  12.346   9.750 -0.0316 -0.1155 -0.4361
  195loPI   C4A 3114  10.613  12.215   9.385 -0.2396 -0.0543 -0.0758
  195loPI   C5A 3115  10.452  11.917   9.077  0.0851 -0.2312 -0.2795
  195loPI   C6A 3116  10.200  11.746   8.858  0.0341 -0.0906 -0.0164
  195loPI   C1B 3117  11.145  11.950  10.392  0.3067  0.2490 -0.2755
  195loPI   C2B 3118  11.173  11.950  10.013  0.0902  0.1898 -0.1865
  195loPI   C3B 3119  11.143  11.969   9.591  0.1896 -0.0099  0.0478
  195loPI   C4B 3120  10.987  11.889   9.148 -0.2880  0.1114  0.0512
  196loPI    C1 3121   0.355  16.426  12.102  0.0118  0.1439  0.2339
  196loPI    C2 3122   0.219  16.791  12.193 -0.1574  0.0441  0.3884
  196loPI    C3 3123   0.482  16.611  12.434 -0.0252  0.0885  0.2790
  196loPI   PO4 3124   0.403  16.371  11.762 -0.2154 -0.0849 -0.0904
  196loPI   GL1 3125   0.115  16.217  11.457  0.0941 -0.2590  0.0419
  196loPI   GL2 3126   0.218  15.839  11.494 -0.2652  0.0957 -0.0791
  196loPI   C1A 3127   0.100  15.988  10.989  0.1116 -0.0813 -0.0061
  196loPI   C2A 3128  -0.095  16.084  10.633  0.1237  0.2568 -0.0731
  196loPI   C3A 3129  -0.054  16.097  10.135  0.0480 -0.3526  0.2835
  196loPI   C4A 3130  -0.002  16.095   9.747  0.0171  0.0035 -0.1235
  196loPI   C5A 3131   0.113  15.804   9.401  0.1798 -0.0518 -0.1879
  196loPI   C6A 3132   0.044  15.449   9.068  0.0340 -0.1376 -0.2173
  196loPI   C1B 3133   0.527  15.650  11.199 -0.1285  0.0117  0.0280
  196loPI   C2B 3134   0.390  15.659  10.796  0.1798  0.4428 -0.0639
  196loPI   C3B 3135   0.324  15.678  10.307  0.3362  0.2128  0.1236
  196loPI   C4B 3136   0.339  15.771   9.899 -0.0110 -0.3836  0.0692
  197loPI    C1 3137   1.531   3.253  11.513 -0.0736 -0.2128  0.0174
  197loPI    C2 3138   1.350   3.202  11.866 -0.2128 -0.1189 -0.0391
  197loPI    C3 3139   1.268   2.956  11.562 -0.2429 -0.0782 -0.0638
  197loPI   PO4 3140   1.803   3.272  11.562 -0.0544  0.0668  0.1657
  197loPI   GL1 3141   2.011   3.048  11.327  0.2336  0.0001 -0.2106
  197loPI   GL2 3142   2.150   3.073  11.117  0.1185 -0.4800  0.1230
  197loPI   C1A 3143   1.642   2.889  11.082 -0.0888 -0.1887  0.0264
  197loPI   C2A 3144   1.315   3.119  11.055 -0.1481 -0.0898  0.0272
  197loPI   C3A 3145   1.087   3.315  10.785 -0.3924  0.3018  0.0342
  197loPI   C4A 3146   1.040   3.275  10.385  0.0199  0.1396  0.0253
  197loPI   C5A 3147   1.146   3.197   9.973  0.0735  0.0500 -0.0640
  197loPI   C6A 3148   1.144   3.228   9.657 -0.0326  0.0457 -0.0910
  197loPI   C1B 3149   1.894   3.145  10.758 -0.0936  0.0766  0.0730
  197loPI   C2B 3150   1.506   3.018  10.614  0.0486 -0.0218  0.0150
  197loPI   C3B 3151   1.541   2.956  10.192 -0.0534 -0.2154 -0.2055
  197loPI   C4B 3152   1.611   2.924   9.719 -0.0213 -0.1975 -0.1353
  198loPI    C1 3153   9.477   1.735  11.253 -0.0318  0.2409 -0.0308
  198loPI    C2 3154   9.188   1.463  11.307  0.1019  0.1085  0.0263
  198loPI    C3 3155   9.490   1.488  11.567  0.3799 -0.0583 -0.2739
  198loPI   PO4 3156   9.570   1.695  11.032 -0.0106  0.1117  0.1868
  198loPI   GL1 3157   9.717   1.375  10.647 -0.1247  0.1333  0.1271
  198loPI   GL2 3158   9.563   1.378  10.416  0.1652 -0.0134 -0.0014
  198loPI   C1A 3159  10.059   1.494  10.508 -0.1844 -0.2966  0.2662
  198loPI   C2A 3160  10.257   1.459  10.144  0.0088  0.1075 -0.0504
  198loPI   C3A 3161  10.260   1.548   9.751  0.2886  0.1524 -0.0066
  198loPI   C4A 3162   9.980   1.399   9.426 -0.1880  0.0205  0.2930
  198loPI   C5A 3163   9.915   1.199   9.143 -0.0272  0.2500  0.1146
  198loPI   C6A 3164   9.929   1.139   8.709 -0.1483  0.0234  0.4054
  198loPI   C1B 3165   9.289   1.272  10.047  0.0075 -0.0589 -0.0489
  198loPI   C2B 3166   9.180   0.939   9.788 -0.0228 -0.3177  0.1078
  198loPI   C3B 3167   9.048   0.784   9.327  0.0875  0.0632 -0.1491
  198loPI   C4B 3168   9.162   0.612   8.964 -0.2098 -0.2929  0.3811
  199loPI    C1 3169   7.304   0.714  11.677  0.0414 -0.0090  0.0235
  199loPI    C2 3170   7.609   0.965  11.738  0.1735 -0.2059  0.1903
  199loPI    C3 3171   7.677   0.573  11.707 -0.0206 -0.2159 -0.1567
  199loPI   PO4 3172   7.065   0.896  11.512 -0.1907  0.0545  0.0423
  199loPI   GL1 3173   6.955   1.125  11.150  0.3769 -0.0238 -0.0933
  199loPI   GL2 3174   7.060   0.883  11.007  0.1130  0.1623 -0.0577
  199loPI   C1A 3175   6.903   1.316  10.783 -0.1612 -0.1542  0.0158
  199loPI   C2A 3176   6.849   1.380  10.315 -0.0693 -0.1957 -0.2549
  199loPI   C3A 3177   6.823   1.477   9.930  0.1374  0.0414 -0.1628
  199loPI   C4A 3178   6.650   1.399   9.528  0.0816  0.1451  0.1443
  199loPI   C5A 3179   6.567   1.444   9.042 -0.0946  0.0531 -0.1805
  199loPI   C6A 3180   6.156   1.401   8.802  0.1472 -0.1017 -0.1185
  199loPI   C1B 3181   6.998   0.888  10.609 -0.1569 -0.0259  0.0386
  199loPI   C2B 3182   7.102   0.577  10.210  0.1202 -0.0129 -0.0206
  199loPI   C3B 3183   7.217   0.534   9.803 -0.0157 -0.1467  0.0096
  199loPI   C4B 3184   7.090   0.528   9.347 -0.1082  0.0747 -0.1211
  200loPI    C1 3185  15.764  11.496  11.756 -0.0582  0.1732  0.0718
  200loPI    C2 3186  15.371  11.570  11.775 -0.1083 -0.0958  0.1253
  200loPI    C3 3187  15.594  11.588  12.106 -0.1003 -0.0759  0.1189
  200loPI   PO4 3188  15.834  11.730  11.512  0.1656  0.0083 -0.0477
  200loPI   GL1 3189  15.917  11.962  11.162  0.1891  0.1113 -0.0297
  200loPI   GL2 3190  16.175  12.025  11.098  0.0193  0.1080 -0.0585
  200loPI   C1A 3191  15.640  11.950  10.795 -0.1422 -0.0911 -0.0433
  200loPI   C2A 3192  15.540  12.049  10.424  0.0099  0.0050  0.5196
  200loPI   C3A 3193  15.574  12.061  10.055  0.0220  0.0339  0.3168
  200loPI   C4A 3194  15.472  12.049   9.620 -0.0476 -0.2839 -0.0451
  200loPI   C5A 3195  15.590  12.305   9.175  0.1656 -0.0470 -0.2675
  200loPI   C6A 3196  15.682  12.699   9.066 -0.2440  0.0109 -0.1122
  200loPI   C1B 3197  16.055  12.203  10.714 -0.2020  0.0225 -0.0120
  200loPI   C2B 3198  15.967  12.217  10.319  0.0043 -0.0660  0.0737
  200loPI   C3B 3199  15.999  12.258   9.914 -0.0662  0.1316 -0.1239
  200loPI   C4B 3200  16.055  12.430   9.411  0.2072  0.2142  0.1617
  201loPI    C1 3201   4.332  16.584  11.868  0.0139  0.1123  0.1343
  201loPI    C2 3202   4.012  16.586  12.107 -0.0685  0.3481  0.0256
  201loPI    C3 3203   4.365  16.713  12.245 -0.0740  0.3097  0.0756
  201loPI   PO4 3204   4.321  16.724  11.673 -0.2741 -0.1594  0.2378
  201loPI   GL1 3205   4.256  16.733  11.185  0.3205  0.1584 -0.0940
  201loPI   GL2 3206   4.070  17.084  11.292 -0.1286 -0.2590 -0.2796
  201loPI   C1A 3207   4.262  16.738  10.747 -0.3850  0.1723 -0.0402
  201loPI   C2A 3208   4.219  16.765  10.302  0.1999  0.0492 -0.0561
  201loPI   C3A 3209   4.249  16.769   9.926 -0.0337  0.0934 -0.2500
  201loPI   C4A 3210   4.164  16.689   9.563 -0.1063  0.2059  0.0207
  201loPI   C5A 3211   4.050  16.763   9.174 -0.1219 -0.0292  0.1890
  201loPI   C6A 3212   3.629  16.659   8.808 -0.0463  0.1712 -0.0936
  201loPI   C1B 3213   3.900  17.063  10.856  0.0051  0.0376 -0.1174
  201loPI   C2B 3214   3.874  17.105  10.465  0.1016 -0.1273 -0.1543
  201loPI   C3B 3215   3.798  16.997  10.004 -0.0308  0.0582  0.1378
  201loPI   C4B 3216   3.866  17.035   9.525  0.1097 -0.1184  0.3236
  202loPI    C1 3217   7.740   2.376  11.726  0.1308 -0.0037 -0.0329
  202loPI    C2 3218   7.477   2.136  11.544  0.0533  0.0005  0.0723
  202loPI    C3 3219   7.427   2.232  11.929  0.1576  0.0775  0.0673
  202loPI   PO4 3220   7.856   2.464  11.555  0.1735 -0.0014 -0.0203
  202loPI   GL1 3221   7.789   2.531  11.172 -0.3817  0.2569 -0.0294
  202loPI   GL2 3222   7.993   2.649  10.940  0.0108 -0.1563  0.0172
  202loPI   C1A 3223   7.561   2.495  10.848 -0.1026 -0.1459  0.1355
  202loPI   C2A 3224   7.586   2.622  10.438  0.0993 -0.0036  0.0340
  202loPI   C3A 3225   7.507   2.613  10.047 -0.2849 -0.3309  0.3891
  202loPI   C4A 3226   7.498   2.471   9.612 -0.0305  0.3835  0.0731
  202loPI   C5A 3227   7.536   2.387   9.250 -0.2193 -0.1205  0.0994
  202loPI   C6A 3228   7.269   2.443   8.967 -0.1610 -0.1238  0.0673
  202loPI   C1B 3229   8.057   2.752  10.554  0.3058  0.2170  0.0469
  202loPI   C2B 3230   7.931   2.802  10.145  0.1528 -0.2154  0.1339
  202loPI   C3B 3231   7.951   2.736   9.708 -0.1224 -0.0680  0.0186
  202loPI   C4B 3232   8.093   2.771   9.240 -0.3385  0.0755 -0.0352
  203loPI    C1 3233   2.748  15.406  11.870 -0.0579  0.0010 -0.0013
  203loPI    C2 3234   2.454  15.236  12.080 -0.1813  0.2088 -0.0028
  203loPI    C3 3235   2.679  15.521  12.247 -0.0147  0.0886 -0.0198
  203loPI   PO4 3236   2.636  15.457  11.611 -0.1178  0.0702 -0.1459
  203loPI   GL1 3237   2.722  15.203  11.275  0.3208 -0.0184  0.2564
  203loPI   GL2 3238   2.802  14.856  11.213  0.1874 -0.0818 -0.0144
  203loPI   C1A 3239   2.374  15.388  11.049  0.1995  0.2374 -0.2176
  203loPI   C2A 3240   2.090  15.359  10.657 -0.0837  0.0107  0.2070
  203loPI   C3A 3241   2.069  15.466  10.237  0.2423  0.2623 -0.2611
  203loPI   C4A 3242   2.045  15.531   9.837 -0.0770  0.1642  0.2271
  203loPI   C5A 3243   1.843  15.410   9.447 -0.3120  0.1521 -0.1679
  203loPI   C6A 3244   1.635  15.350   9.051 -0.0745 -0.3026 -0.1408
  203loPI   C1B 3245   2.604  14.991  10.776 -0.2017 -0.3011  0.0132
  203loPI   C2B 3246   2.440  15.032  10.390 -0.0545 -0.2259 -0.1248
  203loPI   C3B 3247   2.508  15.160   9.848  0.1438 -0.0271  0.0012
  203loPI   C4B 3248   2.330  15.277   9.507 -0.0543 -0.1438 -0.0928
  204loPI    C1 3249  15.079   2.147  12.123 -0.2195  0.0943 -0.1233
  204loPI    C2 3250  14.939   2.337  12.446  0.0484  0.0675  0.0113
  204loPI    C3 3251  14.965   1.938  12.445  0.0190  0.0658 -0.0553
  204loPI   PO4 3252  14.984   2.379  11.921 -0.1381 -0.1455 -0.0517
  204loPI   GL1 3253  14.944   2.214  11.521 -0.1279 -0.1630 -0.0036
  204loPI   GL2 3254  15.145   2.367  11.427 -0.3538  0.0665  0.0188
  204loPI   C1A 3255  14.879   1.940  11.171  0.3768  0.4421  0.2684
  204loPI   C2A 3256  14.844   1.966  10.740  0.0674  0.0541  0.1660
  204loPI   C3A 3257  14.883   1.931  10.352  0.1951 -0.3729  0.0238
  204loPI   C4A 3258  14.874   1.976   9.926  0.3116  0.1412  0.3882
  204loPI   C5A 3259  15.025   2.119   9.428  0.1463 -0.1115  0.2048
  204loPI   C6A 3260  15.046   2.474   9.181  0.0316  0.0283 -0.0410
  204loPI   C1B 3261  15.040   2.402  10.959  0.0005 -0.2246  0.0481
  204loPI   C2B 3262  14.975   2.409  10.529  0.2350  0.0778  0.3392
  204loPI   C3B 3263  14.922   2.465  10.066  0.0469  0.0325  0.0034
  204loPI   C4B 3264  14.924   2.534   9.669  0.2364 -0.1314 -0.1312
  205loPI    C1 3265  17.117   0.728  11.738 -0.0602 -0.1395  0.0010
  205loPI    C2 3266  17.003   0.994  12.014 -0.2395 -0.0750 -0.1329
  205loPI    C3 3267  16.999   0.603  12.099  0.1009 -0.0341  0.0914
  205loPI   PO4 3268  17.357   0.799  11.706 -0.2281 -0.0223  0.2141
  205loPI   GL1 3269  17.529   0.581  11.377 -0.1549 -0.0039 -0.0417
  205loPI   GL2 3270  17.303   0.492  11.265  0.1561 -0.0342  0.0853
  205loPI   C1A 3271  17.818   0.609  11.163  0.1952 -0.1857 -0.4991
  205loPI   C2A 3272  17.842   0.706  10.725  0.1061  0.2410 -0.0303
  205loPI   C3A 3273  17.852   0.631  10.288 -0.0276 -0.1559 -0.1664
  205loPI   C4A 3274  17.876   0.624   9.871 -0.2354 -0.0123  0.1041
  205loPI   C5A 3275  18.006   0.778   9.462  0.0412 -0.1743  0.1664
  205loPI   C6A 3276  18.179   0.881   9.159  0.3831  0.2143 -0.0405
  205loPI   C1B 3277  17.463   0.427  10.837 -0.1212 -0.1652  0.0771
  205loPI   C2B 3278  17.389   0.488  10.391 -0.1002 -0.0399  0.1395
  205loPI   C3B 3279  17.359   0.488   9.956 -0.0307  0.4040 -0.2725
  205loPI   C4B 3280  17.505   0.436   9.516  0.3659 -0.0461 -0.1474
  206loPI    C1 3281  14.497  12.245  11.763  0.3105 -0.0500 -0.0333
  206loPI    C2 3282  14.682  12.225  12.117  0.1160  0.0074  0.0732
  206loPI    C3 3283  14.646  11.897  11.892 -0.0142 -0.0941  0.2392
  206loPI   PO4 3284  14.555  12.485  11.626 -0.0210  0.0898  0.2996
  206loPI   GL1 3285  14.674  12.499  11.173  0.0694 -0.3128 -0.1983
  206loPI   GL2 3286  14.681  12.230  10.954  0.0755  0.3114 -0.1658
  206loPI   C1A 3287  14.688  12.662  10.804  0.1689  0.0952 -0.3792
  206loPI   C2A 3288  14.785  12.647  10.408  0.1610 -0.1449  0.1906
  206loPI   C3A 3289  14.741  12.672  10.046  0.0966  0.4023 -0.2870
  206loPI   C4A 3290  14.676  12.711   9.626  0.0648  0.2031  0.0755
  206loPI   C5A 3291  14.654  12.623   9.247 -0.2091  0.2506 -0.0822
  206loPI   C6A 3292  14.254  12.562   8.991  0.1795 -0.0953  0.1375
  206loPI   C1B 3293  14.614  12.200  10.562 -0.0467 -0.0820  0.4300
  206loPI   C2B 3294  14.691  12.113  10.250 -0.1179 -0.1896 -0.0823
  206loPI   C3B 3295  14.616  12.192   9.824 -0.0105 -0.1915  0.0299
  206loPI   C4B 3296  14.624  12.119   9.365  0.0694  0.1687  0.1399
  207loPI    C1 3297  11.744  10.906  11.443 -0.1975  0.2249 -0.0033
  207loPI    C2 3298  11.489  10.634  11.298 -0.1423  0.1225  0.0906
  207loPI    C3 3299  11.516  10.692  11.693  0.0215  0.0905  0.0848
  207loPI   PO4 3300  11.745  11.045  11.239  0.2150  0.1082 -0.2646
  207loPI   GL1 3301  11.631  10.985  10.914 -0.1706 -0.1493  0.1601
  207loPI   GL2 3302  11.282  10.909  10.973  0.0887  0.0582 -0.0126
  207loPI   C1A 3303  11.496  11.092  10.527  0.1282  0.1334 -0.2717
  207loPI   C2A 3304  11.546  11.190  10.030  0.2791 -0.0192 -0.0111
  207loPI   C3A 3305  11.350  11.156   9.638  0.4043  0.1921  0.1104
  207loPI   C4A 3306  11.417  11.039   9.307 -0.1005 -0.2212  0.1977
  207loPI   C5A 3307  11.703  11.185   8.948 -0.0720 -0.1252 -0.0639
  207loPI   C6A 3308  11.901  11.091   8.718  0.4088  0.2025  0.0499
  207loPI   C1B 3309  11.020  10.907  10.716 -0.1421  0.4125 -0.1802
  207loPI   C2B 3310  11.050  11.016  10.255  0.2686 -0.3905  0.1198
  207loPI   C3B 3311  10.960  10.985   9.848  0.2005  0.0534 -0.3928
  207loPI   C4B 3312  10.813  11.030   9.516 -0.0051  0.2334  0.1124
  208loPI    C1 3313   4.318   3.650  12.347 -0.0060 -0.1620  0.2772
  208loPI    C2 3314   4.643   3.880  12.305  0.0102 -0.1755  0.3287
  208loPI    C3 3315   4.591   3.665  12.639 -0.0780 -0.1318  0.3434
  208loPI   PO4 3316   4.276   3.655  12.004 -0.2424 -0.0729  0.2252
  208loPI   GL1 3317   4.317   3.695  11.527  0.0391 -0.2007  0.0131
  208loPI   GL2 3318   4.622   3.614  11.364 -0.0795 -0.1586  0.1020
  208loPI   C1A 3319   4.115   3.911  11.178 -0.0733  0.0112 -0.0515
  208loPI   C2A 3320   4.108   3.966  10.730 -0.1923 -0.1157 -0.0688
  208loPI   C3A 3321   3.948   3.854  10.365 -0.0574 -0.0201 -0.2768
  208loPI   C4A 3322   3.961   3.821   9.860 -0.0635  0.2945  0.1301
  208loPI   C5A 3323   3.691   3.680   9.563  0.0649 -0.0656 -0.2517
  208loPI   C6A 3324   3.453   3.568   9.217  0.1726 -0.1107  0.0294
  208loPI   C1B 3325   4.443   3.663  10.909 -0.1528  0.4769 -0.0143
  208loPI   C2B 3326   4.450   3.452  10.480  0.2333  0.0843 -0.1890
  208loPI   C3B 3327   4.380   3.490  10.063  0.0015  0.1013 -0.0401
  208loPI   C4B 3328   4.355   3.541   9.549 -0.5689  0.2553  0.0636
  209loPI    C1 3329  12.215  10.041  11.539  0.1852 -0.1652 -0.0121
  209loPI    C2 3330  12.283   9.657  11.627  0.0912 -0.1388  0.1818
  209loPI    C3 3331  12.209   9.919  11.920  0.0894  0.0148  0.0453
  209loPI   PO4 3332  12.191  10.035  11.266 -0.0012 -0.0433 -0.0179
  209loPI   GL1 3333  12.204  10.122  10.855  0.1216  0.0596 -0.1319
  209loPI   GL2 3334  12.201   9.864  10.646 -0.1961 -0.1594  0.2543
  209loPI   C1A 3335  12.014  10.280  10.497 -0.2784 -0.0377 -0.3040
  209loPI   C2A 3336  11.818  10.213  10.068 -0.2470  0.2282 -0.0739
  209loPI   C3A 3337  11.785  10.069   9.745  0.0479  0.0513  0.0416
  209loPI   C4A 3338  11.746  10.270   9.394  0.0128 -0.2039  0.5086
  209loPI   C5A 3339  11.510  10.562   9.104 -0.1675 -0.0186 -0.1427
  209loPI   C6A 3340  11.347  10.750   8.715 -0.2075  0.3778 -0.2352
  209loPI   C1B 3341  12.236   9.915  10.253 -0.2566 -0.0915 -0.2198
  209loPI   C2B 3342  12.258   9.884   9.856 -0.0982 -0.0990 -0.2538
  209loPI   C3B 3343  12.205   9.844   9.431 -0.1406  0.2687 -0.3225
  209loPI   C4B 3344  11.982   9.883   9.047  0.0894  0.1651  0.3154
  210loPI    C1 3345  10.259   8.371  11.499  0.1637 -0.3233  0.1968
  210loPI    C2 3346  10.216   8.651  11.782  0.0955 -0.1189 -0.0126
  210loPI    C3 3347  10.069   8.283  11.840 -0.1038 -0.0184  0.1314
  210loPI   PO4 3348  10.239   8.516  11.290  0.2515 -0.1909 -0.0491
  210loPI   GL1 3349  10.310   8.316  10.967 -0.0310 -0.1566  0.1200
  210loPI   GL2 3350  10.015   8.241  10.790 -0.1655 -0.1081  0.1482
  210loPI   C1A 3351  10.415   8.428  10.519  0.3485  0.3477 -0.1608
  210loPI   C2A 3352  10.417   8.425  10.101 -0.2594 -0.1927 -0.0542
  210loPI   C3A 3353  10.384   8.383   9.624  0.0101  0.0480  0.0944
  210loPI   C4A 3354  10.464   8.303   9.159  0.5570  0.1914 -0.1536
  210loPI   C5A 3355  10.360   8.131   8.686 -0.2815 -0.1764 -0.0302
  210loPI   C6A 3356   9.918   8.139   8.485  0.0654 -0.1341  0.3732
  210loPI   C1B 3357   9.933   8.220  10.371 -0.0129  0.2755 -0.0699
  210loPI   C2B 3358   9.891   8.233   9.926 -0.0954  0.2368 -0.1339
  210loPI   C3B 3359   9.849   8.331   9.499 -0.3211  0.2336 -0.4808
  210loPI   C4B 3360   9.913   8.228   9.088  0.0985  0.1926 -0.1982
  211loPI    C1 3361   8.574  13.069  11.691 -0.2271  0.1360 -0.1310
  211loPI    C2 3362   8.291  12.951  11.948 -0.2542 -0.0718 -0.2542
  211loPI    C3 3363   8.674  12.962  12.063 -0.2659 -0.1653 -0.2049
  211loPI   PO4 3364   8.524  12.883  11.445  0.1342 -0.3423  0.1593
  211loPI   GL1 3365   8.645  12.825  11.006 -0.1239 -0.0732 -0.1286
  211loPI   GL2 3366   8.590  13.076  10.824 -0.1001  0.2221  0.0536
  211loPI   C1A 3367   8.429  12.566  10.755  0.1060 -0.0863 -0.0795
  211loPI   C2A 3368   8.584  12.471  10.432  0.2476  0.1528  0.0853
  211loPI   C3A 3369   8.482  12.503  10.142 -0.0032 -0.1743  0.4369
  211loPI   C4A 3370   8.438  12.511   9.733  0.2707  0.2056 -0.1580
  211loPI   C5A 3371   8.376  12.484   9.299  0.1252 -0.0575  0.1349
  211loPI   C6A 3372   8.187  12.638   8.906  0.2846  0.0381 -0.0550
  211loPI   C1B 3373   8.600  12.991  10.427  0.0326  0.1615 -0.1124
  211loPI   C2B 3374   8.531  13.049   9.962  0.0564 -0.1525 -0.2985
  211loPI   C3B 3375   8.540  13.060   9.566 -0.2169  0.1602  0.4696
  211loPI   C4B 3376   8.591  12.914   9.116 -0.2175  0.0980 -0.1651
  212loPI    C1 3377   7.959   4.390  11.495  0.0094  0.0911  0.0588
  212loPI    C2 3378   8.145   4.066  11.352  0.1446  0.1022  0.2057
  212loPI    C3 3379   8.162   4.149  11.743  0.0734  0.2631  0.1752
  212loPI   PO4 3380   8.098   4.545  11.333  0.1157  0.0142  0.1721
  212loPI   GL1 3381   8.097   4.704  10.942 -0.1590 -0.0454 -0.1517
  212loPI   GL2 3382   7.796   4.761  10.922  0.2972 -0.0860  0.1441
  212loPI   C1A 3383   8.284   4.666  10.541 -0.1254 -0.1533 -0.2710
  212loPI   C2A 3384   8.408   4.680  10.158 -0.2396 -0.1393 -0.0327
  212loPI   C3A 3385   8.536   4.777   9.798 -0.1707 -0.2309 -0.2563
  212loPI   C4A 3386   8.359   4.789   9.400  0.0625  0.2625 -0.1252
  212loPI   C5A 3387   8.159   4.778   9.026 -0.1699 -0.1578 -0.1699
  212loPI   C6A 3388   7.952   4.722   8.703  0.2125  0.0424  0.1367
  212loPI   C1B 3389   7.793   4.767  10.430 -0.2111 -0.0798 -0.1075
  212loPI   C2B 3390   7.809   4.779  10.095 -0.2790  0.1330  0.1633
  212loPI   C3B 3391   7.875   4.768   9.651 -0.2840 -0.1979  0.0302
  212loPI   C4B 3392   7.764   4.669   9.265  0.0614  0.0889 -0.2566
  213loPI    C1 3393  10.825  16.051  11.223  0.1717  0.0417 -0.1046
  213loPI    C2 3394  10.691  16.363  11.433  0.0708  0.0064 -0.1160
  213loPI    C3 3395  10.654  15.993  11.580 -0.0857 -0.0270 -0.2364
  213loPI   PO4 3396  10.769  15.993  11.017 -0.0870  0.0990  0.1100
  213loPI   GL1 3397  10.718  15.662  10.699  0.0807 -0.1992 -0.1326
  213loPI   GL2 3398  10.375  15.648  10.696  0.0242 -0.1572  0.1915
  213loPI   C1A 3399  10.797  15.546  10.292 -0.0907  0.1296  0.0140
  213loPI   C2A 3400  10.611  15.483   9.949 -0.4017 -0.1118  0.2301
  213loPI   C3A 3401  10.430  15.442   9.582  0.1260  0.2530 -0.3347
  213loPI   C4A 3402  10.524  15.294   9.202 -0.1486 -0.1076  0.0918
  213loPI   C5A 3403  10.746  15.188   8.944 -0.0435 -0.0016 -0.0282
  213loPI   C6A 3404  10.789  15.307   8.472 -0.0696  0.2091  0.0431
  213loPI   C1B 3405  10.282  15.756  10.293  0.0155 -0.0857  0.2389
  213loPI   C2B 3406  10.168  15.825   9.923 -0.2866  0.2840  0.2472
  213loPI   C3B 3407  10.172  15.880   9.511 -0.1272 -0.0290  0.0748
  213loPI   C4B 3408  10.082  15.809   9.093  0.2979 -0.3367  0.1738
  214loPI    C1 3409  11.925   6.447  11.432 -0.0709 -0.0836  0.2171
  214loPI    C2 3410  11.929   6.689  11.750 -0.0559 -0.0216  0.1700
  214loPI    C3 3411  11.975   6.295  11.799 -0.0216 -0.0090  0.2415
  214loPI   PO4 3412  11.675   6.514  11.287  0.2571 -0.1007  0.0241
  214loPI   GL1 3413  11.452   6.139  11.080  0.0967  0.1164 -0.0700
  214loPI   GL2 3414  11.433   6.439  10.893  0.1148 -0.0679 -0.1053
  214loPI   C1A 3415  11.324   6.033  10.666 -0.1838  0.0076 -0.0042
  214loPI   C2A 3416  11.415   5.916  10.287 -0.0552  0.2377  0.2346
  214loPI   C3A 3417  11.404   5.796   9.810 -0.4048 -0.0393 -0.0055
  214loPI   C4A 3418  11.397   5.693   9.351  0.1662  0.1354  0.2291
  214loPI   C5A 3419  11.450   5.725   8.853 -0.1576  0.1517 -0.2342
  214loPI   C6A 3420  11.565   6.111   8.606 -0.1959  0.0047  0.0139
  214loPI   C1B 3421  11.442   6.440  10.409 -0.0323  0.2261 -0.0432
  214loPI   C2B 3422  11.437   6.309   9.910 -0.2619  0.2841 -0.4532
  214loPI   C3B 3423  11.506   6.155   9.500  0.3080 -0.2082 -0.2947
  214loPI   C4B 3424  11.410   6.214   9.134 -0.2387  0.0055 -0.1557
  215loPI    C1 3425   2.242   5.090  11.996 -0.1277  0.0662 -0.0314
  215loPI    C2 3426   2.615   5.233  12.019 -0.1264  0.0731 -0.0943
  215loPI    C3 3427   2.468   5.011  12.317 -0.1133  0.1685 -0.0162
  215loPI   PO4 3428   2.374   4.894  11.727  0.2445 -0.1345 -0.1178
  215loPI   GL1 3429   2.250   4.872  11.278  0.1405  0.0420 -0.1265
  215loPI   GL2 3430   2.001   4.975  11.083  0.1154 -0.0019 -0.1913
  215loPI   C1A 3431   2.438   4.704  10.869 -0.0580 -0.4528 -0.0260
  215loPI   C2A 3432   2.303   4.659  10.459 -0.2441  0.1993  0.2098
  215loPI   C3A 3433   2.339   4.674  10.059 -0.1841  0.1707 -0.1643
  215loPI   C4A 3434   2.322   4.752   9.621  0.0606 -0.0450  0.3649
  215loPI   C5A 3435   2.493   4.516   9.288  0.2365  0.2527  0.1119
  215loPI   C6A 3436   2.621   4.037   9.194  0.0907  0.0657  0.1637
  215loPI   C1B 3437   2.030   5.015  10.726  0.0916 -0.3415 -0.0297
  215loPI   C2B 3438   1.894   4.933  10.323  0.3161  0.0488  0.0364
  215loPI   C3B 3439   1.982   4.980   9.947  0.3317 -0.3319 -0.0448
  215loPI   C4B 3440   1.869   5.049   9.570 -0.0580  0.1775  0.1182
  216loPI    C1 3441   3.896   8.548  11.188 -0.4236  0.0605 -0.0256
  216loPI    C2 3442   3.846   8.348  11.531 -0.0333  0.0093  0.0059
  216loPI    C3 3443   3.883   8.148  11.186 -0.4096  0.0602 -0.0683
  216loPI   PO4 3444   3.697   8.652  11.147  0.1169  0.2143 -0.1288
  216loPI   GL1 3445   3.659   8.868  10.840  0.1809 -0.0655  0.0235
  216loPI   GL2 3446   3.392   9.038  10.815 -0.0382  0.1163 -0.1882
  216loPI   C1A 3447   3.821   8.709  10.351  0.1202 -0.0392  0.1740
  216loPI   C2A 3448   3.857   8.653   9.908  0.0041 -0.0298 -0.1212
  216loPI   C3A 3449   3.837   8.668   9.472 -0.0986 -0.2054  0.1954
  216loPI   C4A 3450   3.534   8.816   9.192  0.2413  0.1974  0.2789
  216loPI   C5A 3451   3.377   8.693   8.821  0.1097  0.0958 -0.2649
  216loPI   C6A 3452   3.023   8.409   8.811  0.2275 -0.1330  0.1269
  216loPI   C1B 3453   3.426   9.040  10.389  0.2430  0.3174 -0.2399
  216loPI   C2B 3454   3.524   9.035   9.951 -0.1060 -0.1196 -0.0208
  216loPI   C3B 3455   3.666   9.157   9.634 -0.2847  0.1949 -0.0304
  216loPI   C4B 3456   3.771   9.320   9.141 -0.0964 -0.0113 -0.0460
  217loPI    C1 3457   8.983  14.623  11.629  0.3208 -0.0648 -0.0991
  217loPI    C2 3458   9.327  14.436  11.710  0.4028  0.1923  0.1617
  217loPI    C3 3459   9.163  14.679  11.982 -0.0239  0.0175  0.0678
  217loPI   PO4 3460   9.011  14.541  11.352 -0.0898  0.0179  0.2609
  217loPI   GL1 3461   9.014  14.268  11.028  0.2862  0.0580  0.0883
  217loPI   GL2 3462   8.816  14.055  10.835  0.4091 -0.1997 -0.0991
  217loPI   C1A 3463   9.246  14.207  10.592  0.2367 -0.1038  0.0198
  217loPI   C2A 3464   9.308  14.229  10.106  0.0317 -0.0208 -0.0254
  217loPI   C3A 3465   9.301  14.257   9.662  0.1688 -0.0851  0.2350
  217loPI   C4A 3466   9.315  14.132   9.234  0.2597 -0.1502 -0.0223
  217loPI   C5A 3467   9.142  13.970   8.849 -0.1769 -0.3808 -0.0345
  217loPI   C6A 3468   8.855  14.192   8.581 -0.4408  0.1549  0.2620
  217loPI   C1B 3469   8.800  14.006  10.387  0.0792 -0.1786  0.1914
  217loPI   C2B 3470   8.871  14.033   9.971  0.0473 -0.1871  0.2516
  217loPI   C3B 3471   8.804  14.063   9.566 -0.0153  0.2007  0.0093
  217loPI   C4B 3472   8.709  14.082   9.089 -0.1208  0.1248 -0.2084
  218loPI    C1 3473   9.901   3.752  11.627 -0.0765 -0.0983 -0.0174
  218loPI    C2 3474   9.977   4.139  11.557 -0.0059 -0.1305 -0.1202
  218loPI    C3 3475   9.828   4.025  11.910  0.1161 -0.0274 -0.0349
  218loPI   PO4 3476  10.112   3.639  11.427 -0.0532  0.2724 -0.1040
  218loPI   GL1 3477  10.114   3.533  10.943 -0.0071  0.0442  0.2100
  218loPI   GL2 3478   9.904   3.419  11.063  0.2453  0.2101 -0.0859
  218loPI   C1A 3479  10.156   3.468  10.474 -0.1624 -0.1265 -0.1064
  218loPI   C2A 3480  10.166   3.434  10.061 -0.2008  0.2758  0.2987
  218loPI   C3A 3481  10.149   3.395   9.559 -0.1470 -0.2154  0.1208
  218loPI   C4A 3482  10.247   3.527   9.122 -0.3205 -0.0472  0.0077
  218loPI   C5A 3483  10.642   3.475   9.002  0.0055  0.2296  0.0849
  218loPI   C6A 3484  10.861   3.829   8.718 -0.0241 -0.0957  0.0250
  218loPI   C1B 3485   9.706   3.453  10.666  0.1648  0.0728  0.0822
  218loPI   C2B 3486   9.658   3.565  10.235  0.2384 -0.0909 -0.0232
  218loPI   C3B 3487   9.580   3.413   9.675  0.1345 -0.1235  0.1392
  218loPI   C4B 3488   9.579   3.355   9.173 -0.1414 -0.0183 -0.1938
  219loPI    C1 3489  10.914   4.752  11.681  0.0889 -0.0824  0.0556
  219loPI    C2 3490  10.640   4.600  11.931  0.0654  0.1371  0.1659
  219loPI    C3 3491  10.979   4.755  12.076  0.1259  0.1154  0.0489
  219loPI   PO4 3492  10.799   4.965  11.527  0.0222 -0.1929  0.0630
  219loPI   GL1 3493  10.916   5.279  11.141 -0.0195 -0.0475 -0.3199
  219loPI   GL2 3494  10.746   4.948  11.026  0.0264 -0.3073  0.2552
  219loPI   C1A 3495  10.763   5.297  10.699  0.0000 -0.1623  0.1285
  219loPI   C2A 3496  10.829   5.161  10.252  0.0900  0.0661 -0.0473
  219loPI   C3A 3497  10.797   5.094   9.908 -0.3218  0.2848  0.1067
  219loPI   C4A 3498  10.849   5.066   9.413  0.0935  0.0461 -0.1255
  219loPI   C5A 3499  11.276   5.106   9.159 -0.5264 -0.0687 -0.1203
  219loPI   C6A 3500  11.584   5.031   8.875  0.2827  0.2480 -0.1402
  219loPI   C1B 3501  10.724   4.737  10.592  0.3811  0.1385  0.2419
  219loPI   C2B 3502  10.754   4.659  10.183 -0.3197  0.1052 -0.1486
  219loPI   C3B 3503  10.744   4.643   9.716 -0.1144 -0.0691 -0.1704
  219loPI   C4B 3504  10.920   4.673   9.201  0.0648  0.3301 -0.3044
  220loPI    C1 3505  10.272  11.138  11.935 -0.2193  0.0757 -0.2296
  220loPI    C2 3506  10.360  11.090  12.322  0.4247  0.3552 -0.3283
  220loPI    C3 3507  10.042  11.307  12.214  0.1675  0.1711  0.0393
  220loPI   PO4 3508  10.155  10.903  11.747  0.0265  0.0351 -0.3789
  220loPI   GL1 3509  10.175  10.912  11.255  0.2919 -0.1800 -0.1739
  220loPI   GL2 3510   9.936  11.145  11.223  0.0902 -0.1112  0.0038
  220loPI   C1A 3511  10.199  10.997  10.806 -0.0725 -0.2055  0.0166
  220loPI   C2A 3512  10.079  11.136  10.323 -0.2647 -0.0087  0.1772
  220loPI   C3A 3513  10.013  11.143   9.855 -0.1322 -0.0791 -0.2238
  220loPI   C4A 3514  10.006  11.114   9.445 -0.0857 -0.1082  0.1077
  220loPI   C5A 3515  10.114  11.132   9.029  0.1159 -0.0954 -0.0015
  220loPI   C6A 3516  10.515  11.170   8.747 -0.0426  0.0655  0.1166
  220loPI   C1B 3517   9.761  11.378  10.812 -0.0403  0.1705  0.0361
  220loPI   C2B 3518   9.687  11.520  10.325  0.0451 -0.0643  0.0922
  220loPI   C3B 3519   9.554  11.510   9.970 -0.2287 -0.2075 -0.2559
  220loPI   C4B 3520   9.661  11.434   9.541  0.1587 -0.1861 -0.1305
  221loPI    C1 3521  10.239  12.516  11.429  0.1660  0.1935  0.0406
  221loPI    C2 3522  10.398  12.573  11.791  0.1796  0.0031  0.0655
  221loPI    C3 3523  10.515  12.262  11.568 -0.0302 -0.0394  0.0127
  221loPI   PO4 3524  10.287  12.649  11.285 -0.0028 -0.1726  0.1670
  221loPI   GL1 3525  10.293  12.656  10.889  0.0093 -0.5215  0.1981
  221loPI   GL2 3526  10.041  12.583  10.759 -0.1354 -0.2918 -0.0511
  221loPI   C1A 3527  10.432  12.642  10.459  0.0823  0.0822  0.0662
  221loPI   C2A 3528  10.323  12.567  10.019  0.2714 -0.2796 -0.1587
  221loPI   C3A 3529  10.325  12.644   9.548  0.3231 -0.2671 -0.0417
  221loPI   C4A 3530  10.227  12.565   9.139  0.1379 -0.3077 -0.0528
  221loPI   C5A 3531   9.997  12.598   8.778 -0.1624 -0.0321  0.1590
  221loPI   C6A 3532  10.060  12.930   8.438  0.0167  0.1350 -0.1460
  221loPI   C1B 3533   9.914  12.507  10.303  0.1655 -0.1684  0.2336
  221loPI   C2B 3534   9.812  12.448   9.834  0.2233  0.2175  0.0079
  221loPI   C3B 3535   9.817  12.424   9.389  0.1556 -0.0489  0.3006
  221loPI   C4B 3536   9.990  12.129   9.153 -0.1450  0.0035 -0.0254
  222loPI    C1 3537   5.263   7.236  11.950  0.1216  0.1585 -0.0199
  222loPI    C2 3538   4.909   7.251  12.136  0.1224 -0.1476  0.0124
  222loPI    C3 3539   5.205   7.496  12.248 -0.0348  0.0146  0.0770
  222loPI   PO4 3540   5.249   7.181  11.685 -0.2933  0.1260  0.4099
  222loPI   GL1 3541   5.331   7.228  11.280 -0.0428  0.0250 -0.0647
  222loPI   GL2 3542   5.218   7.527  10.931  0.0792 -0.0390  0.0847
  222loPI   C1A 3543   5.011   7.114  10.875  0.3700  0.0081  0.2717
  222loPI   C2A 3544   4.991   7.092  10.368 -0.2336 -0.3313 -0.1869
  222loPI   C3A 3545   5.050   7.107   9.903  0.0879 -0.0743 -0.1862
  222loPI   C4A 3546   5.131   7.030   9.482 -0.1604  0.0746  0.0292
  222loPI   C5A 3547   4.991   7.174   9.093 -0.1833  0.0970  0.1349
  222loPI   C6A 3548   4.883   7.560   8.802  0.3981 -0.2091  0.0901
  222loPI   C1B 3549   5.077   7.539  10.538 -0.1490 -0.1285  0.0738
  222loPI   C2B 3550   5.064   7.596  10.071 -0.0739 -0.1250  0.1061
  222loPI   C3B 3551   5.196   7.578   9.711  0.0799 -0.2053 -0.0499
  222loPI   C4B 3552   5.191   7.624   9.336  0.1925  0.1105  0.1386
  223loPI    C1 3553  16.968   4.937  11.956 -0.1380 -0.0995  0.3589
  223loPI    C2 3554  17.146   5.292  12.003 -0.1422 -0.0798  0.2311
  223loPI    C3 3555  16.765   5.244  12.113 -0.1451 -0.0415  0.2376
  223loPI   PO4 3556  17.065   4.916  11.631 -0.1478  0.2106 -0.4183
  223loPI   GL1 3557  16.970   4.865  11.268  0.0830 -0.1163  0.0520
  223loPI   GL2 3558  16.855   5.062  11.060  0.1601  0.0485  0.1947
  223loPI   C1A 3559  16.755   4.604  10.898 -0.1059 -0.1337 -0.1353
  223loPI   C2A 3560  16.747   4.552  10.400  0.0671 -0.0400  0.0295
  223loPI   C3A 3561  16.717   4.572   9.955 -0.1194 -0.0817 -0.1394
  223loPI   C4A 3562  16.779   4.519   9.564  0.0904 -0.1488 -0.0250
  223loPI   C5A 3563  16.551   4.355   9.208 -0.2844 -0.1323  0.1003
  223loPI   C6A 3564  16.769   4.303   8.855  0.3345  0.0546 -0.1096
  223loPI   C1B 3565  16.898   5.103  10.633  0.2150 -0.0730 -0.2309
  223loPI   C2B 3566  16.856   5.017  10.210 -0.0876 -0.0376  0.2367
  223loPI   C3B 3567  16.797   5.012   9.695  0.2390  0.1737  0.2499
  223loPI   C4B 3568  16.786   5.244   9.254  0.1952  0.1376  0.1713
  224loPI    C1 3569  15.418   5.970  11.703  0.1099 -0.2367 -0.2093
  224loPI    C2 3570  15.677   6.275  11.689 -0.2282  0.0819  0.2069
  224loPI    C3 3571  15.709   5.999  11.977 -0.3417  0.1163  0.2529
  224loPI   PO4 3572  15.396   5.881  11.451  0.1745  0.3188 -0.4843
  224loPI   GL1 3573  15.167   5.989  11.066  0.0472 -0.1522 -0.1383
  224loPI   GL2 3574  15.001   5.737  11.093  0.0764  0.0171 -0.0483
  224loPI   C1A 3575  15.128   5.880  10.614 -0.0869  0.2464  0.0888
  224loPI   C2A 3576  15.170   5.899  10.221  0.1596 -0.1709  0.2395
  224loPI   C3A 3577  15.035   5.871   9.799  0.2396  0.0989  0.1215
  224loPI   C4A 3578  14.925   5.945   9.329  0.6108  0.0075  0.0525
  224loPI   C5A 3579  14.939   5.486   9.132  0.0150  0.4995  0.0962
  224loPI   C6A 3580  14.993   5.320   8.716  0.1266 -0.1638  0.1670
  224loPI   C1B 3581  14.997   5.396  10.767 -0.3069  0.2224 -0.0113
  224loPI   C2B 3582  14.948   5.455  10.324 -0.0214  0.1866  0.0535
  224loPI   C3B 3583  14.910   5.343   9.929 -0.3391 -0.0107  0.1162
  224loPI   C4B 3584  15.002   5.126   9.486  0.1946 -0.1100 -0.0159
  225loPI    C1 3585  11.340  13.592  11.216  0.0311 -0.0935 -0.0019
  225loPI    C2 3586  11.315  13.846  11.525 -0.0840  0.1048 -0.1719
  225loPI    C3 3587  11.216  13.461  11.573  0.0930  0.0895  0.0883
  225loPI   PO4 3588  11.614  13.519  10.968 -0.0194 -0.1203 -0.1600
  225loPI   GL1 3589  12.032  13.643  10.757 -0.1439 -0.4263  0.0148
  225loPI   GL2 3590  11.951  13.348  10.602  0.1422 -0.1053  0.1530
  225loPI   C1A 3591  11.982  13.727  10.311 -0.1222 -0.3603  0.2234
  225loPI   C2A 3592  12.113  13.636   9.914 -0.0406  0.1164  0.0313
  225loPI   C3A 3593  12.070  13.582   9.536 -0.3470 -0.0769 -0.1185
  225loPI   C4A 3594  12.144  13.611   9.088 -0.2545 -0.2177  0.1326
  225loPI   C5A 3595  11.941  13.592   8.724 -0.0290 -0.1615 -0.3369
  225loPI   C6A 3596  11.553  13.686   8.545 -0.1405  0.3681  0.2157
  225loPI   C1B 3597  11.909  13.237  10.161 -0.1313 -0.1834 -0.1586
  225loPI   C2B 3598  11.917  13.170   9.827  0.0639  0.1509 -0.0411
  225loPI   C3B 3599  11.913  13.057   9.380 -0.2748 -0.0325  0.1762
  225loPI   C4B 3600  12.174  13.144   8.945 -0.1241  0.1125  0.0788
  226loPI    C1 3601  12.536  12.902  11.407 -0.0613 -0.0130 -0.0602
  226loPI    C2 3602  12.864  12.690  11.494 -0.0266  0.0333 -0.0773
  226loPI    C3 3603  12.799  13.042  11.673 -0.0646  0.0266 -0.0777
  226loPI   PO4 3604  12.497  12.961  11.212  0.1248 -0.0349 -0.1225
  226loPI   GL1 3605  12.409  12.833  10.815 -0.0071 -0.0514  0.2106
  226loPI   GL2 3606  12.720  12.843  10.776  0.0960 -0.0725  0.0699
  226loPI   C1A 3607  12.274  12.861  10.492  0.0614  0.0315  0.2363
  226loPI   C2A 3608  12.304  12.790  10.089  0.0939 -0.0851  0.0155
  226loPI   C3A 3609  12.299  12.832   9.693  0.0664  0.0386  0.2394
  226loPI   C4A 3610  12.392  12.700   9.331  0.2197 -0.1972  0.0592
  226loPI   C5A 3611  12.468  12.705   8.929 -0.0707  0.1977 -0.2725
  226loPI   C6A 3612  12.446  12.906   8.584 -0.2954 -0.0212  0.1374
  226loPI   C1B 3613  12.879  12.827  10.425  0.1705  0.0859  0.0152
  226loPI   C2B 3614  12.942  12.744   9.998  0.1187 -0.0127  0.0386
  226loPI   C3B 3615  12.774  12.957   9.654  0.0909  0.2828 -0.0859
  226loPI   C4B 3616  12.851  12.923   9.218  0.2997  0.1666  0.0950
  227loPI    C1 3617  12.008  15.456  11.260  0.2360  0.1148  0.2634
  227loPI    C2 3618  12.095  15.296  11.616  0.2001 -0.2181  0.1266
  227loPI    C3 3619  12.372  15.303  11.327  0.2324  0.0604  0.1619
  227loPI   PO4 3620  11.737  15.298  11.163 -0.3876 -0.1228  0.1024
  227loPI   GL1 3621  11.723  15.103  10.840 -0.0933  0.0756  0.0050
  227loPI   GL2 3622  11.575  14.811  11.118 -0.1108 -0.0990  0.0543
  227loPI   C1A 3623  11.770  15.029  10.339  0.1233 -0.0038 -0.0342
  227loPI   C2A 3624  11.898  15.070   9.868  0.0473  0.0549  0.0336
  227loPI   C3A 3625  12.063  15.048   9.497  0.1337 -0.0201 -0.0080
  227loPI   C4A 3626  12.098  15.034   9.049  0.0834 -0.0055  0.3924
  227loPI   C5A 3627  12.429  14.937   8.856  0.0282  0.0129  0.1419
  227loPI   C6A 3628  12.804  14.934   8.783  0.1666 -0.3160  0.1312
  227loPI   C1B 3629  11.322  14.887  10.671 -0.1356  0.1731 -0.1449
  227loPI   C2B 3630  11.293  14.772  10.257  0.0996  0.2397  0.3201
  227loPI   C3B 3631  11.415  14.810   9.805 -0.2547  0.3335 -0.0401
  227loPI   C4B 3632  11.596  14.882   9.391 -0.3434 -0.1976 -0.0750
  228loPI    C1 3633   2.323   1.213  12.248  0.1349 -0.1034 -0.0498
  228loPI    C2 3634   2.430   0.861  12.405  0.1017 -0.0449  0.1062
  228loPI    C3 3635   2.427   1.189  12.634 -0.0132  0.0296 -0.0007
  228loPI   PO4 3636   2.483   1.222  12.007 -0.2421 -0.0212 -0.0914
  228loPI   GL1 3637   2.411   1.345  11.486 -0.2369  0.0790 -0.0106
  228loPI   GL2 3638   2.211   1.579  11.428  0.1956 -0.0084  0.1144
  228loPI   C1A 3639   2.647   1.304  11.108 -0.1397 -0.1007 -0.3212
  228loPI   C2A 3640   2.636   1.327  10.746  0.1098 -0.0070  0.0823
  228loPI   C3A 3641   2.558   1.423  10.310 -0.3062  0.1022 -0.1038
  228loPI   C4A 3642   2.592   1.354   9.947  0.2930 -0.3266  0.0534
  228loPI   C5A 3643   2.738   1.286   9.476  0.0275 -0.3051  0.2214
  228loPI   C6A 3644   2.874   1.057   9.198 -0.0315 -0.0278  0.1199
  228loPI   C1B 3645   2.118   1.290  11.047 -0.0495 -0.2494  0.1818
  228loPI   C2B 3646   2.206   1.194  10.589  0.0926 -0.1215  0.0949
  228loPI   C3B 3647   2.065   1.274  10.156  0.0654  0.1027  0.2020
  228loPI   C4B 3648   2.078   1.197   9.735  0.0385  0.2513  0.0086
  229loPI    C1 3649  12.977  10.493  11.541  0.0083 -0.1115  0.1129
  229loPI    C2 3650  13.149  10.806  11.721 -0.0800 -0.0632  0.1145
  229loPI    C3 3651  12.932  10.547  11.935 -0.0317 -0.1092  0.1082
  229loPI   PO4 3652  13.069  10.461  11.342  0.2496 -0.2378 -0.0914
  229loPI   GL1 3653  13.108  10.511  10.882 -0.1055 -0.0730  0.0995
  229loPI   GL2 3654  12.894  10.200  10.934 -0.2232 -0.1562  0.3303
  229loPI   C1A 3655  12.970  10.528  10.476  0.1251 -0.2007  0.0893
  229loPI   C2A 3656  12.911  10.511  10.024  0.0947 -0.0206 -0.0091
  229loPI   C3A 3657  13.093  10.463   9.605 -0.0293 -0.2062 -0.1351
  229loPI   C4A 3658  13.137  10.272   9.169  0.3032  0.0895  0.2615
  229loPI   C5A 3659  13.241  10.193   8.792 -0.2429 -0.1249 -0.3259
  229loPI   C6A 3660  13.295   9.997   8.387  0.1061  0.2279 -0.1631
  229loPI   C1B 3661  12.695  10.090  10.600  0.1163  0.1133  0.0754
  229loPI   C2B 3662  12.673  10.066  10.127  0.3633 -0.3018 -0.0653
  229loPI   C3B 3663  12.680  10.088   9.649  0.2217 -0.0360  0.0101
  229loPI   C4B 3664  12.743  10.028   9.250  0.2810  0.3839 -0.0135
  230loPI    C1 3665  14.386  11.548  11.561  0.2599  0.1119 -0.0525
  230loPI    C2 3666  14.563  11.313  11.831 -0.0215 -0.0638 -0.0165
  230loPI    C3 3667  14.243  11.529  11.934  0.1074  0.1739 -0.1071
  230loPI   PO4 3668  14.505  11.419  11.317  0.5474  0.0620 -0.1446
  230loPI   GL1 3669  14.813  11.543  11.027  0.1435  0.0068  0.0404
  230loPI   GL2 3670  14.953  11.804  10.956  0.0842 -0.1760  0.1111
  230loPI   C1A 3671  14.918  11.212  10.743  0.3359  0.1896  0.1793
  230loPI   C2A 3672  14.880  11.368  10.385 -0.1125 -0.1088 -0.1135
  230loPI   C3A 3673  15.017  11.354  10.000  0.3111  0.1145  0.0417
  230loPI   C4A 3674  15.011  11.332   9.623  0.1797  0.3745 -0.1083
  230loPI   C5A 3675  14.929  11.369   9.214 -0.0863 -0.0363  0.0733
  230loPI   C6A 3676  15.274  11.435   8.973 -0.1584  0.4237  0.0113
  230loPI   C1B 3677  15.061  11.819  10.475  0.2173  0.0216 -0.4235
  230loPI   C2B 3678  15.009  11.829  10.012  0.1325 -0.1530  0.0016
  230loPI   C3B 3679  14.939  11.817   9.540 -0.0905 -0.1519 -0.0095
  230loPI   C4B 3680  14.941  11.856   9.093  0.0105  0.2977 -0.0275
  231loPI    C1 3681   2.105   7.679  11.497  0.1527 -0.1747 -0.1541
  231loPI    C2 3682   1.804   7.673  11.761  0.3389  0.2608  0.0779
  231loPI    C3 3683   1.752   7.843  11.403  0.1802 -0.0560 -0.0532
  231loPI   PO4 3684   2.205   7.343  11.481  0.1428 -0.4567  0.1439
  231loPI   GL1 3685   2.015   7.069  11.145 -0.0859  0.1824  0.2514
  231loPI   GL2 3686   2.277   7.159  11.007 -0.0223 -0.0897 -0.1876
  231loPI   C1A 3687   1.790   6.871  10.676 -0.4715 -0.2534 -0.0262
  231loPI   C2A 3688   1.845   6.770  10.228 -0.3459 -0.1316 -0.0639
  231loPI   C3A 3689   1.849   6.851   9.793  0.0873 -0.2869  0.3110
  231loPI   C4A 3690   1.699   6.863   9.329  0.1355 -0.0462 -0.2488
  231loPI   C5A 3691   1.904   6.596   9.009 -0.1603  0.3512 -0.0596
  231loPI   C6A 3692   2.264   6.486   8.792 -0.2152  0.2649  0.2102
  231loPI   C1B 3693   2.256   7.046  10.698  0.0543  0.0630 -0.0138
  231loPI   C2B 3694   2.399   7.073  10.227 -0.3868 -0.0871 -0.2446
  231loPI   C3B 3695   2.335   6.888   9.813  0.0967  0.1725  0.1800
  231loPI   C4B 3696   2.234   6.834   9.353  0.1516 -0.0856  0.1620
  232loPI    C1 3697  12.836   9.174  11.126 -0.1284 -0.0699 -0.0840
  232loPI    C2 3698  12.651   9.352  11.433  0.2327  0.1578  0.0085
  232loPI    C3 3699  12.969   9.118  11.499  0.2338  0.1036 -0.1825
  232loPI   PO4 3700  12.574   9.164  10.949 -0.3184  0.1342 -0.2399
  232loPI   GL1 3701  12.305   9.226  10.658  0.1645  0.1709  0.1772
  232loPI   GL2 3702  12.308   9.040  10.510  0.0223  0.1653  0.0081
  232loPI   C1A 3703  12.243   9.431  10.162 -0.2215 -0.0454  0.0286
  232loPI   C2A 3704  12.282   9.278   9.735  0.2761 -0.0047  0.2697
  232loPI   C3A 3705  12.395   9.147   9.296  0.2351  0.0524 -0.1174
  232loPI   C4A 3706  12.560   9.181   8.968 -0.0302 -0.0158 -0.2478
  232loPI   C5A 3707  12.792   8.936   8.619  0.2296 -0.0689  0.1721
  232loPI   C6A 3708  13.154   8.689   8.525 -0.1774 -0.0192 -0.2166
  232loPI   C1B 3709  12.240   8.846  10.018 -0.0868 -0.0892 -0.1241
  232loPI   C2B 3710  12.205   8.669   9.692 -0.3093  0.5069  0.0823
  232loPI   C3B 3711  12.267   8.667   9.253 -0.3883  0.0754 -0.1869
  232loPI   C4B 3712  12.488   8.591   8.834 -0.1462  0.0347 -0.1460
  233loPI    C1 3713   1.761   2.328  12.005  0.0802 -0.0745 -0.1673
  233loPI    C2 3714   1.451   2.076  12.019  0.1118 -0.1239 -0.3375
  233loPI    C3 3715   1.771   2.012  12.250 -0.0560 -0.0018 -0.0669
  233loPI   PO4 3716   1.745   2.356  11.705  0.3556 -0.0084 -0.1572
  233loPI   GL1 3717   1.991   2.063  11.333 -0.1369 -0.2108  0.1457
  233loPI   GL2 3718   1.673   2.183  11.116  0.1523  0.1325  0.2458
  233loPI   C1A 3719   2.127   1.805  10.927  0.0113 -0.2057 -0.1781
  233loPI   C2A 3720   2.171   1.679  10.465 -0.1944  0.0756  0.0072
  233loPI   C3A 3721   2.245   1.704  10.051 -0.2094  0.0282  0.2792
  233loPI   C4A 3722   2.332   1.658   9.614  0.0934  0.1522 -0.1890
  233loPI   C5A 3723   2.655   1.857   9.450  0.4138 -0.0471 -0.2222
  233loPI   C6A 3724   2.819   2.069   9.143 -0.0155 -0.0128  0.1215
  233loPI   C1B 3725   1.744   2.125  10.729 -0.5144 -0.0802  0.1012
  233loPI   C2B 3726   1.775   2.102  10.225  0.2016  0.0500  0.3427
  233loPI   C3B 3727   1.928   2.031   9.812  0.3197 -0.0630 -0.0807
  233loPI   C4B 3728   1.796   1.927   9.411  0.3566 -0.2860  0.1997
  234loPI    C1 3729   7.165  17.016  11.682 -0.1393 -0.3208 -0.0042
  234loPI    C2 3730   6.887  17.135  11.944  0.1078  0.3729 -0.0390
  234loPI    C3 3731   7.202  16.923  12.070 -0.2340 -0.0902  0.0616
  234loPI   PO4 3732   7.046  16.914  11.413 -0.2238  0.2811  0.0036
  234loPI   GL1 3733   6.924  16.915  10.998 -0.1237  0.1118  0.0016
  234loPI   GL2 3734   6.699  17.080  11.016 -0.2686 -0.1219  0.0773
  234loPI   C1A 3735   6.965  16.671  10.685  0.1887 -0.0105  0.2912
  234loPI   C2A 3736   6.860  16.631  10.206 -0.0042  0.0147 -0.0000
  234loPI   C3A 3737   6.925  16.689   9.818  0.5720  0.1200  0.2627
  234loPI   C4A 3738   6.680  16.863   9.412  0.0158  0.0956 -0.2593
  234loPI   C5A 3739   6.563  17.197   9.277 -0.1831 -0.0314  0.0364
  234loPI   C6A 3740   6.562  17.609   9.245 -0.0965 -0.0654 -0.0544
  234loPI   C1B 3741   6.514  16.926  10.515 -0.0105  0.0573  0.0902
  234loPI   C2B 3742   6.517  17.002  10.131 -0.1124  0.2225 -0.2225
  234loPI   C3B 3743   6.578  17.178   9.802  0.0992 -0.0449  0.0252
  234loPI   C4B 3744   6.753  17.522   9.699  0.0816  0.0821 -0.1448
  235loPI    C1 3745  13.432   0.659  11.981 -0.0950  0.1250 -0.1039
  235loPI    C2 3746  13.263   0.306  12.063  0.0562  0.0254 -0.2154
  235loPI    C3 3747  13.287   0.587  12.347  0.0022 -0.0811 -0.1046
  235loPI   PO4 3748  13.365   0.727  11.785  0.1669  0.2412 -0.0685
  235loPI   GL1 3749  13.388   0.777  11.417 -0.1289  0.0226  0.2313
  235loPI   GL2 3750  13.687   0.631  11.378  0.0583 -0.2556  0.1422
  235loPI   C1A 3751  13.292   0.979  11.091 -0.0701 -0.1422 -0.3053
  235loPI   C2A 3752  13.171   0.820  10.689 -0.0865  0.2230 -0.0036
  235loPI   C3A 3753  13.336   0.851  10.252  0.4642 -0.0988 -0.0459
  235loPI   C4A 3754  13.478   0.680   9.788 -0.2219 -0.2251  0.0911
  235loPI   C5A 3755  13.592   0.670   9.289  0.1585  0.3390  0.0483
  235loPI   C6A 3756  13.944   0.689   8.961  0.0174 -0.0113 -0.2661
  235loPI   C1B 3757  13.680   0.509  10.950  0.0519  0.0659 -0.0215
  235loPI   C2B 3758  13.668   0.420  10.585 -0.0579  0.0802  0.0691
  235loPI   C3B 3759  13.775   0.423  10.142 -0.0304  0.0522 -0.0074
  235loPI   C4B 3760  13.782   0.313   9.661  0.0139 -0.0326  0.3757
  236loPI    C1 3761   6.953  15.581  11.771 -0.0017  0.0152 -0.0303
  236loPI    C2 3762   7.017  15.327  12.073 -0.1252 -0.0072 -0.0226
  236loPI    C3 3763   6.890  15.699  12.148  0.3324  0.1542 -0.0142
  236loPI   PO4 3764   6.740  15.471  11.584 -0.1255 -0.1409  0.2642
  236loPI   GL1 3765   6.709  15.432  11.115 -0.1521 -0.2064  0.0010
  236loPI   GL2 3766   6.756  15.265  10.976  0.2576 -0.0073  0.1380
  236loPI   C1A 3767   6.408  15.562  10.735  0.2372  0.4303  0.1696
  236loPI   C2A 3768   6.256  15.561  10.335 -0.1661  0.0797  0.0746
  236loPI   C3A 3769   6.252  15.495  10.015  0.0353  0.0662  0.0217
  236loPI   C4A 3770   6.244  15.492   9.528  0.0749 -0.1404 -0.0598
  236loPI   C5A 3771   6.297  15.457   9.120  0.2074 -0.7201  0.2887
  236loPI   C6A 3772   6.532  15.703   8.788 -0.2697  0.0845 -0.0811
  236loPI   C1B 3773   6.770  15.048  10.643 -0.4070  0.0082 -0.2510
  236loPI   C2B 3774   6.827  14.995  10.237  0.0065  0.1870 -0.0914
  236loPI   C3B 3775   6.609  15.162   9.786 -0.2174  0.0151  0.0803
  236loPI   C4B 3776   6.694  15.089   9.362 -0.1478  0.1286 -0.0812
  237loPI    C1 3777  14.277  14.168  11.775  0.1299 -0.0313 -0.0998
  237loPI    C2 3778  14.372  14.345  12.121  0.1221 -0.0846 -0.0703
  237loPI    C3 3779  13.989  14.313  12.011  0.1366  0.1201 -0.1840
  237loPI   PO4 3780  14.415  14.368  11.573  0.2591  0.0238  0.0607
  237loPI   GL1 3781  14.484  14.270  11.189  0.1344 -0.4741 -0.2173
  237loPI   GL2 3782  14.129  14.398  11.027  0.0552  0.2133  0.1804
  237loPI   C1A 3783  14.824  14.392  10.913  0.0288 -0.0458 -0.1328
  237loPI   C2A 3784  15.079  14.367  10.644  0.2554 -0.1286 -0.1919
  237loPI   C3A 3785  15.001  14.268  10.281  0.1328 -0.0099 -0.0070
  237loPI   C4A 3786  15.007  14.263   9.877 -0.3525 -0.0094 -0.4029
  237loPI   C5A 3787  14.973  14.138   9.446  0.0443 -0.0620  0.2216
  237loPI   C6A 3788  15.134  14.246   9.011  0.2277  0.0675 -0.0525
  237loPI   C1B 3789  13.956  14.552  10.681 -0.2853  0.2450 -0.1890
  237loPI   C2B 3790  14.188  14.491  10.290 -0.1251 -0.2624 -0.0747
  237loPI   C3B 3791  14.177  14.380   9.872 -0.2532 -0.1238  0.0425
  237loPI   C4B 3792  14.074  14.258   9.439  0.0584 -0.3642 -0.3508
  238loPI    C1 3793  15.645   0.931  12.154 -0.1004  0.0605  0.0995
  238loPI    C2 3794  15.510   1.307  12.159  0.1084  0.1371  0.0760
  238loPI    C3 3795  15.832   1.207  12.375  0.0921 -0.0135  0.0315
  238loPI   PO4 3796  15.643   0.893  11.891  0.1881 -0.0815  0.0792
  238loPI   GL1 3797  15.585   0.963  11.508  0.2301  0.1116 -0.0461
  238loPI   GL2 3798  15.248   1.053  11.503 -0.2383 -0.0895 -0.0130
  238loPI   C1A 3799  15.662   0.814  11.174 -0.0869  0.1339 -0.1899
  238loPI   C2A 3800  15.638   0.892  10.804  0.0320  0.1817  0.0377
  238loPI   C3A 3801  15.643   0.903  10.475  0.0444  0.1372 -0.0384
  238loPI   C4A 3802  15.538   0.781  10.037  0.0483 -0.0008 -0.1863
  238loPI   C5A 3803  15.609   0.691   9.605  0.1832 -0.1289  0.1385
  238loPI   C6A 3804  16.013   0.613   9.444 -0.0397 -0.1009  0.2104
  238loPI   C1B 3805  15.217   1.244  11.061 -0.0005 -0.0956  0.2416
  238loPI   C2B 3806  15.278   1.173  10.678  0.3262  0.1745 -0.0242
  238loPI   C3B 3807  15.156   1.032  10.370 -0.1753 -0.2200  0.2254
  238loPI   C4B 3808  15.198   1.149   9.903  0.1341  0.2316  0.1094
  239loPI    C1 3809   0.744   3.998  12.105 -0.0991 -0.0034 -0.1945
  239loPI    C2 3810   0.433   3.888  12.330  0.0388  0.1111  0.0556
  239loPI    C3 3811   0.775   4.002  12.504  0.1621  0.1584 -0.2140
  239loPI   PO4 3812   0.595   4.140  11.941  0.0375  0.3279 -0.0300
  239loPI   GL1 3813   0.388   4.084  11.559 -0.1886  0.0291 -0.0354
  239loPI   GL2 3814   0.096   3.941  11.448  0.0210 -0.2054  0.3222
  239loPI   C1A 3815   0.476   4.061  11.118  0.0679  0.0870 -0.0316
  239loPI   C2A 3816   0.373   3.907  10.732  0.0673 -0.1810  0.0182
  239loPI   C3A 3817   0.381   3.839  10.288  0.0275  0.2534  0.0940
  239loPI   C4A 3818   0.376   3.869   9.851  0.0380  0.1932 -0.2005
  239loPI   C5A 3819   0.172   3.778   9.453 -0.0386  0.5862  0.0507
  239loPI   C6A 3820   0.438   3.528   9.175 -0.0225 -0.0315  0.2415
  239loPI   C1B 3821  -0.180   3.733  11.063  0.0325 -0.2721 -0.2814
  239loPI   C2B 3822  -0.194   3.609  10.677  0.4212 -0.1190 -0.0243
  239loPI   C3B 3823  -0.130   3.658  10.186  0.1582 -0.0406 -0.2879
  239loPI   C4B 3824  -0.156   3.667   9.780 -0.0788  0.0513 -0.1974
  240loPI    C1 3825   1.890  14.570  11.883 -0.2990  0.0595  0.3227
  240loPI    C2 3826   2.240  14.739  11.979 -0.1771 -0.0324  0.0520
  240loPI    C3 3827   2.087  14.449  12.209 -0.0299 -0.0554  0.1217
  240loPI   PO4 3828   1.917  14.551  11.579 -0.0937  0.0570  0.0221
  240loPI   GL1 3829   1.793  14.371  11.136  0.0274 -0.2021  0.0118
  240loPI   GL2 3830   2.081  14.288  11.187 -0.2310  0.0481 -0.0376
  240loPI   C1A 3831   1.570  14.670  10.806  0.1100  0.0125 -0.3494
  240loPI   C2A 3832   1.523  14.694  10.282  0.1924 -0.0453 -0.0809
  240loPI   C3A 3833   1.497  14.830   9.857 -0.3729 -0.0834 -0.1747
  240loPI   C4A 3834   1.339  14.659   9.392  0.3404 -0.0246 -0.1072
  240loPI   C5A 3835   1.222  14.378   9.124  0.1499  0.0740  0.1896
  240loPI   C6A 3836   0.965  14.299   8.740 -0.1815  0.0348 -0.0048
  240loPI   C1B 3837   2.033  14.362  10.725  0.2462 -0.4049 -0.0760
  240loPI   C2B 3838   1.990  14.405  10.270 -0.1484  0.0376 -0.2384
  240loPI   C3B 3839   1.952  14.488   9.909  0.1578  0.0573 -0.2059
  240loPI   C4B 3840   1.945  14.468   9.487 -0.0018  0.3377 -0.3487
  241loPI    C1 3841  15.513   5.313  11.916  0.3049  0.1138 -0.0787
  241loPI    C2 3842  15.718   5.239  12.251  0.2678 -0.1446 -0.1109
  241loPI    C3 3843  15.609   4.937  12.013 -0.3149 -0.0341  0.0009
  241loPI   PO4 3844  15.656   5.519  11.746  0.2059  0.0310 -0.2359
  241loPI   GL1 3845  15.662   5.456  11.356 -0.1654 -0.1452 -0.0835
  241loPI   GL2 3846  15.592   5.646  11.077  0.0519  0.0058  0.2056
  241loPI   C1A 3847  15.431   5.165  10.957  0.0289  0.2263 -0.0362
  241loPI   C2A 3848  15.390   5.017  10.510 -0.1922  0.1033  0.0658
  241loPI   C3A 3849  15.376   5.061  10.040  0.1616  0.0309 -0.0699
  241loPI   C4A 3850  15.504   5.101   9.575 -0.1646  0.0889 -0.0480
  241loPI   C5A 3851  15.444   5.151   9.132 -0.0017 -0.2644 -0.0715
  241loPI   C6A 3852  15.064   4.933   9.031  0.2095 -0.0878  0.0081
  241loPI   C1B 3853  15.502   5.594  10.689 -0.3656  0.0077  0.1883
  241loPI   C2B 3854  15.465   5.500  10.295 -0.1077 -0.1044  0.1638
  241loPI   C3B 3855  15.431   5.529   9.849 -0.0798 -0.1427  0.0873
  241loPI   C4B 3856  15.339   5.539   9.452 -0.2313  0.0250 -0.0281
  242loPI    C1 3857   0.179   9.243  11.846 -0.4068 -0.2019  0.1417
  242loPI    C2 3858   0.320   8.885  11.957  0.0536  0.0078  0.2580
  242loPI    C3 3859   0.190   9.144  12.233 -0.0577  0.0217  0.1934
  242loPI   PO4 3860   0.265   9.208  11.473  0.0034  0.1253 -0.0397
  242loPI   GL1 3861   0.617   9.276  11.190  0.3797  0.0742  0.1201
  242loPI   GL2 3862   0.425   9.574  11.060 -0.3664  0.0306  0.1256
  242loPI   C1A 3863   0.776   9.340  10.800  0.0314  0.0187 -0.0209
  242loPI   C2A 3864   0.761   9.502  10.448 -0.0740 -0.3889  0.0230
  242loPI   C3A 3865   0.735   9.520   9.976 -0.0001  0.2977 -0.1258
  242loPI   C4A 3866   0.734   9.654   9.637 -0.0557  0.2722  0.1720
  242loPI   C5A 3867   0.816   9.691   9.228 -0.4160 -0.2321 -0.2813
  242loPI   C6A 3868   0.760   9.729   8.861  0.0950  0.1156 -0.2446
  242loPI   C1B 3869   0.304   9.809  10.590  0.1384  0.3862  0.0773
  242loPI   C2B 3870   0.257   9.920  10.132 -0.0419  0.0016  0.2370
  242loPI   C3B 3871   0.298   9.966   9.736  0.1018  0.2426  0.2779
  242loPI   C4B 3872   0.217  10.066   9.255 -0.2148  0.0017 -0.0268
  243loPI    C1 3873  15.589   9.904  11.691 -0.1112  0.2269  0.0376
  243loPI    C2 3874  15.864  10.137  11.865 -0.0211  0.1653 -0.0212
  243loPI    C3 3875  15.475  10.221  11.906 -0.0045  0.1076  0.2740
  243loPI   PO4 3876  15.642   9.845  11.454  0.0474  0.0887  0.1837
  243loPI   GL1 3877  15.673   9.969  11.076  0.2582 -0.1321 -0.1616
  243loPI   GL2 3878  15.424  10.200  11.067  0.1165  0.0191  0.0469
  243loPI   C1A 3879  15.773  10.115  10.653 -0.0038 -0.2127  0.3324
  243loPI   C2A 3880  15.705  10.204  10.286 -0.0324  0.1434  0.0685
  243loPI   C3A 3881  15.741  10.032   9.920  0.0245  0.0202  0.0358
  243loPI   C4A 3882  15.748  10.251   9.494  0.0217  0.2292  0.1784
  243loPI   C5A 3883  15.982  10.290   9.032 -0.0814  0.1000 -0.0973
  243loPI   C6A 3884  15.992  10.553   8.800 -0.1706 -0.4172  0.1159
  243loPI   C1B 3885  15.372  10.377  10.762  0.3122 -0.2673 -0.0965
  243loPI   C2B 3886  15.273  10.454  10.365  0.0729 -0.1947  0.0736
  243loPI   C3B 3887  15.330  10.408   9.966 -0.0680 -0.1910  0.2037
  243loPI   C4B 3888  15.312  10.492   9.547  0.0327 -0.0989 -0.2259
  244loPI    C1 3889   0.276   6.898  11.777  0.0787  0.0664  0.0883
  244loPI    C2 3890  -0.087   6.864  11.942  0.0275  0.1198 -0.0127
  244loPI    C3 3891   0.225   6.976  12.166  0.0279 -0.1551  0.1276
  244loPI   PO4 3892   0.300   6.664  11.602 -0.2397 -0.1839 -0.0688
  244loPI   GL1 3893   0.517   6.556  11.365 -0.0002 -0.0630  0.0996
  244loPI   GL2 3894   0.647   6.764  11.136  0.1821  0.1407 -0.2961
  244loPI   C1A 3895   0.285   6.418  10.962 -0.0523  0.0668  0.0444
  244loPI   C2A 3896   0.264   6.374  10.509 -0.2297  0.2665 -0.1560
  244loPI   C3A 3897   0.299   6.343  10.086 -0.0299 -0.0374  0.0919
  244loPI   C4A 3898   0.355   6.325   9.678  0.0437 -0.0234  0.1476
  244loPI   C5A 3899   0.125   6.362   9.308 -0.1561  0.1636  0.1911
  244loPI   C6A 3900  -0.191   6.740   9.150  0.1505 -0.0892 -0.0011
  244loPI   C1B 3901   0.798   6.573  10.788  0.1916  0.3295  0.0195
  244loPI   C2B 3902   0.777   6.522  10.367 -0.1289  0.2240 -0.3138
  244loPI   C3B 3903   0.788   6.470   9.971 -0.3310  0.0250  0.0569
  244loPI   C4B 3904   0.965   6.450   9.765  0.0601 -0.0180  0.1583
  245loPI    C1 3905   9.054  16.922  11.366 -0.1086 -0.0478 -0.2396
  245loPI    C2 3906   9.253  16.580  11.306 -0.0019 -0.0411  0.0622
  245loPI    C3 3907   8.987  16.608  11.604  0.0867  0.1786  0.1228
  245loPI   PO4 3908   8.928  17.002  11.158 -0.0714 -0.0449 -0.0924
  245loPI   GL1 3909   8.703  16.946  10.792 -0.1447  0.0549 -0.0812
  245loPI   GL2 3910   8.533  17.194  10.975  0.0437  0.0044 -0.1405
  245loPI   C1A 3911   8.547  16.867  10.365  0.0595  0.1621 -0.1228
  245loPI   C2A 3912   8.542  16.852   9.893 -0.2211  0.0392  0.1796
  245loPI   C3A 3913   8.419  16.671   9.525  0.0975  0.0620 -0.1369
  245loPI   C4A 3914   8.360  16.818   9.156 -0.0031 -0.3420  0.3067
  245loPI   C5A 3915   8.776  17.064   8.950  0.4020  0.0574  0.3905
  245loPI   C6A 3916   9.143  17.301   8.786 -0.2677 -0.0396 -0.0443
  245loPI   C1B 3917   8.498  17.370  10.516  0.1273 -0.0304  0.2284
  245loPI   C2B 3918   8.436  17.295  10.131 -0.1573 -0.0218  0.1719
  245loPI   C3B 3919   8.483  17.343   9.669  0.2080 -0.2266  0.2696
  245loPI   C4B 3920   8.381  17.323   9.303  0.2113 -0.3023  0.0610
  246loPI    C1 3921  15.048  15.967  12.237  0.0328 -0.0478 -0.1711
  246loPI    C2 3922  15.226  15.610  12.263  0.0476 -0.0564 -0.3743
  246loPI    C3 3923  15.397  15.931  12.428  0.0491 -0.1372 -0.2170
  246loPI   PO4 3924  15.012  15.956  11.957  0.1393 -0.0053  0.1059
  246loPI   GL1 3925  14.919  15.889  11.514 -0.0432  0.0049  0.0896
  246loPI   GL2 3926  14.865  16.190  11.435 -0.0083 -0.0985 -0.1476
  246loPI   C1A 3927  14.507  15.979  11.211 -0.2298  0.0676  0.1412
  246loPI   C2A 3928  14.436  16.032  10.720  0.0015  0.1029 -0.0044
  246loPI   C3A 3929  14.455  15.947  10.352 -0.0128 -0.1400  0.0920
  246loPI   C4A 3930  14.508  15.961   9.905  0.0377 -0.2667 -0.1386
  246loPI   C5A 3931  14.479  15.843   9.495 -0.1236 -0.0915  0.0707
  246loPI   C6A 3932  14.792  16.014   9.176 -0.1713  0.0333 -0.0437
  246loPI   C1B 3933  14.922  16.134  10.975  0.0966 -0.1593  0.1281
  246loPI   C2B 3934  14.917  16.117  10.561  0.0552 -0.1335 -0.3278
  246loPI   C3B 3935  14.932  16.175  10.082 -0.1176 -0.0996  0.1119
  246loPI   C4B 3936  14.932  16.095   9.633  0.1537 -0.2130  0.1093
  247loPI    C1 3937  13.388   4.508  11.909 -0.2020  0.0809 -0.3942
  247loPI    C2 3938  13.030   4.381  12.036 -0.0511 -0.0482 -0.0889
  247loPI    C3 3939  13.314   4.478  12.301  0.1125  0.1381 -0.3277
  247loPI   PO4 3940  13.289   4.628  11.649  0.1027 -0.0135  0.0028
  247loPI   GL1 3941  13.478   4.577  11.180 -0.1542  0.0715  0.0732
  247loPI   GL2 3942  13.337   4.873  11.174 -0.0908  0.0124  0.1753
  247loPI   C1A 3943  13.320   4.340  10.903 -0.1286 -0.1401  0.0330
  247loPI   C2A 3944  13.419   4.306  10.431 -0.0880  0.1899  0.0700
  247loPI   C3A 3945  13.501   4.285   9.954 -0.0914  0.3538 -0.1654
  247loPI   C4A 3946  13.538   4.270   9.554  0.1240 -0.3634  0.0545
  247loPI   C5A 3947  13.346   4.209   9.256 -0.1116  0.1776 -0.1969
  247loPI   C6A 3948  12.911   4.052   9.191  0.0410 -0.2287  0.1155
  247loPI   C1B 3949  13.469   4.800  10.714  0.1580 -0.2815  0.1446
  247loPI   C2B 3950  13.500   4.797  10.249  0.0551  0.0639 -0.1153
  247loPI   C3B 3951  13.510   4.762   9.791  0.0808  0.3135  0.1491
  247loPI   C4B 3952  13.651   4.752   9.258 -0.2320  0.0226  0.0152
  248loPI    C1 3953   6.693   9.478  11.477 -0.1705  0.1846  0.2590
  248loPI    C2 3954   6.789   9.153  11.690 -0.0089  0.0508 -0.0125
  248loPI    C3 3955   6.448   9.349  11.766 -0.2122 -0.3048  0.0156
  248loPI   PO4 3956   6.702   9.471  11.307  0.2910 -0.1416  0.0687
  248loPI   GL1 3957   6.727   9.164  11.020  0.1301 -0.1675  0.1788
  248loPI   GL2 3958   6.462   9.261  10.887  0.0105  0.0835 -0.0403
  248loPI   C1A 3959   6.806   9.073  10.576  0.1987 -0.0419  0.2969
  248loPI   C2A 3960   6.840   9.086  10.073  0.0120  0.0743 -0.0745
  248loPI   C3A 3961   6.855   9.116   9.618 -0.2892  0.0428 -0.2125
  248loPI   C4A 3962   6.904   9.134   9.222 -0.2150  0.0308 -0.0602
  248loPI   C5A 3963   6.707   9.095   8.801  0.2836 -0.2611 -0.2981
  248loPI   C6A 3964   6.515   8.990   8.464  0.0877 -0.0976 -0.0085
  248loPI   C1B 3965   6.408   9.483  10.486 -0.0493 -0.1526 -0.0452
  248loPI   C2B 3966   6.487   9.483   9.995  0.0248  0.1716  0.3816
  248loPI   C3B 3967   6.527   9.486   9.574 -0.1839  0.0485 -0.0232
  248loPI   C4B 3968   6.492   9.412   9.168 -0.2275  0.1823 -0.4376
  249loPI    C1 3969  12.573   2.331  12.161 -0.1918 -0.0461  0.0338
  249loPI    C2 3970  12.544   1.983  11.966  0.2822  0.0316 -0.1892
  249loPI    C3 3971  12.808   2.025  12.264 -0.0486  0.0862  0.1044
  249loPI   PO4 3972  12.605   2.523  11.927  0.2761 -0.1714 -0.1057
  249loPI   GL1 3973  12.625   2.678  11.500  0.0017 -0.2265  0.2647
  249loPI   GL2 3974  12.637   2.329  11.389 -0.0515 -0.2272 -0.2377
  249loPI   C1A 3975  12.676   2.925  11.195  0.3094  0.0267 -0.2092
  249loPI   C2A 3976  12.640   3.002  10.680  0.1714 -0.1150  0.0112
  249loPI   C3A 3977  12.676   3.019  10.176  0.2216 -0.1056 -0.0004
  249loPI   C4A 3978  12.863   3.152   9.816  0.3376 -0.2378  0.0999
  249loPI   C5A 3979  13.134   2.981   9.478 -0.0831 -0.0608 -0.1377
  249loPI   C6A 3980  13.331   2.917   9.045  0.2855  0.0149 -0.0093
  249loPI   C1B 3981  12.434   2.399  10.894  0.0785  0.2165 -0.0903
  249loPI   C2B 3982  12.557   2.518  10.483 -0.0485 -0.0615 -0.1165
  249loPI   C3B 3983  12.734   2.515  10.069 -0.1117 -0.1971  0.0881
  249loPI   C4B 3984  12.787   2.590   9.655  0.3874  0.0791 -0.0714
  250loPI    C1 3985   8.905  13.393  11.719  0.1069  0.0307 -0.0615
  250loPI    C2 3986   8.811  13.720  11.929  0.0563  0.0372 -0.0941
  250loPI    C3 3987   8.905  13.381  12.119  0.1600  0.0847 -0.0597
  250loPI   PO4 3988   9.037  13.547  11.485 -0.2212 -0.0860 -0.1342
  250loPI   GL1 3989   8.978  13.548  11.000 -0.1759  0.0434  0.2101
  250loPI   GL2 3990   9.161  13.786  11.014 -0.2761 -0.0224 -0.2367
  250loPI   C1A 3991   8.672  13.613  10.797 -0.0973  0.0471 -0.0936
  250loPI   C2A 3992   8.709  13.535  10.351  0.0316 -0.1616  0.2421
  250loPI   C3A 3993   8.597  13.530   9.845  0.0995 -0.1411  0.2018
  250loPI   C4A 3994   8.712  13.544   9.418 -0.3340  0.1986 -0.2180
  250loPI   C5A 3995   8.757  13.370   9.104  0.1504 -0.0672  0.0411
  250loPI   C6A 3996   8.904  13.446   8.678 -0.0535  0.1187  0.2718
  250loPI   C1B 3997   9.116  13.741  10.592 -0.1001 -0.0097  0.2614
  250loPI   C2B 3998   9.241  13.717  10.185  0.2710 -0.0014  0.0845
  250loPI   C3B 3999   9.181  13.702   9.750 -0.1828 -0.1268 -0.1237
  250loPI   C4B 4000   9.162  13.616   9.263 -0.1877 -0.2335  0.1353
  251loPI    C1 4001  15.732   4.366  11.960 -0.2500 -0.2023  0.0802
  251loPI    C2 4002  15.979   4.216  12.236 -0.1667 -0.2816 -0.0360
  251loPI    C3 4003  15.633   4.385  12.347  0.0704  0.0932  0.1528
  251loPI   PO4 4004  15.914   4.221  11.721  0.1852  0.2866 -0.0634
  251loPI   GL1 4005  15.880   4.032  11.318  0.1293 -0.0735  0.2738
  251loPI   GL2 4006  15.883   4.251  11.053  0.2769 -0.0451 -0.2109
  251loPI   C1A 4007  16.095   3.880  10.891  0.0277  0.2100 -0.1218
  251loPI   C2A 4008  16.163   3.820  10.411  0.2561  0.1504  0.0507
  251loPI   C3A 4009  16.183   3.861   9.954 -0.2372  0.0128  0.4245
  251loPI   C4A 4010  16.085   3.911   9.623  0.2657 -0.1731 -0.0102
  251loPI   C5A 4011  16.199   4.029   9.296  0.0748  0.2449 -0.0789
  251loPI   C6A 4012  16.043   4.337   9.031 -0.3133 -0.0076  0.1777
  251loPI   C1B 4013  15.792   4.157  10.624  0.1539 -0.1139 -0.2221
  251loPI   C2B 4014  15.666   4.229  10.230  0.3148  0.0854 -0.0053
  251loPI   C3B 4015  15.722   4.168   9.784 -0.1852 -0.1288  0.0588
  251loPI   C4B 4016  15.653   4.173   9.346 -0.1202 -0.0904 -0.1888
  252loPI    C1 4017   2.020   4.608  11.870 -0.0973  0.0097  0.0214
  252loPI    C2 4018   1.759   4.846  12.057 -0.0387 -0.0867  0.2290
  252loPI    C3 4019   1.901   4.521  12.242 -0.0484 -0.2339 -0.0180
  252loPI   PO4 4020   1.857   4.634  11.546 -0.0888  0.0326 -0.2162
  252loPI   GL1 4021   1.665   4.596  11.204 -0.0994  0.4241 -0.0260
  252loPI   GL2 4022   2.018   4.467  11.078  0.1967 -0.0578  0.0494
  252loPI   C1A 4023   1.447   4.705  10.873  0.1225  0.0700 -0.0253
  252loPI   C2A 4024   1.421   4.718  10.391  0.1877  0.1137  0.1197
  252loPI   C3A 4025   1.402   4.669   9.997 -0.0644 -0.0600 -0.0276
  252loPI   C4A 4026   1.414   4.713   9.603 -0.4878 -0.1318 -0.1229
  252loPI   C5A 4027   1.600   4.862   9.212  0.0490  0.1693 -0.0952
  252loPI   C6A 4028   1.703   5.209   9.126 -0.1215 -0.1938  0.1704
  252loPI   C1B 4029   1.846   4.502  10.639 -0.2410 -0.0945  0.0186
  252loPI   C2B 4030   1.872   4.488  10.176  0.1974  0.1779  0.0824
  252loPI   C3B 4031   1.917   4.475   9.799 -0.1060  0.1527  0.1876
  252loPI   C4B 4032   1.819   4.470   9.349  0.0597  0.2033  0.1889
  253loPI    C1 4033   9.449   8.432  11.383 -0.2661 -0.0516  0.3232
  253loPI    C2 4034   9.512   8.825  11.419 -0.0883 -0.0665  0.1907
  253loPI    C3 4035   9.780   8.566  11.562  0.0364 -0.1336 -0.1550
  253loPI   PO4 4036   9.383   8.324  11.180  0.1697  0.2126 -0.0196
  253loPI   GL1 4037   9.020   8.149  10.891 -0.2786  0.1414 -0.0418
  253loPI   GL2 4038   8.916   8.454  10.917 -0.2196 -0.0150  0.1909
  253loPI   C1A 4039   8.937   7.931  10.450 -0.1004 -0.3958  0.0809
  253loPI   C2A 4040   8.900   7.875   9.955  0.0370  0.0236 -0.0425
  253loPI   C3A 4041   8.876   7.917   9.532  0.0771  0.0252 -0.2010
  253loPI   C4A 4042   8.838   7.697   9.133 -0.0071  0.0058  0.2070
  253loPI   C5A 4043   8.514   7.707   8.789  0.1700  0.1323 -0.0052
  253loPI   C6A 4044   8.590   7.713   8.357  0.1258 -0.2463 -0.0367
  253loPI   C1B 4045   9.063   8.486  10.484  0.1696 -0.0569  0.2056
  253loPI   C2B 4046   9.013   8.388  10.037  0.1365 -0.0537  0.0779
  253loPI   C3B 4047   8.929   8.404   9.618 -0.0190 -0.1048  0.3306
  253loPI   C4B 4048   8.918   8.372   9.198  0.0838 -0.2474 -0.1618
  254loPI    C1 4049  15.227  12.016  12.046 -0.2363  0.0949 -0.1779
  254loPI    C2 4050  15.364  12.391  12.029  0.1126 -0.0147  0.0960
  254loPI    C3 4051  15.191  12.257  12.363  0.0849 -0.1296  0.0360
  254loPI   PO4 4052  15.114  12.081  11.669  0.0102  0.1375  0.1474
  254loPI   GL1 4053  15.186  12.210  11.118  0.1869  0.0811  0.1667
  254loPI   GL2 4054  15.633  12.320  11.238 -0.2368  0.0051  0.1272
  254loPI   C1A 4055  15.153  12.339  10.695 -0.3340 -0.0367  0.2670
  254loPI   C2A 4056  15.163  12.302  10.219  0.2112  0.3324 -0.0177
  254loPI   C3A 4057  15.125  12.404   9.852 -0.0792 -0.2748  0.1953
  254loPI   C4A 4058  15.088  12.310   9.411  0.0013 -0.0857 -0.1905
  254loPI   C5A 4059  15.069  12.509   8.981  0.2996 -0.0469 -0.1073
  254loPI   C6A 4060  15.219  12.944   8.922  0.0212 -0.3236 -0.0845
  254loPI   C1B 4061  15.589  12.479  10.844 -0.1321 -0.0389 -0.1272
  254loPI   C2B 4062  15.706  12.592  10.512 -0.1527 -0.0383  0.0763
  254loPI   C3B 4063  15.614  12.554  10.059 -0.0854  0.0485  0.0359
  254loPI   C4B 4064  15.607  12.594   9.627 -0.2073  0.0731 -0.0874
  255loPI    C1 4065   7.535   6.435  11.504 -0.0269  0.0833 -0.2320
  255loPI    C2 4066   7.623   6.766  11.711 -0.1016 -0.0231 -0.0269
  255loPI    C3 4067   7.582   6.416  11.901 -0.0702 -0.1424 -0.2362
  255loPI   PO4 4068   7.383   6.491  11.376 -0.0313  0.0907  0.0789
  255loPI   GL1 4069   7.377   6.608  10.963  0.4135 -0.0773 -0.0311
  255loPI   GL2 4070   7.434   6.852  10.762 -0.3286 -0.0121  0.0217
  255loPI   C1A 4071   7.282   6.423  10.498 -0.3673 -0.1182 -0.1339
  255loPI   C2A 4072   7.175   6.476  10.028  0.1938  0.0442  0.0201
  255loPI   C3A 4073   7.210   6.431   9.586  0.0995 -0.1656  0.1486
  255loPI   C4A 4074   7.445   6.362   9.242  0.1825  0.0838 -0.0428
  255loPI   C5A 4075   7.362   6.388   8.789  0.2430 -0.2097 -0.1325
  255loPI   C6A 4076   7.478   6.534   8.441 -0.0551  0.0692  0.0688
  255loPI   C1B 4077   7.339   6.898  10.309 -0.1107  0.1836 -0.0388
  255loPI   C2B 4078   7.349   6.932   9.888 -0.0416  0.6067 -0.1676
  255loPI   C3B 4079   7.327   6.939   9.486  0.1603  0.0517  0.3344
  255loPI   C4B 4080   7.473   6.909   9.037 -0.0135 -0.0096 -0.0505
  256loPI    C1 4081  11.855  12.430  11.666  0.0894  0.1081 -0.3527
  256loPI    C2 4082  11.987  12.801  11.594 -0.0827  0.2208 -0.1009
  256loPI    C3 4083  11.759  12.729  11.915 -0.3358 -0.0383 -0.3339
  256loPI   PO4 4084  11.882  12.291  11.418 -0.0721 -0.0731  0.2110
  256loPI   GL1 4085  11.851  12.332  10.938  0.4299 -0.0058 -0.2276
  256loPI   GL2 4086  12.148  12.336  10.857 -0.0129 -0.1370 -0.1345
  256loPI   C1A 4087  11.650  12.181  10.603 -0.2868 -0.0349  0.1999
  256loPI   C2A 4088  11.615  12.183  10.164  0.0371  0.1171 -0.0821
  256loPI   C3A 4089  11.676  12.204   9.746  0.2378  0.0421 -0.1134
  256loPI   C4A 4090  11.616  12.017   9.297 -0.3015  0.1622  0.0575
  256loPI   C5A 4091  11.485  12.086   8.923 -0.1293 -0.1068  0.0922
  256loPI   C6A 4092  11.128  12.031   8.678 -0.2034  0.0802 -0.0117
  256loPI   C1B 4093  12.103  12.366  10.415  0.2083  0.0133 -0.0359
  256loPI   C2B 4094  12.069  12.358   9.976  0.0037  0.3431  0.0856
  256loPI   C3B 4095  12.169  12.297   9.573  0.1661  0.0326 -0.1749
  256loPI   C4B 4096  12.472  12.174   9.262  0.0249 -0.1658 -0.0157
  257loPI    C1 4097   2.068   8.705  11.966 -0.0198 -0.0469  0.0744
  257loPI    C2 4098   2.393   8.937  11.982  0.0298 -0.0857 -0.2846
  257loPI    C3 4099   2.077   9.019  12.213  0.1850  0.1210 -0.1418
  257loPI   PO4 4100   2.022   8.696  11.710 -0.0912  0.0058  0.0804
  257loPI   GL1 4101   2.179   8.637  11.256 -0.0237 -0.0302  0.0912
  257loPI   GL2 4102   2.448   8.520  11.056 -0.1790 -0.1899  0.3529
  257loPI   C1A 4103   2.118   8.942  10.861 -0.1079  0.0240 -0.0442
  257loPI   C2A 4104   2.166   8.924  10.463 -0.1563 -0.0408  0.0806
  257loPI   C3A 4105   2.200   8.876  10.011 -0.2006 -0.2417 -0.2267
  257loPI   C4A 4106   1.913   8.916   9.525 -0.0586 -0.0359  0.0146
  257loPI   C5A 4107   1.559   8.685   9.144 -0.0958 -0.2813  0.2029
  257loPI   C6A 4108   1.547   8.655   8.780  0.0614 -0.2829  0.0832
  257loPI   C1B 4109   2.477   8.644  10.702  0.0784  0.0866 -0.2282
  257loPI   C2B 4110   2.509   8.641  10.293  0.2041 -0.1689  0.1289
  257loPI   C3B 4111   2.576   8.633   9.842  0.1047  0.0035 -0.2725
  257loPI   C4B 4112   2.374   8.781   9.547 -0.1442 -0.2922 -0.2927
  258loPI    C1 4113   1.544   8.490  11.660  0.1253 -0.1181 -0.0487
  258loPI    C2 4114   1.539   8.118  11.806  0.0667 -0.0276  0.1838
  258loPI    C3 4115   1.663   8.422  12.035 -0.1678  0.1377  0.0958
  258loPI   PO4 4116   1.581   8.457  11.356 -0.2942 -0.0399  0.1412
  258loPI   GL1 4117   1.652   8.816  11.045  0.1776  0.2967 -0.0905
  258loPI   GL2 4118   1.472   8.522  10.870  0.1458 -0.1002  0.2002
  258loPI   C1A 4119   1.667   8.822  10.564  0.1673  0.0014  0.1268
  258loPI   C2A 4120   1.678   8.973  10.088  0.1903 -0.1084  0.2873
  258loPI   C3A 4121   1.443   8.895   9.708 -0.0379  0.0609  0.0107
  258loPI   C4A 4122   1.031   8.744   9.537 -0.1141  0.2579 -0.0153
  258loPI   C5A 4123   0.709   8.797   9.344 -0.7760 -0.1744 -0.0213
  258loPI   C6A 4124   0.441   8.606   9.080  0.0259  0.1417  0.1825
  258loPI   C1B 4125   1.316   8.423  10.434 -0.0849  0.1473 -0.0666
  258loPI   C2B 4126   1.432   8.564  10.094 -0.1231  0.0594  0.1402
  258loPI   C3B 4127   1.491   8.370   9.675  0.3690 -0.2921 -0.0260
  258loPI   C4B 4128   1.287   8.313   9.303  0.2462 -0.1723 -0.0358
  259loPI    C1 4129   1.117  13.307  11.814  0.2846  0.0596  0.1914
  259loPI    C2 4130   0.931  13.261  12.165  0.0621 -0.0077  0.0669
  259loPI    C3 4131   1.122  13.603  12.083 -0.0539  0.0840  0.1754
  259loPI   PO4 4132   1.162  13.046  11.739  0.0119 -0.0417 -0.0245
  259loPI   GL1 4133   1.466  12.791  11.447 -0.0554 -0.0691  0.1128
  259loPI   GL2 4134   1.214  12.794  11.291 -0.1910 -0.2065  0.0223
  259loPI   C1A 4135   1.625  12.753  10.989  0.2018  0.0252  0.1873
  259loPI   C2A 4136   1.764  12.641  10.603  0.0658  0.1264 -0.0702
  259loPI   C3A 4137   1.731  12.753  10.159  0.0430 -0.1991  0.2240
  259loPI   C4A 4138   1.675  12.898   9.684 -0.1433  0.2822 -0.2208
  259loPI   C5A 4139   1.878  13.125   9.255  0.0401 -0.0908 -0.3940
  259loPI   C6A 4140   2.330  13.088   9.121 -0.0632 -0.1117  0.0639
  259loPI   C1B 4141   0.854  12.850  10.928  0.0184  0.2596 -0.1858
  259loPI   C2B 4142   0.932  12.924  10.448 -0.1115  0.1553  0.1665
  259loPI   C3B 4143   0.813  13.031  10.162 -0.2234  0.3047  0.3383
  259loPI   C4B 4144   0.833  12.992   9.693  0.2221  0.0168 -0.0462
  260loPI    C1 4145  16.327   7.983  11.588 -0.0566  0.0497  0.0111
  260loPI    C2 4146  16.062   8.201  11.794  0.0211  0.0783  0.0811
  260loPI    C3 4147  16.445   8.314  11.777 -0.0122  0.1572 -0.2025
  260loPI   PO4 4148  16.334   7.969  11.314  0.2837 -0.0787 -0.2126
  260loPI   GL1 4149  16.157   8.259  10.982 -0.0473 -0.2112 -0.1725
  260loPI   GL2 4150  15.876   8.202  10.835 -0.0712 -0.2238 -0.1950
  260loPI   C1A 4151  16.306   8.351  10.611  0.1535 -0.1014  0.0655
  260loPI   C2A 4152  16.322   8.459  10.169 -0.0371  0.3017 -0.1639
  260loPI   C3A 4153  16.256   8.348   9.751 -0.0305 -0.1558  0.1679
  260loPI   C4A 4154  16.413   8.317   9.417 -0.0540  0.0142  0.2672
  260loPI   C5A 4155  16.424   8.223   8.995  0.0161  0.1590 -0.0646
  260loPI   C6A 4156  16.230   7.905   8.755  0.1033 -0.0124  0.1221
  260loPI   C1B 4157  15.842   8.096  10.362 -0.1633 -0.2693 -0.1171
  260loPI   C2B 4158  15.823   8.143   9.963 -0.1919  0.3609  0.0023
  260loPI   C3B 4159  15.854   8.161   9.585 -0.3076 -0.1130  0.1396
  260loPI   C4B 4160  15.916   8.216   9.174 -0.0481  0.2837 -0.2623
  261loPI    C1 4161   1.007   4.899  11.805  0.1185 -0.0066 -0.0257
  261loPI    C2 4162   0.782   4.908  12.136 -0.0384  0.2907 -0.1366
  261loPI    C3 4163   1.181   4.913  12.165 -0.0390 -0.2207  0.0607
  261loPI   PO4 4164   0.813   5.035  11.646  0.2831 -0.1321 -0.1292
  261loPI   GL1 4165   0.516   5.190  11.338  0.0113  0.0961  0.0220
  261loPI   GL2 4166   0.153   5.215  11.313  0.1591 -0.1455  0.2901
  261loPI   C1A 4167   0.547   4.973  10.995  0.2064 -0.0762 -0.1230
  261loPI   C2A 4168   0.523   4.818  10.551 -0.1471  0.1049  0.1261
  261loPI   C3A 4169   0.464   4.866  10.100 -0.1604  0.2733 -0.0855
  261loPI   C4A 4170   0.558   4.854   9.642  0.3520  0.1554  0.2555
  261loPI   C5A 4171   0.472   5.062   9.227  0.3059  0.0925 -0.1028
  261loPI   C6A 4172   0.214   4.924   8.938 -0.0380  0.3008 -0.1106
  261loPI   C1B 4173   0.138   5.245  10.827 -0.0872  0.1579 -0.0538
  261loPI   C2B 4174   0.190   5.166  10.368  0.1908  0.1276 -0.1650
  261loPI   C3B 4175   0.136   5.219   9.965 -0.1554  0.1979 -0.2844
  261loPI   C4B 4176   0.103   5.262   9.592  0.0028  0.2390 -0.0026
  262loPI    C1 4177  10.675   6.668  11.501 -0.0161  0.0328  0.0208
  262loPI    C2 4178  10.617   6.603  11.892 -0.0758 -0.1243 -0.0135
  262loPI    C3 4179  10.561   6.969  11.739 -0.1405 -0.0828  0.1086
  262loPI   PO4 4180  10.586   6.402  11.396  0.2080 -0.1042  0.0185
  262loPI   GL1 4181  10.394   6.357  11.035  0.2062 -0.0226 -0.3770
  262loPI   GL2 4182  10.196   6.518  11.119  0.0354 -0.2145 -0.2030
  262loPI   C1A 4183  10.383   6.212  10.756  0.1552 -0.0003 -0.0517
  262loPI   C2A 4184  10.320   6.050  10.267  0.0743  0.0012 -0.3251
  262loPI   C3A 4185  10.453   5.993   9.815  0.1037  0.1304 -0.2977
  262loPI   C4A 4186  10.471   5.985   9.387 -0.0505  0.0109  0.2509
  262loPI   C5A 4187  10.417   6.273   9.071 -0.2862 -0.0330 -0.0674
  262loPI   C6A 4188  10.646   6.540   8.937 -0.1242 -0.0752 -0.2710
  262loPI   C1B 4189  10.014   6.514  10.746  0.1147 -0.1930 -0.3055
  262loPI   C2B 4190  10.001   6.372  10.395 -0.0008  0.4282 -0.1144
  262loPI   C3B 4191  10.013   6.359   9.976 -0.0485  0.0744  0.0377
  262loPI   C4B 4192  10.055   6.280   9.497 -0.1887 -0.2089  0.1303
  263loPI    C1 4193  12.674   3.932  11.769  0.1271 -0.0171 -0.0135
  263loPI    C2 4194  12.480   4.005  12.111  0.0815  0.0970 -0.0632
  263loPI    C3 4195  12.859   3.877  12.120  0.0482  0.0035  0.0316
  263loPI   PO4 4196  12.528   4.159  11.607  0.3239 -0.0281 -0.1139
  263loPI   GL1 4197  12.160   4.163  11.392 -0.0651 -0.2390  0.0901
  263loPI   GL2 4198  12.243   3.888  11.285  0.0941  0.1408 -0.0962
  263loPI   C1A 4199  11.994   4.230  10.978  0.0957  0.1887 -0.4903
  263loPI   C2A 4200  12.020   4.245  10.513 -0.0472  0.1154  0.0344
  263loPI   C3A 4201  12.025   4.262  10.031 -0.2340 -0.0053 -0.2245
  263loPI   C4A 4202  12.090   4.124   9.708 -0.4001 -0.1415  0.0072
  263loPI   C5A 4203  12.299   4.013   9.265 -0.2476 -0.0846  0.1186
  263loPI   C6A 4204  12.053   4.139   8.944  0.0420 -0.0367 -0.1222
  263loPI   C1B 4205  12.383   3.986  10.836  0.0001  0.1226 -0.0172
  263loPI   C2B 4206  12.479   4.007  10.473 -0.1947  0.1136 -0.2350
  263loPI   C3B 4207  12.445   3.959  10.058 -0.2179  0.1299 -0.2130
  263loPI   C4B 4208  12.584   3.910   9.670  0.0512 -0.2347  0.0024
  264loPI    C1 4209   6.576  11.364  11.383  0.2242  0.1781  0.0376
  264loPI    C2 4210   6.401  11.328  11.741  0.0486  0.1805 -0.0473
  264loPI    C3 4211   6.792  11.410  11.717  0.0137  0.4131  0.1448
  264loPI   PO4 4212   6.533  11.619  11.223  0.3944 -0.1725 -0.1291
  264loPI   GL1 4213   6.521  11.591  10.780  0.1793  0.1160  0.2781
  264loPI   GL2 4214   6.777  11.427  10.784  0.0651 -0.1602  0.0347
  264loPI   C1A 4215   6.335  11.619  10.435 -0.0565  0.2015  0.0276
  264loPI   C2A 4216   6.372  11.706  10.079 -0.1561  0.0153  0.1934
  264loPI   C3A 4217   6.147  11.723   9.734  0.2739  0.1490 -0.2295
  264loPI   C4A 4218   6.040  11.631   9.358  0.3960  0.0762  0.3014
  264loPI   C5A 4219   5.873  11.576   8.998 -0.0300  0.1221 -0.0180
  264loPI   C6A 4220   5.748  11.646   8.587 -0.3296 -0.0488 -0.1661
  264loPI   C1B 4221   6.860  11.438  10.365  0.0077 -0.1506  0.0376
  264loPI   C2B 4222   6.837  11.426   9.889 -0.1892 -0.0934  0.3578
  264loPI   C3B 4223   6.806  11.423   9.498 -0.0819 -0.3381 -0.1085
  264loPI   C4B 4224   6.884  11.429   9.058  0.0776  0.0083  0.1685
  265loPI    C1 4225   5.433   4.104  12.213  0.0437 -0.2943  0.0290
  265loPI    C2 4226   5.746   4.146  12.459  0.1333 -0.0175 -0.1276
  265loPI    C3 4227   5.396   4.319  12.548  0.0654 -0.2042 -0.0260
  265loPI   PO4 4228   5.604   4.125  11.902  0.1331  0.1211 -0.0370
  265loPI   GL1 4229   5.409   4.120  11.497  0.0923 -0.1848  0.3894
  265loPI   GL2 4230   5.668   4.371  11.324  0.2547  0.1036  0.0593
  265loPI   C1A 4231   5.423   3.928  11.188 -0.0012  0.1973 -0.1949
  265loPI   C2A 4232   5.376   4.021  10.768 -0.0065 -0.1606  0.0014
  265loPI   C3A 4233   5.278   3.898  10.361 -0.0813 -0.1363 -0.1367
  265loPI   C4A 4234   5.406   3.843   9.941 -0.0739  0.0224 -0.0267
  265loPI   C5A 4235   5.605   3.940   9.461 -0.0510 -0.0640 -0.3326
  265loPI   C6A 4236   5.746   3.817   9.123  0.1199 -0.6273  0.0626
  265loPI   C1B 4237   5.466   4.465  10.920  0.0615 -0.0443  0.3038
  265loPI   C2B 4238   5.396   4.469  10.441 -0.1664 -0.4587  0.1568
  265loPI   C3B 4239   5.410   4.331  10.087  0.0618  0.4700  0.2987
  265loPI   C4B 4240   5.406   4.310   9.674  0.1636  0.0596  0.0711
  266loPI    C1 4241  16.472  14.563  12.068  0.0820 -0.0050  0.1937
  266loPI    C2 4242  16.266  14.659  12.397  0.3653  0.2281  0.3078
  266loPI    C3 4243  16.437  14.946  12.178  0.1113  0.0821 -0.0931
  266loPI   PO4 4244  16.283  14.390  11.860 -0.2439  0.3156 -0.2457
  266loPI   GL1 4245  16.122  14.465  11.446  0.0423  0.1500  0.0244
  266loPI   GL2 4246  16.469  14.447  11.361  0.0116  0.1753 -0.2690
  266loPI   C1A 4247  16.151  14.584  10.989  0.1362 -0.0531 -0.0470
  266loPI   C2A 4248  15.931  14.632  10.621 -0.1951  0.1866 -0.1153
  266loPI   C3A 4249  15.990  14.610  10.157  0.0698 -0.0963 -0.0814
  266loPI   C4A 4250  16.051  14.603   9.835 -0.1442 -0.0758  0.0266
  266loPI   C5A 4251  16.166  14.657   9.418 -0.1360 -0.1311 -0.2817
  266loPI   C6A 4252  16.186  14.515   8.985  0.3110 -0.1268  0.1057
  266loPI   C1B 4253  16.503  14.218  10.946 -0.0030  0.2426  0.0772
  266loPI   C2B 4254  16.447  14.234  10.620  0.3238  0.2426 -0.1268
  266loPI   C3B 4255  16.309  14.264  10.212  0.2226 -0.1669  0.2468
  266loPI   C4B 4256  16.384  14.241   9.816 -0.0781 -0.0973 -0.3019
  267loPI    C1 4257   5.475   8.117  11.175 -0.3541  0.2668  0.0302
  267loPI    C2 4258   5.564   8.116  11.565  0.0096  0.1915 -0.0492
  267loPI    C3 4259   5.568   7.773  11.359  0.0316  0.2607 -0.1646
  267loPI   PO4 4260   5.209   8.218  11.155 -0.1795  0.0671 -0.2572
  267loPI   GL1 4261   5.233   8.484  10.747 -0.0562  0.1384  0.2798
  267loPI   GL2 4262   4.929   8.583  10.837  0.0104  0.3027  0.2464
  267loPI   C1A 4263   5.275   8.400  10.305  0.4539  0.0941 -0.0602
  267loPI   C2A 4264   5.239   8.191   9.792 -0.1337 -0.0552 -0.0183
  267loPI   C3A 4265   5.287   8.179   9.370 -0.0468  0.2710  0.0557
  267loPI   C4A 4266   5.408   8.358   9.011 -0.2888  0.3302 -0.2896
  267loPI   C5A 4267   5.892   8.302   8.743  0.0025  0.2548 -0.0609
  267loPI   C6A 4268   6.294   8.097   8.475  0.1710 -0.0387 -0.0610
  267loPI   C1B 4269   4.783   8.548  10.447  0.4161  0.1254 -0.0175
  267loPI   C2B 4270   4.814   8.562   9.970 -0.1928  0.5040  0.0710
  267loPI   C3B 4271   4.885   8.511   9.465 -0.3129 -0.2962  0.0379
  267loPI   C4B 4272   4.922   8.411   9.098 -0.0229  0.0248  0.1094
  268loPI    C1 4273   6.205   7.456  11.418 -0.4983 -0.0520 -0.0351
  268loPI    C2 4274   6.014   7.702  11.669 -0.2944 -0.0182  0.0892
  268loPI    C3 4275   6.121   7.336  11.791 -0.0306  0.0657  0.1148
  268loPI   PO4 4276   5.987   7.570  11.187  0.1058  0.2229  0.1953
  268loPI   GL1 4277   5.684   7.675  10.877 -0.1739 -0.0087 -0.0163
  268loPI   GL2 4278   5.962   7.830  10.703  0.2588 -0.2071 -0.1487
  268loPI   C1A 4279   5.361   7.915  10.618  0.1447 -0.0779  0.2034
  268loPI   C2A 4280   5.506   7.888  10.154  0.1890  0.1995 -0.1130
  268loPI   C3A 4281   5.649   7.817   9.797  0.1483  0.1798 -0.1508
  268loPI   C4A 4282   5.659   7.829   9.440 -0.1450 -0.2269 -0.0812
  268loPI   C5A 4283   5.631   7.877   9.033  0.1879 -0.3755 -0.2095
  268loPI   C6A 4284   5.426   7.535   8.900  0.1800 -0.0523 -0.2906
  268loPI   C1B 4285   6.033   7.947  10.258 -0.0127 -0.0249  0.0529
  268loPI   C2B 4286   6.131   7.955   9.898  0.3759  0.2764  0.3765
  268loPI   C3B 4287   6.179   7.925   9.467 -0.2976 -0.1154 -0.3873
  268loPI   C4B 4288   6.278   7.842   9.048  0.0215  0.0700  0.1387
  269loPI    C1 4289   0.626   1.205  11.984 -0.0432 -0.2205  0.1326
  269loPI    C2 4290   1.022   1.252  12.007 -0.0345 -0.1263 -0.1571
  269loPI    C3 4291   0.823   1.075  12.306  0.2094 -0.0734  0.0401
  269loPI   PO4 4292   0.586   1.152  11.756 -0.0204 -0.1365 -0.1044
  269loPI   GL1 4293   0.384   1.150  11.360  0.1927  0.1694  0.3229
  269loPI   GL2 4294   0.673   1.133  11.245  0.2767 -0.0307 -0.1076
  269loPI   C1A 4295   0.337   0.972  10.901  0.0971  0.2294  0.0719
  269loPI   C2A 4296   0.274   0.987  10.384 -0.2579 -0.0826 -0.7962
  269loPI   C3A 4297   0.270   1.021   9.995 -0.0259  0.0025  0.3949
  269loPI   C4A 4298   0.340   0.929   9.616 -0.1333  0.1745 -0.2147
  269loPI   C5A 4299   0.480   1.066   9.282  0.2622  0.2220  0.0409
  269loPI   C6A 4300   0.766   1.289   9.046  0.0832  0.1742 -0.2449
  269loPI   C1B 4301   0.829   1.182  10.877 -0.0946  0.2124 -0.0439
  269loPI   C2B 4302   0.869   1.117  10.445  0.1983 -0.1806 -0.0044
  269loPI   C3B 4303   0.716   1.141  10.015 -0.0203 -0.4314  0.0430
  269loPI   C4B 4304   0.754   1.370   9.559 -0.3101  0.0603 -0.0485
  270loPI    C1 4305   8.504  14.729  11.496 -0.2224 -0.2305 -0.0807
  270loPI    C2 4306   8.329  14.734  11.856  0.0340 -0.0863  0.0446
  270loPI    C3 4307   8.531  14.411  11.736 -0.1649 -0.1856 -0.0274
  270loPI   PO4 4308   8.338  14.859  11.328  0.2440  0.0361 -0.0452
  270loPI   GL1 4309   8.418  14.898  11.006 -0.1634  0.0813  0.1295
  270loPI   GL2 4310   8.713  14.708  10.968 -0.3118 -0.0157  0.1398
  270loPI   C1A 4311   8.431  14.838  10.552  0.1886  0.1659  0.0665
  270loPI   C2A 4312   8.450  14.797  10.182 -0.0517 -0.0533  0.0010
  270loPI   C3A 4313   8.482  14.908   9.808 -0.3124  0.0377 -0.2333
  270loPI   C4A 4314   8.480  14.931   9.328  0.0871 -0.1566  0.0246
  270loPI   C5A 4315   8.712  15.191   9.008 -0.1432 -0.1809  0.0455
  270loPI   C6A 4316   9.063  15.126   8.703  0.2422  0.1063  0.1880
  270loPI   C1B 4317   8.864  14.551  10.644 -0.5041  0.1136 -0.0463
  270loPI   C2B 4318   8.971  14.518  10.267 -0.0222  0.0970 -0.0516
  270loPI   C3B 4319   8.940  14.584   9.752 -0.1978  0.0656 -0.0255
  270loPI   C4B 4320   8.970  14.524   9.337  0.0027 -0.2197  0.2138
  271loPI    C1 4321  16.918   9.727  12.013  0.0950 -0.0223 -0.1008
  271loPI    C2 4322  16.894   9.327  12.003  0.3662 -0.0542  0.2878
  271loPI    C3 4323  16.613   9.540  12.193  0.2424 -0.0603  0.1138
  271loPI   PO4 4324  16.905   9.784  11.706  0.0536  0.1960 -0.2228
  271loPI   GL1 4325  16.932   9.748  11.241 -0.2928 -0.4301 -0.0270
  271loPI   GL2 4326  17.079  10.103  11.323 -0.0847 -0.4265 -0.0387
  271loPI   C1A 4327  17.018   9.538  10.892 -0.0053 -0.1063 -0.1483
  271loPI   C2A 4328  17.047   9.575  10.469 -0.4835  0.0630 -0.1686
  271loPI   C3A 4329  16.959   9.642  10.065 -0.0378 -0.0828 -0.0751
  271loPI   C4A 4330  16.979   9.773   9.669  0.0679 -0.0439  0.2439
  271loPI   C5A 4331  16.595   9.695   9.403 -0.2187 -0.1811  0.0142
  271loPI   C6A 4332  16.351   9.697   8.949  0.1630 -0.0261 -0.0839
  271loPI   C1B 4333  17.145  10.063  10.960 -0.3248 -0.0643  0.3721
  271loPI   C2B 4334  17.070  10.200  10.480 -0.2601 -0.2953 -0.3168
  271loPI   C3B 4335  17.030  10.242  10.005 -0.0824  0.0917 -0.0179
  271loPI   C4B 4336  17.088  10.321   9.599 -0.2773 -0.0209  0.0248
  272loPI    C1 4337   1.947  15.901  11.831 -0.0085  0.0156  0.0117
  272loPI    C2 4338   2.205  15.596  11.843  0.0969  0.1107  0.1836
  272loPI    C3 4339   1.861  15.558  11.644  0.3276  0.0494 -0.2143
  272loPI   PO4 4340   2.082  16.074  11.742  0.0883  0.1238 -0.1601
  272loPI   GL1 4341   2.246  16.077  11.316 -0.1958 -0.0665 -0.2812
  272loPI   GL2 4342   2.239  15.762  11.376  0.3119 -0.2013  0.2099
  272loPI   C1A 4343   2.331  15.996  10.883  0.2728  0.1792 -0.0200
  272loPI   C2A 4344   2.200  15.837  10.544  0.1344 -0.0877 -0.0274
  272loPI   C3A 4345   2.180  15.945  10.212 -0.0298 -0.0901  0.0739
  272loPI   C4A 4346   2.210  16.027   9.753  0.2542  0.0466  0.0611
  272loPI   C5A 4347   2.311  16.036   9.364 -0.0749 -0.0024  0.0336
  272loPI   C6A 4348   2.503  16.266   9.121  0.0907 -0.1018 -0.0751
  272loPI   C1B 4349   1.987  15.721  11.022  0.2241  0.0359  0.1702
  272loPI   C2B 4350   1.625  15.687  10.795 -0.2053 -0.1578  0.0720
  272loPI   C3B 4351   1.675  15.790  10.320 -0.3059  0.3993 -0.0209
  272loPI   C4B 4352   1.652  15.838   9.881  0.0643  0.2494  0.3446
  273loPI    C1 4353   9.706  10.731  11.507 -0.1349 -0.1009 -0.0893
  273loPI    C2 4354   9.827  10.510  11.818 -0.1142 -0.0903 -0.0898
  273loPI    C3 4355   9.452  10.650  11.806 -0.0005  0.2441  0.1237
  273loPI   PO4 4356   9.769  10.625  11.311 -0.0345  0.0853 -0.4824
  273loPI   GL1 4357   9.971  10.498  10.940  0.1276  0.1994 -0.0382
  273loPI   GL2 4358  10.171  10.326  10.791 -0.3330  0.0592  0.0365
  273loPI   C1A 4359   9.951  10.701  10.505 -0.1745  0.1522 -0.0062
  273loPI   C2A 4360  10.013  10.682  10.148 -0.1907 -0.0301 -0.0546
  273loPI   C3A 4361   9.880  10.649   9.736 -0.1787  0.0434  0.0971
  273loPI   C4A 4362   9.884  10.695   9.265  0.2188 -0.0912  0.3301
  273loPI   C5A 4363   9.691  10.874   8.866 -0.0459  0.2789 -0.1178
  273loPI   C6A 4364   9.665  11.069   8.481  0.1547  0.0732 -0.0371
  273loPI   C1B 4365  10.238  10.244  10.343 -0.0627  0.2669 -0.0883
  273loPI   C2B 4366  10.243  10.272   9.863 -0.2064 -0.0200 -0.0406
  273loPI   C3B 4367  10.279  10.261   9.445 -0.2969 -0.2666  0.1466
  273loPI   C4B 4368  10.268  10.290   8.976  0.2496 -0.0730 -0.0154
  274loPI    C1 4369   4.845   0.204  11.953 -0.0639  0.1676  0.0823
  274loPI    C2 4370   4.684  -0.161  11.988  0.0487  0.0948 -0.1443
  274loPI    C3 4371   4.958  -0.037  12.252 -0.1127  0.0814  0.0316
  274loPI   PO4 4372   4.931   0.187  11.696 -0.0582 -0.0181 -0.0337
  274loPI   GL1 4373   4.887   0.285  11.229  0.1171 -0.1060  0.1181
  274loPI   GL2 4374   4.959   0.596  11.268 -0.3526 -0.2745 -0.1299
  274loPI   C1A 4375   4.788   0.252  10.692 -0.1095  0.0692 -0.1592
  274loPI   C2A 4376   4.754   0.295  10.308 -0.1041 -0.1106 -0.1723
  274loPI   C3A 4377   4.795   0.178   9.881 -0.0486 -0.0050  0.0819
  274loPI   C4A 4378   4.802   0.134   9.447 -0.2710  0.1720  0.0004
  274loPI   C5A 4379   4.989  -0.212   9.149  0.1608  0.1677  0.0546
  274loPI   C6A 4380   4.998  -0.484   8.907 -0.1105 -0.1823  0.0674
  274loPI   C1B 4381   4.923   0.665  10.859  0.3375 -0.0801  0.1824
  274loPI   C2B 4382   4.856   0.768  10.400  0.1338 -0.0772  0.0354
  274loPI   C3B 4383   4.898   0.752   9.913  0.0157  0.1991  0.1021
  274loPI   C4B 4384   4.883   0.655   9.507  0.0195 -0.0182  0.2310
  275loPI    C1 4385   7.967   7.788  11.728  0.1304 -0.0856  0.0492
  275loPI    C2 4386   8.082   8.035  12.021 -0.2114 -0.1411  0.2363
  275loPI    C3 4387   8.043   7.644  12.093 -0.1379 -0.1802  0.0698
  275loPI   PO4 4388   7.813   7.995  11.530  0.0921 -0.0756 -0.0664
  275loPI   GL1 4389   7.667   7.927  11.057  0.0324 -0.3562 -0.1622
  275loPI   GL2 4390   7.603   8.027  10.841 -0.3443  0.0275  0.0651
  275loPI   C1A 4391   7.899   7.694  10.671 -0.2798  0.0864  0.1181
  275loPI   C2A 4392   7.961   7.601  10.294 -0.0804  0.1608 -0.2629
  275loPI   C3A 4393   7.981   7.570   9.912  0.1021  0.0199 -0.0267
  275loPI   C4A 4394   7.888   7.554   9.451 -0.1833  0.0558  0.1084
  275loPI   C5A 4395   8.037   7.411   8.991 -0.1674  0.0459 -0.0118
  275loPI   C6A 4396   8.083   7.349   8.512 -0.0325 -0.1365  0.2512
  275loPI   C1B 4397   7.629   7.996  10.388 -0.1001  0.2167  0.4600
  275loPI   C2B 4398   7.623   8.008   9.925  0.0592  0.3188  0.1248
  275loPI   C3B 4399   7.467   7.903   9.454 -0.0145  0.1487 -0.1353
  275loPI   C4B 4400   7.582   7.956   9.084 -0.1795  0.1104 -0.0283
  276loPI    C1 4401   9.884  12.169  11.571 -0.0585  0.1682  0.0392
  276loPI    C2 4402   9.808  12.508  11.769  0.0075  0.0469  0.2759
  276loPI    C3 4403  10.041  12.228  11.934 -0.1471 -0.1671  0.1353
  276loPI   PO4 4404   9.762  12.146  11.401  0.0008 -0.1983  0.2166
  276loPI   GL1 4405   9.544  12.005  11.056 -0.1350  0.0983 -0.2525
  276loPI   GL2 4406   9.641  12.224  10.927  0.2533 -0.0220 -0.2013
  276loPI   C1A 4407   9.370  11.872  10.635 -0.0924  0.1673  0.2040
  276loPI   C2A 4408   9.231  11.815  10.226  0.1025  0.1136 -0.1893
  276loPI   C3A 4409   9.115  11.818   9.838  0.1145 -0.0537  0.4945
  276loPI   C4A 4410   9.186  11.766   9.369  0.2257 -0.1439  0.0366
  276loPI   C5A 4411   9.119  11.772   8.927  0.2463  0.0069 -0.3015
  276loPI   C6A 4412   9.052  12.134   8.658  0.1072 -0.2668  0.2205
  276loPI   C1B 4413   9.483  12.360  10.615 -0.0602  0.1484 -0.3168
  276loPI   C2B 4414   9.332  12.353  10.177  0.3286  0.0075 -0.0866
  276loPI   C3B 4415   9.252  12.323   9.884 -0.1569  0.0255 -0.0427
  276loPI   C4B 4416   9.367  12.351   9.472  0.2624  0.2771  0.0424
  277loPI    C1 4417   6.874  11.887  11.541  0.2136 -0.2386  0.0453
  277loPI    C2 4418   7.201  11.695  11.669  0.2070 -0.1422  0.2099
  277loPI    C3 4419   7.062  12.010  11.872  0.0793 -0.1101  0.0746
  277loPI   PO4 4420   6.893  11.958  11.355  0.1546 -0.2591 -0.2211
  277loPI   GL1 4421   6.820  12.034  10.929  0.0429  0.1920  0.2585
  277loPI   GL2 4422   6.619  12.296  10.795 -0.0106 -0.0634 -0.0846
  277loPI   C1A 4423   6.743  11.945  10.467  0.1106 -0.0716 -0.0487
  277loPI   C2A 4424   6.770  11.980  10.123 -0.1498 -0.4214 -0.2312
  277loPI   C3A 4425   6.608  11.860   9.661  0.1748  0.1256 -0.0205
  277loPI   C4A 4426   6.469  11.886   9.180 -0.1140 -0.0140  0.0351
  277loPI   C5A 4427   6.657  12.093   8.855  0.2896 -0.0289 -0.0339
  277loPI   C6A 4428   7.017  12.340   8.908  0.2306  0.0502  0.0584
  277loPI   C1B 4429   6.592  12.405  10.274  0.1043  0.0371  0.1792
  277loPI   C2B 4430   6.734  12.317   9.790  0.0869 -0.1465 -0.1798
  277loPI   C3B 4431   6.890  12.192   9.434  0.1465 -0.0275 -0.1179
  277loPI   C4B 4432   6.972  11.857   9.277 -0.1706  0.0378  0.3836
  278loPI    C1 4433   3.231  13.498  11.640 -0.1635 -0.1849  0.1547
  278loPI    C2 4434   3.233  13.811  11.888 -0.2494 -0.1205  0.0752
  278loPI    C3 4435   3.315  13.445  12.027  0.2195 -0.0125  0.0994
  278loPI   PO4 4436   2.979  13.559  11.447 -0.0259  0.2131 -0.0381
  278loPI   GL1 4437   2.904  13.838  11.095 -0.0107  0.0649  0.3347
  278loPI   GL2 4438   2.801  13.510  11.008  0.1412  0.2020  0.1719
  278loPI   C1A 4439   3.196  13.878  10.739  0.0429  0.1527 -0.0484
  278loPI   C2A 4440   3.267  13.900  10.343 -0.1403  0.1483  0.0943
  278loPI   C3A 4441   3.209  13.984   9.917 -0.1078 -0.0533  0.1106
  278loPI   C4A 4442   3.126  13.978   9.458  0.3160 -0.0232 -0.0944
  278loPI   C5A 4443   3.202  13.881   9.011 -0.3693 -0.1326  0.1378
  278loPI   C6A 4444   3.644  13.866   8.806 -0.1443 -0.0437 -0.0829
  278loPI   C1B 4445   2.761  13.645  10.592 -0.0735 -0.0622  0.3815
  278loPI   C2B 4446   2.775  13.798  10.172  0.0634 -0.1295 -0.2227
  278loPI   C3B 4447   2.711  13.842   9.674 -0.1155  0.2796 -0.1573
  278loPI   C4B 4448   2.771  13.731   9.236 -0.1556 -0.0446  0.2681
  279loPI    C1 4449  11.898   3.384  11.931  0.1747  0.0276 -0.0122
  279loPI    C2 4450  12.105   3.577  12.215  0.1022  0.1746 -0.0583
  279loPI    C3 4451  11.757   3.725  12.085 -0.0140 -0.0507 -0.0096
  279loPI   PO4 4452  12.102   3.312  11.763 -0.2183 -0.2828  0.0371
  279loPI   GL1 4453  12.114   3.363  11.296  0.0085 -0.3879 -0.3548
  279loPI   GL2 4454  12.268   3.080  11.365  0.3262 -0.1546  0.2191
  279loPI   C1A 4455  12.207   3.377  10.876 -0.1009  0.1203 -0.0077
  279loPI   C2A 4456  12.228   3.258  10.473 -0.4765  0.1467 -0.0867
  279loPI   C3A 4457  12.299   3.330  10.054  0.0246  0.1536  0.0850
  279loPI   C4A 4458  12.472   3.316   9.659  0.1218 -0.1379  0.1139
  279loPI   C5A 4459  12.581   3.510   9.235 -0.2181  0.2489  0.2311
  279loPI   C6A 4460  12.918   3.607   8.947 -0.2249  0.0568  0.0611
  279loPI   C1B 4461  12.091   2.744  11.068 -0.5135  0.1422 -0.1252
  279loPI   C2B 4462  12.187   2.792  10.629  0.0806 -0.1873 -0.1000
  279loPI   C3B 4463  12.190   2.835  10.216  0.2102  0.3599 -0.0359
  279loPI   C4B 4464  12.397   2.860   9.876  0.2691 -0.0955  0.2522
  280loPI    C1 4465   5.594  11.608  11.478 -0.0376 -0.2387  0.0417
  280loPI    C2 4466   5.206  11.550  11.554 -0.0524 -0.0832  0.0872
  280loPI    C3 4467   5.476  11.512  11.847 -0.0388 -0.1398  0.0673
  280loPI   PO4 4468   5.638  11.474  11.304 -0.2385 -0.1525  0.0913
  280loPI   GL1 4469   5.599  11.320  10.944 -0.2980 -0.3779  0.1567
  280loPI   GL2 4470   5.448  11.137  10.763  0.1442  0.1194 -0.2440
  280loPI   C1A 4471   5.911  11.275  10.574  0.0191  0.0995 -0.0568
  280loPI   C2A 4472   6.007  11.329  10.178 -0.0615 -0.1335 -0.1905
  280loPI   C3A 4473   5.767  11.424   9.819 -0.3578  0.0922  0.1149
  280loPI   C4A 4474   5.510  11.481   9.372 -0.2032 -0.2991 -0.3067
  280loPI   C5A 4475   5.414  11.773   9.061 -0.0548  0.0684 -0.0206
  280loPI   C6A 4476   5.527  12.053   8.731 -0.1160 -0.1071  0.0723
  280loPI   C1B 4477   5.431  11.091  10.307 -0.0030 -0.0789 -0.1711
  280loPI   C2B 4478   5.369  11.159   9.794  0.1749  0.0281 -0.0601
  280loPI   C3B 4479   5.089  11.263   9.557  0.3069 -0.0738  0.1024
  280loPI   C4B 4480   5.055  11.423   9.140  0.0470  0.2340 -0.5246
  281loPI    C1 4481   0.599  12.334  11.740 -0.3638 -0.1246 -0.1100
  281loPI    C2 4482   0.695  12.024  11.973 -0.1244  0.0105 -0.0256
  281loPI    C3 4483   0.545  12.358  12.135  0.1954  0.1654 -0.0413
  281loPI   PO4 4484   0.430  12.231  11.533 -0.1771  0.1119 -0.1022
  281loPI   GL1 4485   0.360  12.067  11.067 -0.3297 -0.1277  0.1081
  281loPI   GL2 4486   0.525  11.804  11.164 -0.1433  0.0661 -0.3884
  281loPI   C1A 4487   0.206  12.169  10.618 -0.2270 -0.1769  0.2420
  281loPI   C2A 4488   0.293  12.276  10.056  0.2708 -0.3777  0.1256
  281loPI   C3A 4489   0.237  12.323   9.652 -0.0256 -0.4004  0.3649
  281loPI   C4A 4490   0.251  12.291   9.252  0.2866  0.1239 -0.1500
  281loPI   C5A 4491   0.006  12.176   8.932 -0.0072 -0.2050  0.0203
  281loPI   C6A 4492  -0.480  12.100   8.864  0.1780 -0.1025 -0.2035
  281loPI   C1B 4493   0.644  11.806  10.684  0.1588 -0.1503 -0.0014
  281loPI   C2B 4494   0.622  11.914  10.288  0.1780  0.0640  0.0617
  281loPI   C3B 4495   0.636  11.934   9.820  0.1263 -0.2705  0.0072
  281loPI   C4B 4496   0.641  12.038   9.349 -0.0280 -0.2340 -0.0898
  282loPI    C1 4497  14.968  15.229  11.933 -0.1741 -0.1003  0.0107
  282loPI    C2 4498  15.071  14.845  11.892  0.0385 -0.0198 -0.2349
  282loPI    C3 4499  15.320  15.100  12.073 -0.1659 -0.0251  0.0604
  282loPI   PO4 4500  14.885  15.236  11.642 -0.1182  0.0426  0.0305
  282loPI   GL1 4501  14.955  15.164  11.245  0.0027  0.1326 -0.1188
  282loPI   GL2 4502  14.916  14.840  11.123 -0.3290 -0.3909  0.0163
  282loPI   C1A 4503  15.145  15.310  10.838 -0.1458  0.0513 -0.3784
  282loPI   C2A 4504  15.175  15.224  10.398 -0.0770 -0.0628  0.2696
  282loPI   C3A 4505  15.238  15.312   9.994  0.0592 -0.1000 -0.1655
  282loPI   C4A 4506  15.275  15.433   9.548  0.1264 -0.2379 -0.0440
  282loPI   C5A 4507  15.037  15.614   9.252 -0.4256 -0.1977 -0.0894
  282loPI   C6A 4508  15.210  15.834   8.876  0.0983  0.3175 -0.4223
  282loPI   C1B 4509  15.030  14.874  10.724  0.0207  0.0844  0.0882
  282loPI   C2B 4510  15.141  14.755  10.236  0.2196  0.3159  0.1066
  282loPI   C3B 4511  15.088  14.802   9.724 -0.2021 -0.1870 -0.0636
  282loPI   C4B 4512  15.035  14.711   9.326 -0.0712 -0.0936 -0.1137
  283loPI    C1 4513  16.199   6.117  11.836 -0.0580  0.0185  0.0025
  283loPI    C2 4514  16.533   6.145  12.053  0.0991 -0.0306 -0.2290
  283loPI    C3 4515  16.180   6.099  12.235  0.2362 -0.1550  0.0114
  283loPI   PO4 4516  16.215   6.309  11.658 -0.0175 -0.1038 -0.0499
  283loPI   GL1 4517  16.396   6.405  11.295 -0.0631 -0.0370  0.0350
  283loPI   GL2 4518  16.319   6.031  11.277 -0.0403 -0.3189 -0.4035
  283loPI   C1A 4519  16.134   6.355  10.979  0.1512 -0.0674  0.1163
  283loPI   C2A 4520  16.056   6.382  10.598  0.1476 -0.1839  0.0067
  283loPI   C3A 4521  16.043   6.331  10.215  0.0805  0.0514  0.1054
  283loPI   C4A 4522  16.016   6.153   9.810  0.0892 -0.2501  0.3479
  283loPI   C5A 4523  16.137   6.230   9.373 -0.1017  0.2716 -0.2011
  283loPI   C6A 4524  16.419   6.166   8.899 -0.1958  0.4053 -0.0739
  283loPI   C1B 4525  16.471   6.004  10.816  0.1883  0.2454 -0.1404
  283loPI   C2B 4526  16.505   6.082  10.486 -0.1908 -0.0136  0.0771
  283loPI   C3B 4527  16.428   6.006  10.075  0.0972 -0.0370 -0.0494
  283loPI   C4B 4528  16.476   6.001   9.656 -0.0300 -0.2106  0.1104
  284loPI    C1 4529   2.493  12.265  12.033  0.2230 -0.1062  0.0266
  284loPI    C2 4530   2.327  12.467  12.335 -0.0540 -0.2609 -0.0191
  284loPI    C3 4531   2.636  12.223  12.404  0.2283  0.1064  0.0503
  284loPI   PO4 4532   2.385  12.340  11.870  0.2751 -0.1237  0.0198
  284loPI   GL1 4533   2.382  12.200  11.444  0.2061  0.1560 -0.1479
  284loPI   GL2 4534   2.404  12.446  11.319  0.1810 -0.0937 -0.1389
  284loPI   C1A 4535   2.573  12.041  11.095 -0.0778 -0.0364 -0.1818
  284loPI   C2A 4536   2.531  11.989  10.633  0.1092 -0.0743 -0.1633
  284loPI   C3A 4537   2.519  12.090  10.196 -0.0317  0.0873 -0.1811
  284loPI   C4A 4538   2.465  12.034   9.772 -0.2260  0.0589  0.1580
  284loPI   C5A 4539   2.480  12.246   9.398 -0.0040  0.2435 -0.1800
  284loPI   C6A 4540   2.807  12.075   9.110  0.1657  0.0715 -0.0962
  284loPI   C1B 4541   2.173  12.350  10.975 -0.2923  0.3931  0.1455
  284loPI   C2B 4542   2.206  12.370  10.561  0.1686  0.0160 -0.0071
  284loPI   C3B 4543   2.147  12.382  10.141 -0.2183  0.0248 -0.1871
  284loPI   C4B 4544   2.046  12.456   9.731  0.0100 -0.0765  0.0277
  285loPI    C1 4545  16.656  15.686  11.775  0.0965 -0.0556  0.0254
  285loPI    C2 4546  16.822  15.719  12.137  0.0020 -0.0432  0.0679
  285loPI    C3 4547  16.676  15.367  12.015  0.1393 -0.0757 -0.0048
  285loPI   PO4 4548  16.876  15.729  11.621 -0.2876 -0.1521 -0.1357
  285loPI   GL1 4549  16.849  15.910  11.251 -0.0643  0.0525  0.2811
  285loPI   GL2 4550  16.813  16.170  11.428  0.1792  0.0188  0.0985
  285loPI   C1A 4551  16.621  15.925  10.870 -0.0115  0.0799 -0.0084
  285loPI   C2A 4552  16.612  15.901  10.500 -0.1686  0.0397  0.1933
  285loPI   C3A 4553  16.629  15.818  10.116 -0.0076 -0.1621  0.0506
  285loPI   C4A 4554  16.643  15.887   9.636 -0.0833  0.2674  0.2905
  285loPI   C5A 4555  16.858  16.053   9.294 -0.0990  0.1413  0.0376
  285loPI   C6A 4556  17.280  16.268   9.265  0.0341 -0.2849 -0.1019
  285loPI   C1B 4557  17.055  16.445  11.083 -0.3354  0.0092  0.0587
  285loPI   C2B 4558  17.176  16.592  10.647  0.1515  0.3052  0.2503
  285loPI   C3B 4559  17.232  16.622  10.218  0.2035 -0.0172  0.1226
  285loPI   C4B 4560  17.147  16.676   9.824  0.0472 -0.4429  0.2870
  286loPI    C1 4561   6.690   2.487  12.081 -0.0117  0.3617  0.0750
  286loPI    C2 4562   6.352   2.534  12.290 -0.1670  0.0298 -0.0938
  286loPI    C3 4563   6.705   2.523  12.479 -0.2643  0.1987  0.1018
  286loPI   PO4 4564   6.665   2.691  11.904 -0.5500 -0.2611  0.3629
  286loPI   GL1 4565   6.596   2.731  11.520  0.0363 -0.2038 -0.1496
  286loPI   GL2 4566   6.787   2.722  11.283  0.1177  0.2245 -0.1715
  286loPI   C1A 4567   6.265   2.733  11.254  0.2508  0.1157  0.1912
  286loPI   C2A 4568   6.208   2.751  10.754 -0.0006 -0.2526  0.1461
  286loPI   C3A 4569   6.082   2.747  10.358  0.3391  0.0492  0.0358
  286loPI   C4A 4570   6.074   2.643   9.964 -0.2142  0.2031 -0.1068
  286loPI   C5A 4571   6.176   2.597   9.581 -0.2301  0.1049  0.0270
  286loPI   C6A 4572   6.284   2.897   9.236  0.3038  0.4258  0.0578
  286loPI   C1B 4573   6.702   2.822  10.899  0.1686 -0.2008  0.0645
  286loPI   C2B 4574   6.594   2.762  10.477 -0.0376 -0.1347  0.1217
  286loPI   C3B 4575   6.587   2.732  10.032  0.0130 -0.1565 -0.0611
  286loPI   C4B 4576   6.642   2.781   9.588 -0.0106 -0.0393 -0.1647
  287loPI    C1 4577   1.528  12.298  11.962 -0.0703  0.0322  0.0667
  287loPI    C2 4578   1.906  12.321  12.089 -0.0011 -0.1013 -0.1111
  287loPI    C3 4579   1.637  12.114  12.300 -0.0211  0.1506  0.1157
  287loPI   PO4 4580   1.551  12.202  11.702  0.3136  0.1990 -0.2018
  287loPI   GL1 4581   1.348  12.313  11.296  0.1088 -0.1491 -0.2870
  287loPI   GL2 4582   1.819  12.154  11.278  0.1171 -0.2689 -0.0153
  287loPI   C1A 4583   1.196  12.416  10.904 -0.1058 -0.1768 -0.1273
  287loPI   C2A 4584   1.287  12.555  10.495  0.2134 -0.0491 -0.0280
  287loPI   C3A 4585   1.237  12.721   9.998  0.2339  0.0059 -0.0125
  287loPI   C4A 4586   1.258  12.697   9.539  0.0428 -0.0538 -0.2539
  287loPI   C5A 4587   1.477  12.884   9.217 -0.0732  0.1352 -0.0390
  287loPI   C6A 4588   1.657  12.883   8.778 -0.2579  0.0794 -0.1107
  287loPI   C1B 4589   1.711  12.234  10.802 -0.0467  0.0674 -0.3799
  287loPI   C2B 4590   1.681  12.187  10.356 -0.0580  0.2316 -0.3561
  287loPI   C3B 4591   1.581  12.318   9.956 -0.1522  0.1004 -0.2527
  287loPI   C4B 4592   1.626  12.350   9.504 -0.1102 -0.0895  0.0488
  288loPI    C1 4593   1.551   5.900  12.125  0.3111 -0.0877  0.1205
  288loPI    C2 4594   1.676   5.766  12.480  0.1209  0.4713  0.4106
  288loPI    C3 4595   1.427   6.078  12.461 -0.4485  0.0086 -0.1900
  288loPI   PO4 4596   1.778   5.913  11.933 -0.0418  0.2085 -0.2334
  288loPI   GL1 4597   2.026   6.037  11.554 -0.0554 -0.4349 -0.0241
  288loPI   GL2 4598   1.652   6.061  11.423  0.0890 -0.1032 -0.1604
  288loPI   C1A 4599   2.018   6.007  11.115  0.2999  0.0078  0.1905
  288loPI   C2A 4600   1.976   6.046  10.721  0.3226 -0.1675  0.0167
  288loPI   C3A 4601   2.056   5.941  10.281  0.1065  0.1136  0.1313
  288loPI   C4A 4602   2.183   5.916   9.879 -0.0684 -0.2850 -0.1256
  288loPI   C5A 4603   2.173   5.763   9.543  0.1079 -0.1641  0.5667
  288loPI   C6A 4604   2.095   5.496   9.181  0.1215  0.1625  0.1535
  288loPI   C1B 4605   1.440   5.760  11.197 -0.0208  0.0258 -0.1718
  288loPI   C2B 4606   1.553   5.823  10.839  0.2012 -0.2112  0.1656
  288loPI   C3B 4607   1.619   5.814  10.448 -0.2144  0.0136 -0.2011
  288loPI   C4B 4608   1.508   5.705  10.150 -0.1330  0.1952  0.1864
  289loPI    C1 4609   9.020   3.651  11.601  0.2980  0.0707 -0.0380
  289loPI    C2 4610   9.030   3.996  11.803  0.0526  0.0756 -0.0311
  289loPI    C3 4611   8.903   3.663  11.983  0.1225  0.0173 -0.0891
  289loPI   PO4 4612   9.004   3.688  11.331 -0.0682  0.1537  0.2689
  289loPI   GL1 4613   8.822   3.542  10.928  0.1363  0.0077  0.0570
  289loPI   GL2 4614   8.653   3.290  10.819  0.1691 -0.1504 -0.4237
  289loPI   C1A 4615   8.676   3.710  10.521 -0.0435  0.1885 -0.0469
  289loPI   C2A 4616   8.619   3.734  10.083 -0.0254 -0.2162  0.1389
  289loPI   C3A 4617   8.703   3.875   9.671  0.1401 -0.1059  0.2101
  289loPI   C4A 4618   8.860   4.044   9.230 -0.2168 -0.2454  0.0431
  289loPI   C5A 4619   8.996   4.288   8.794  0.1515  0.0820  0.0536
  289loPI   C6A 4620   9.054   4.729   8.703  0.2074 -0.2452 -0.1643
  289loPI   C1B 4621   8.777   3.232  10.364  0.0387 -0.0046 -0.1134
  289loPI   C2B 4622   8.806   3.278  10.006 -0.2006 -0.1694 -0.2070
  289loPI   C3B 4623   8.533   3.415   9.680  0.1298  0.2152 -0.0493
  289loPI   C4B 4624   8.775   3.499   9.339  0.0475 -0.0047  0.0016
  290loPI    C1 4625   3.221  16.270  11.764  0.0106  0.0399  0.1833
  290loPI    C2 4626   3.449  16.579  11.652  0.2423 -0.1821  0.0310
  290loPI    C3 4627   3.569  16.340  11.949  0.2277 -0.3218 -0.0744
  290loPI   PO4 4628   3.092  16.243  11.557  0.1672 -0.0072 -0.4786
  290loPI   GL1 4629   3.154  16.492  11.219  0.0762  0.1775  0.2478
  290loPI   GL2 4630   3.461  16.305  11.216 -0.3079  0.2039  0.1418
  290loPI   C1A 4631   2.967  16.709  10.886 -0.2664  0.1347 -0.1984
  290loPI   C2A 4632   2.829  16.685  10.470 -0.1880  0.1443 -0.0166
  290loPI   C3A 4633   2.792  16.618  10.108  0.2293  0.0581 -0.1426
  290loPI   C4A 4634   2.838  16.711   9.753 -0.2301 -0.2394  0.4218
  290loPI   C5A 4635   2.673  16.912   9.364 -0.2219  0.2828  0.0212
  290loPI   C6A 4636   2.875  16.752   9.086 -0.0416 -0.1501  0.1906
  290loPI   C1B 4637   3.276  16.315  10.769  0.2388 -0.1754 -0.3507
  290loPI   C2B 4638   3.123  16.319  10.341  0.1392  0.1260  0.1374
  290loPI   C3B 4639   3.166  16.303   9.922  0.2918 -0.0234  0.0781
  290loPI   C4B 4640   3.191  16.493   9.567  0.0052  0.0128  0.0871
  291loPI    C1 4641   0.975  10.966  11.676 -0.0010  0.3063  0.3589
  291loPI    C2 4642   1.357  10.848  11.659 -0.1216 -0.0674  0.1367
  291loPI    C3 4643   1.162  10.844  12.008 -0.0028 -0.1369  0.2031
  291loPI   PO4 4644   0.954  11.224  11.461 -0.3225 -0.2111 -0.2643
  291loPI   GL1 4645   1.133  11.255  11.198 -0.0249 -0.2953  0.2072
  291loPI   GL2 4646   1.482  11.143  11.235 -0.2251  0.0481 -0.2480
  291loPI   C1A 4647   1.032  11.406  10.766 -0.3635  0.2019  0.0067
  291loPI   C2A 4648   1.059  11.585  10.385  0.1571  0.4040  0.0550
  291loPI   C3A 4649   1.033  11.641   9.916  0.2756  0.1539 -0.0384
  291loPI   C4A 4650   1.092  11.718   9.511  0.1130  0.1881 -0.1252
  291loPI   C5A 4651   0.983  11.849   9.070 -0.1528  0.1769 -0.1574
  291loPI   C6A 4652   1.004  12.150   8.803  0.0513 -0.0108  0.0507
  291loPI   C1B 4653   1.525  11.138  10.883  0.1551 -0.1732  0.1893
  291loPI   C2B 4654   1.399  11.170  10.369  0.2962 -0.3343 -0.0276
  291loPI   C3B 4655   1.452  11.273  10.034 -0.0035 -0.3259  0.0347
  291loPI   C4B 4656   1.445  11.380   9.574  0.3996  0.0474  0.0763
  292loPI    C1 4657   3.701   3.078  12.008  0.0999  0.1118 -0.0409
  292loPI    C2 4658   3.698   3.061  12.407  0.0629  0.0260 -0.0447
  292loPI    C3 4659   3.767   2.730  12.194  0.0740  0.0700 -0.1095
  292loPI   PO4 4660   3.802   3.179  11.954 -0.0294 -0.1030  0.3107
  292loPI   GL1 4661   3.990   3.231  11.576 -0.0910 -0.2344  0.1267
  292loPI   GL2 4662   3.675   3.255  11.464  0.0898 -0.1317  0.0818
  292loPI   C1A 4663   4.154   3.423  11.208  0.0255 -0.1099 -0.2150
  292loPI   C2A 4664   3.971   3.445  10.763 -0.0342 -0.0804 -0.0408
  292loPI   C3A 4665   3.912   3.324  10.356  0.0148 -0.2174 -0.1720
  292loPI   C4A 4666   3.947   3.227   9.978 -0.0124 -0.1897  0.1280
  292loPI   C5A 4667   4.222   3.079   9.760  0.2830  0.1125  0.1813
  292loPI   C6A 4668   4.336   2.664   9.501  0.0332  0.2525  0.1847
  292loPI   C1B 4669   3.488   3.231  11.001 -0.1204 -0.1752  0.0101
  292loPI   C2B 4670   3.391   3.106  10.566 -0.0950 -0.1410 -0.0932
  292loPI   C3B 4671   3.365   3.134  10.120  0.0534 -0.0776 -0.0400
  292loPI   C4B 4672   3.484   3.234   9.754 -0.1159 -0.1846 -0.1241
  293loPI    C1 4673   5.746  13.945  11.959 -0.0403 -0.1583  0.0450
  293loPI    C2 4674   5.356  14.006  12.018 -0.0229  0.0737 -0.0700
  293loPI    C3 4675   5.577  13.837  12.305 -0.1543  0.1865  0.1001
  293loPI   PO4 4676   5.718  13.828  11.651 -0.0539 -0.1706 -0.2235
  293loPI   GL1 4677   5.887  13.660  11.258 -0.2107 -0.1886 -0.1613
  293loPI   GL2 4678   5.850  13.951  11.185  0.0529 -0.0540  0.2096
  293loPI   C1A 4679   5.935  13.453  10.875 -0.0452  0.0564  0.2822
  293loPI   C2A 4680   5.953  13.475  10.525 -0.1445 -0.0098 -0.1191
  293loPI   C3A 4681   5.934  13.487  10.107 -0.0775  0.4098  0.0844
  293loPI   C4A 4682   5.865  13.484   9.719  0.1961 -0.1663 -0.0521
  293loPI   C5A 4683   5.788  13.497   9.236  0.2373  0.1258 -0.0403
  293loPI   C6A 4684   5.540  13.438   8.824  0.0118 -0.2677 -0.0339
  293loPI   C1B 4685   5.922  13.932  10.777  0.1702  0.2114 -0.0801
  293loPI   C2B 4686   6.046  13.958  10.296  0.2400 -0.0556 -0.2154
  293loPI   C3B 4687   5.983  13.992   9.875 -0.1068  0.2192  0.0085
  293loPI   C4B 4688   5.964  14.040   9.393 -0.0107 -0.0717  0.2001
  294loPI    C1 4689  16.434   5.115  11.717  0.0761 -0.3111 -0.0791
  294loPI    C2 4690  16.042   5.190  11.740  0.1486  0.0290  0.1167
  294loPI    C3 4691  16.266   5.193  12.071  0.3355 -0.0609 -0.0072
  294loPI   PO4 4692  16.517   4.957  11.570  0.0037 -0.1964 -0.2002
  294loPI   GL1 4693  16.409   4.888  11.218 -0.1775 -0.2541  0.2268
  294loPI   GL2 4694  16.109   5.100  11.265  0.1405 -0.1114  0.1602
  294loPI   C1A 4695  16.425   5.029  10.788  0.0703 -0.2452  0.0480
  294loPI   C2A 4696  16.312   5.063  10.387 -0.1066 -0.2102  0.1859
  294loPI   C3A 4697  16.410   4.933  10.045  0.1019  0.1602  0.1244
  294loPI   C4A 4698  16.292   4.942   9.684  0.1277  0.1547 -0.0067
  294loPI   C5A 4699  16.356   4.833   9.273 -0.1547 -0.2187  0.0027
  294loPI   C6A 4700  16.540   4.915   8.904  0.1211 -0.2017 -0.0745
  294loPI   C1B 4701  15.929   5.265  10.908  0.1638  0.1547 -0.0026
  294loPI   C2B 4702  15.855   5.280  10.521 -0.2563  0.0049 -0.4849
  294loPI   C3B 4703  15.957   5.286  10.167  0.0298 -0.2958  0.1136
  294loPI   C4B 4704  15.901   5.157   9.859  0.1949  0.0806 -0.1535
  295loPI    C1 4705   0.179  12.892  12.033  0.1172 -0.2106  0.0362
  295loPI    C2 4706   0.364  12.757  12.361  0.2144 -0.0413  0.0521
  295loPI    C3 4707   0.424  13.133  12.237  0.0045 -0.0343 -0.0338
  295loPI   PO4 4708   0.237  12.652  11.826  0.0081 -0.0830 -0.0357
  295loPI   GL1 4709   0.317  12.672  11.376 -0.3551 -0.2967  0.1165
  295loPI   GL2 4710   0.410  12.987  11.222  0.3038  0.2452 -0.2456
  295loPI   C1A 4711   0.293  12.640  10.912  0.0132 -0.1948  0.1007
  295loPI   C2A 4712   0.428  12.684  10.578 -0.1337 -0.1325  0.1448
  295loPI   C3A 4713   0.329  12.735  10.139  0.3404  0.0676  0.2141
  295loPI   C4A 4714   0.405  12.815   9.675  0.0597 -0.2058 -0.1749
  295loPI   C5A 4715   0.429  12.838   9.361  0.1566  0.2463  0.2341
  295loPI   C6A 4716   0.376  13.214   9.068 -0.1196 -0.0953  0.1042
  295loPI   C1B 4717   0.340  13.181  10.804 -0.1573  0.0545 -0.0149
  295loPI   C2B 4718   0.419  13.220  10.428  0.1189  0.0093 -0.4458
  295loPI   C3B 4719   0.345  13.307  10.034  0.1773  0.0118 -0.1060
  295loPI   C4B 4720   0.375  13.344   9.604 -0.0083 -0.0914  0.0310
  296loPI    C1 4721  11.804   0.752  11.794 -0.0371 -0.0779  0.1098
  296loPI    C2 4722  11.570   1.055  11.676  0.1412  0.0373  0.0473
  296loPI    C3 4723  11.575   0.944  12.060  0.0144  0.0600  0.0559
  296loPI   PO4 4724  11.970   0.753  11.528 -0.0836  0.2938  0.3560
  296loPI   GL1 4725  11.959   0.993  11.166 -0.1470 -0.0554 -0.0166
  296loPI   GL2 4726  12.284   0.965  11.214  0.0135 -0.4314 -0.2010
  296loPI   C1A 4727  11.906   0.826  10.703 -0.3615 -0.1830 -0.0593
  296loPI   C2A 4728  11.982   0.812  10.274  0.2256  0.2068  0.2001
  296loPI   C3A 4729  11.960   0.769   9.729  0.0318 -0.0155  0.0514
  296loPI   C4A 4730  11.982   0.951   9.315 -0.1405  0.2417 -0.0585
  296loPI   C5A 4731  12.111   1.241   9.038 -0.2390  0.0287  0.1279
  296loPI   C6A 4732  12.249   1.595   8.851 -0.0670 -0.0906  0.0739
  296loPI   C1B 4733  12.375   1.027  10.846 -0.0055 -0.1188  0.1975
  296loPI   C2B 4734  12.444   0.988  10.439  0.0492 -0.1642  0.0560
  296loPI   C3B 4735  12.518   0.913  10.075 -0.1351  0.1413  0.0964
  296loPI   C4B 4736  12.464   0.973   9.758 -0.3383 -0.2671  0.1595
  297loPI    C1 4737  15.931  12.340  11.965  0.0322 -0.1206 -0.0957
  297loPI    C2 4738  15.760  12.526  12.276 -0.1615 -0.0843 -0.2223
  297loPI    C3 4739  16.109  12.336  12.323 -0.2460 -0.1772  0.0447
  297loPI   PO4 4740  15.848  12.529  11.743  0.0744  0.3023 -0.1924
  297loPI   GL1 4741  15.942  12.716  11.377  0.1703 -0.2224 -0.0835
  297loPI   GL2 4742  15.703  12.941  11.287  0.1462  0.0390 -0.0991
  297loPI   C1A 4743  16.050  12.627  10.973 -0.2435  0.2822  0.1278
  297loPI   C2A 4744  16.151  12.636  10.586 -0.3035 -0.1196  0.1539
  297loPI   C3A 4745  16.103  12.826  10.212  0.1872 -0.0280  0.1876
  297loPI   C4A 4746  16.064  12.774   9.799  0.4444  0.1345  0.1809
  297loPI   C5A 4747  16.097  12.896   9.329 -0.0973 -0.1108 -0.1845
  297loPI   C6A 4748  16.102  13.041   8.883  0.0619 -0.2245 -0.0832
  297loPI   C1B 4749  15.708  13.015  10.839 -0.0180  0.0816 -0.2537
  297loPI   C2B 4750  15.707  13.088  10.400  0.2560  0.1399  0.2802
  297loPI   C3B 4751  15.700  13.085   9.931 -0.1050 -0.0557 -0.3444
  297loPI   C4B 4752  15.615  13.060   9.530  0.0051  0.2114 -0.1434
  298loPI    C1 4753   3.882   2.292  11.933  0.0022 -0.0286 -0.0214
  298loPI    C2 4754   3.869   2.008  12.215 -0.0487 -0.0065 -0.0013
  298loPI    C3 4755   3.554   2.249  12.159  0.0439  0.1323  0.0710
  298loPI   PO4 4756   3.980   2.236  11.789 -0.2524 -0.2282 -0.0173
  298loPI   GL1 4757   3.794   2.308  11.401  0.1246  0.0165  0.3398
  298loPI   GL2 4758   3.774   2.047  11.311  0.3636 -0.0122 -0.1906
  298loPI   C1A 4759   3.680   2.398  10.979 -0.0378 -0.0315  0.1405
  298loPI   C2A 4760   3.765   2.280  10.568 -0.0132  0.1217 -0.1699
  298loPI   C3A 4761   3.708   2.271  10.113 -0.0673 -0.0229 -0.0284
  298loPI   C4A 4762   3.546   2.196   9.628  0.1096 -0.2117  0.1553
  298loPI   C5A 4763   3.558   2.024   9.260  0.1428 -0.1444  0.1235
  298loPI   C6A 4764   3.550   1.653   9.035 -0.1626 -0.3599  0.1047
  298loPI   C1B 4765   3.658   1.837  10.926 -0.3636 -0.0636 -0.0412
  298loPI   C2B 4766   3.617   1.738  10.485  0.1677 -0.2304  0.4054
  298loPI   C3B 4767   3.618   1.770  10.020  0.1923 -0.1545  0.0077
  298loPI   C4B 4768   3.628   1.697   9.624 -0.0160 -0.0005  0.0127
  299loPI    C1 4769  15.219   3.600  11.948  0.0950 -0.2473 -0.1055
  299loPI    C2 4770  15.135   3.539  12.334 -0.3164  0.0204 -0.1463
  299loPI    C3 4771  15.138   3.231  12.079 -0.3212 -0.1178  0.0189
  299loPI   PO4 4772  15.061   3.783  11.846  0.1236 -0.0106 -0.4474
  299loPI   GL1 4773  15.047   3.757  11.398 -0.0278  0.2197  0.1700
  299loPI   GL2 4774  14.873   4.002  11.141 -0.1226 -0.2517 -0.0767
  299loPI   C1A 4775  15.193   3.530  11.017  0.0299  0.1715  0.0657
  299loPI   C2A 4776  15.153   3.470  10.610  0.1965 -0.2636 -0.1546
  299loPI   C3A 4777  15.130   3.479  10.178 -0.2613 -0.2535  0.0484
  299loPI   C4A 4778  15.110   3.462   9.738 -0.0481 -0.1265 -0.0432
  299loPI   C5A 4779  15.058   3.405   9.303 -0.1645 -0.0532 -0.0040
  299loPI   C6A 4780  14.852   3.508   9.012  0.2592  0.2017 -0.3595
  299loPI   C1B 4781  14.768   3.836  10.743  0.1513  0.1574 -0.0578
  299loPI   C2B 4782  14.692   3.785  10.326  0.1958  0.0110  0.1513
  299loPI   C3B 4783  14.742   3.798   9.876 -0.1527 -0.1145 -0.3362
  299loPI   C4B 4784  14.754   3.898   9.442 -0.1579  0.1115  0.2684
  300loPI    C1 4785  12.964   5.469  12.232 -0.1152 -0.0358  0.0823
  300loPI    C2 4786  12.645   5.250  12.335 -0.1981  0.0252 -0.0429
  300loPI    C3 4787  12.966   5.260  12.573 -0.1597 -0.3004 -0.0769
  300loPI   PO4 4788  13.012   5.389  11.952  0.2185 -0.0604 -0.3372
  300loPI   GL1 4789  12.947   5.370  11.453  0.2112  0.0319  0.0625
  300loPI   GL2 4790  12.539   5.263  11.351 -0.5572  0.0257  0.4519
  300loPI   C1A 4791  13.004   5.232  11.077 -0.0938  0.2015  0.0735
  300loPI   C2A 4792  13.072   5.123  10.659 -0.1396 -0.0132 -0.0128
  300loPI   C3A 4793  13.034   5.125  10.208 -0.1649 -0.1511 -0.1217
  300loPI   C4A 4794  13.112   5.090   9.720  0.1710 -0.0479 -0.0627
  300loPI   C5A 4795  13.137   5.078   9.265  0.0762 -0.1507  0.0053
  300loPI   C6A 4796  13.183   5.162   8.788 -0.0582  0.0253  0.1998
  300loPI   C1B 4797  12.166   5.218  11.121  0.1843  0.2775  0.5444
  300loPI   C2B 4798  12.204   5.336  10.744  0.1381 -0.1544  0.3977
  300loPI   C3B 4799  12.210   5.285  10.286  0.0469  0.0362 -0.0093
  300loPI   C4B 4800  12.261   5.248   9.919 -0.2424 -0.0168 -0.3317
  301loPI    C1 4801   7.354   3.375  11.810 -0.0792 -0.3316  0.2044
  301loPI    C2 4802   7.104   3.569  12.055 -0.0958 -0.0066 -0.0641
  301loPI    C3 4803   7.499   3.613  12.097 -0.0997  0.0973 -0.1306
  301loPI   PO4 4804   7.315   3.487  11.462  0.0069 -0.2629 -0.1885
  301loPI   GL1 4805   7.180   3.891  11.193 -0.0579  0.0291 -0.2210
  301loPI   GL2 4806   7.422   3.965  10.947  0.0058 -0.2342 -0.1588
  301loPI   C1A 4807   6.906   3.891  10.864 -0.0961  0.0960 -0.0363
  301loPI   C2A 4808   6.702   3.987  10.531  0.0507  0.0167  0.2650
  301loPI   C3A 4809   6.676   3.934  10.141 -0.0668 -0.2807 -0.2154
  301loPI   C4A 4810   6.783   3.753   9.860  0.0729  0.1591  0.2180
  301loPI   C5A 4811   6.920   3.705   9.466  0.0031  0.1804 -0.1525
  301loPI   C6A 4812   7.029   3.553   9.133 -0.1569  0.2653 -0.2611
  301loPI   C1B 4813   7.354   4.082  10.581 -0.2958  0.0943 -0.0814
  301loPI   C2B 4814   7.168   4.056  10.219  0.0213 -0.1881  0.0692
  301loPI   C3B 4815   7.262   3.957   9.778 -0.1623 -0.0127 -0.1978
  301loPI   C4B 4816   7.385   3.848   9.412 -0.0992  0.2501 -0.0837
  302loPI    C1 4817   3.094   7.944  11.443  0.2215  0.0469 -0.0943
  302loPI    C2 4818   3.099   7.763  11.800 -0.1641  0.0290 -0.0940
  302loPI    C3 4819   2.939   8.128  11.762 -0.1487  0.0200 -0.2540
  302loPI   PO4 4820   2.999   7.837  11.238 -0.1649 -0.2601  0.1889
  302loPI   GL1 4821   2.860   7.768  10.826  0.0210 -0.2028  0.3686
  302loPI   GL2 4822   3.159   7.672  10.778  0.0744  0.4705 -0.2160
  302loPI   C1A 4823   2.872   7.848  10.350 -0.1087  0.1493  0.0873
  302loPI   C2A 4824   2.877   7.798   9.964  0.0260 -0.1003  0.1482
  302loPI   C3A 4825   2.719   7.784   9.556  0.0800 -0.0777  0.2206
  302loPI   C4A 4826   2.227   7.825   9.548  0.1596 -0.0071  0.1174
  302loPI   C5A 4827   1.919   7.716   9.147 -0.2545 -0.5232 -0.1379
  302loPI   C6A 4828   1.473   7.571   8.884  0.1834  0.1853 -0.0605
  302loPI   C1B 4829   3.264   7.527  10.334 -0.2086  0.0001 -0.0785
  302loPI   C2B 4830   3.296   7.482   9.944  0.2761  0.1213  0.1893
  302loPI   C3B 4831   3.106   7.480   9.616  0.0894  0.1104  0.1492
  302loPI   C4B 4832   3.047   7.278   9.255 -0.0430  0.2750 -0.4157
  303loPI    C1 4833   4.455  11.805  11.556 -0.0731  0.0298 -0.2019
  303loPI    C2 4834   4.528  11.499  11.804 -0.0595  0.0982 -0.1211
  303loPI    C3 4835   4.502  11.872  11.948 -0.0903  0.1335 -0.2174
  303loPI   PO4 4836   4.306  11.689  11.394 -0.1293  0.1134 -0.1420
  303loPI   GL1 4837   4.323  11.498  11.062  0.3016 -0.1609 -0.2052
  303loPI   GL2 4838   3.962  11.588  10.969  0.2196  0.0111  0.0124
  303loPI   C1A 4839   4.279  11.315  10.658  0.1669  0.0463  0.1127
  303loPI   C2A 4840   4.262  11.390  10.260  0.0277  0.2576  0.1407
  303loPI   C3A 4841   4.112  11.359   9.861 -0.1324 -0.1188  0.2332
  303loPI   C4A 4842   4.100  11.372   9.399 -0.2416  0.4124  0.0869
  303loPI   C5A 4843   4.232  11.654   9.140 -0.0469  0.0782 -0.1346
  303loPI   C6A 4844   4.241  11.716   8.626  0.1805  0.0967 -0.1282
  303loPI   C1B 4845   4.078  11.759  10.627  0.2816  0.3817 -0.0700
  303loPI   C2B 4846   3.948  11.774  10.141  0.2063 -0.0767 -0.0027
  303loPI   C3B 4847   3.731  11.642   9.835 -0.0280 -0.1545 -0.1042
  303loPI   C4B 4848   3.624  11.600   9.419  0.0991 -0.1889  0.0065
  304loPI    C1 4849   9.566  17.009  11.339 -0.1897  0.0081 -0.1585
  304loPI    C2 4850   9.313  17.261  11.521 -0.0884  0.0160 -0.0267
  304loPI    C3 4851   9.422  16.921  11.702 -0.0856 -0.0373 -0.1276
  304loPI   PO4 4852   9.433  17.073  11.069  0.0028 -0.1403  0.1860
  304loPI   GL1 4853   9.527  17.071  10.725  0.0349  0.1651 -0.1513
  304loPI   GL2 4854   9.561  17.308  10.560  0.0713 -0.0508  0.1479
  304loPI   C1A 4855   9.461  16.791  10.419  0.0323 -0.3097 -0.1063
  304loPI   C2A 4856   9.461  16.713  10.028 -0.3910 -0.5090  0.2653
  304loPI   C3A 4857   9.393  16.712   9.673  0.0993  0.2444 -0.0018
  304loPI   C4A 4858   9.638  16.616   9.367  0.2496  0.2071  0.2897
  304loPI   C5A 4859   9.658  16.879   9.004 -0.1255 -0.1226  0.3130
  304loPI   C6A 4860  10.079  17.004   8.748 -0.3050  0.1677  0.2456
  304loPI   C1B 4861   9.521  17.236  10.200 -0.1822  0.1540  0.1035
  304loPI   C2B 4862   9.456  17.171   9.703 -0.2112  0.0262 -0.0101
  304loPI   C3B 4863   9.297  17.108   9.302  0.0677 -0.2695 -0.0437
  304loPI   C4B 4864   8.907  17.443   9.285  0.4290  0.3006 -0.0404
  305loPI    C1 4865  14.218  13.296  11.608 -0.0534  0.1380 -0.0876
  305loPI    C2 4866  14.153  13.648  11.786 -0.1926  0.1238 -0.1094
  305loPI    C3 4867  13.927  13.332  11.880  0.0233  0.0035  0.0136
  305loPI   PO4 4868  14.291  13.406  11.362 -0.0538 -0.0709 -0.2285
  305loPI   GL1 4869  14.115  13.358  10.981 -0.0941 -0.0704  0.1273
  305loPI   GL2 4870  14.345  13.136  10.830  0.1767  0.0761 -0.3437
  305loPI   C1A 4871  14.006  13.489  10.528  0.1322  0.0434 -0.0992
  305loPI   C2A 4872  13.954  13.416  10.000 -0.0012  0.0099 -0.1016
  305loPI   C3A 4873  13.853  13.326   9.600 -0.0551  0.2696  0.0165
  305loPI   C4A 4874  13.791  13.390   9.144  0.1150 -0.0994 -0.0856
  305loPI   C5A 4875  14.070  13.649   8.899 -0.2200  0.1012 -0.0101
  305loPI   C6A 4876  14.246  14.089   8.969  0.0846 -0.1611  0.1415
  305loPI   C1B 4877  14.297  13.112  10.409 -0.2917 -0.0535 -0.1225
  305loPI   C2B 4878  14.390  13.049   9.996  0.0908  0.2417 -0.1118
  305loPI   C3B 4879  14.372  13.034   9.481 -0.1255  0.0236  0.0248
  305loPI   C4B 4880  14.233  13.157   9.008 -0.1072  0.1406  0.2802
  306loPI    C1 4881  15.361   0.528  11.744 -0.1048 -0.1609  0.0094
  306loPI    C2 4882  15.387   0.534  12.143 -0.1078  0.1394  0.0070
  306loPI    C3 4883  15.029   0.541  11.965 -0.1087 -0.0702 -0.0016
  306loPI   PO4 4884  15.488   0.382  11.656  0.1109  0.0166  0.0391
  306loPI   GL1 4885  15.592   0.293  11.228 -0.1854  0.1697 -0.0136
  306loPI   GL2 4886  15.403   0.079  11.124 -0.2148 -0.1541 -0.1157
  306loPI   C1A 4887  15.657   0.404  10.827 -0.1004 -0.0385  0.1200
  306loPI   C2A 4888  15.521   0.373  10.318  0.3737 -0.1811 -0.1298
  306loPI   C3A 4889  15.531   0.303   9.903  0.1125  0.3642  0.0379
  306loPI   C4A 4890  15.231   0.368   9.486  0.2266  0.0593  0.0547
  306loPI   C5A 4891  14.811   0.126   9.183  0.0189  0.0719  0.1127
  306loPI   C6A 4892  14.473  -0.086   8.955  0.0319  0.0629  0.1210
  306loPI   C1B 4893  15.456  -0.021  10.750 -0.0449  0.1495 -0.0517
  306loPI   C2B 4894  15.536  -0.139  10.270 -0.2755 -0.0485  0.0558
  306loPI   C3B 4895  15.484  -0.215   9.879  0.2588 -0.0668  0.1285
  306loPI   C4B 4896  15.567  -0.308   9.489 -0.2535 -0.0531  0.0055
  307loPI    C1 4897   6.793   8.580  11.514 -0.1219 -0.2504 -0.2282
  307loPI    C2 4898   7.171   8.455  11.547 -0.0366  0.0106 -0.1986
  307loPI    C3 4899   7.030   8.735  11.796 -0.2872 -0.1733 -0.1297
  307loPI   PO4 4900   6.775   8.693  11.325  0.2855  0.0078 -0.1649
  307loPI   GL1 4901   7.058   8.750  10.847  0.0480 -0.3495 -0.1123
  307loPI   GL2 4902   7.169   8.594  11.020 -0.3551  0.1374  0.1630
  307loPI   C1A 4903   7.192   8.743  10.365  0.1001 -0.3106 -0.2264
  307loPI   C2A 4904   7.193   8.735   9.932 -0.0592  0.0025 -0.0466
  307loPI   C3A 4905   7.262   8.826   9.521 -0.3382 -0.1238  0.0017
  307loPI   C4A 4906   7.187   8.722   9.138  0.0457  0.0205 -0.2087
  307loPI   C5A 4907   7.200   8.354   8.963 -0.1590  0.0122 -0.4355
  307loPI   C6A 4908   7.163   8.137   8.514  0.0309  0.4169  0.1665
  307loPI   C1B 4909   7.229   8.308  10.680 -0.2487 -0.0690  0.1647
  307loPI   C2B 4910   7.217   8.293  10.244  0.1173  0.1031  0.1358
  307loPI   C3B 4911   7.181   8.216   9.792  0.4301  0.2876  0.0503
  307loPI   C4B 4912   7.053   8.205   9.430  0.1796 -0.2552 -0.0772
  308loPI    C1 4913   4.686  15.957  11.686  0.1430 -0.0312  0.1676
  308loPI    C2 4914   4.719  15.659  11.951  0.0336  0.1025  0.3344
  308loPI    C3 4915   5.042  15.871  11.848  0.1303 -0.1329  0.1420
  308loPI   PO4 4916   4.610  15.876  11.495 -0.2972  0.0595  0.1420
  308loPI   GL1 4917   4.702  15.956  11.049  0.1125  0.2246 -0.1790
  308loPI   GL2 4918   5.008  16.004  10.942  0.1269 -0.1823 -0.0150
  308loPI   C1A 4919   4.492  15.887  10.788  0.2156 -0.0857 -0.0713
  308loPI   C2A 4920   4.523  15.829  10.399 -0.1439 -0.2727 -0.1017
  308loPI   C3A 4921   4.496  15.857   9.960  0.2450  0.1485  0.0586
  308loPI   C4A 4922   4.469  15.751   9.555  0.1504  0.0842  0.0676
  308loPI   C5A 4923   4.430  15.909   9.213  0.5202  0.0975 -0.0973
  308loPI   C6A 4924   4.078  15.891   9.065 -0.1568  0.2458  0.1585
  308loPI   C1B 4925   4.976  16.046  10.509  0.2213  0.1924  0.3800
  308loPI   C2B 4926   5.040  16.030   9.997  0.1619  0.1057  0.1598
  308loPI   C3B 4927   4.904  15.987   9.575 -0.2411 -0.0786 -0.2301
  308loPI   C4B 4928   4.917  15.731   9.172  0.1334 -0.1171 -0.1139
  309loPI    C1 4929  11.115   4.298  12.016  0.1693 -0.0840  0.0961
  309loPI    C2 4930  10.792   4.139  12.191  0.1057 -0.0188  0.0391
  309loPI    C3 4931  11.024   4.395  12.393 -0.0299  0.1423 -0.0071
  309loPI   PO4 4932  11.003   4.234  11.753  0.3442 -0.2685  0.2555
  309loPI   GL1 4933  11.021   4.223  11.356 -0.3009 -0.0386 -0.3515
  309loPI   GL2 4934  11.020   4.389  11.240 -0.1393 -0.2134  0.2935
  309loPI   C1A 4935  11.019   3.914  11.012  0.3316  0.1173  0.2445
  309loPI   C2A 4936  11.024   3.984  10.617  0.0901 -0.0231 -0.2549
  309loPI   C3A 4937  10.987   3.938  10.226  0.0848 -0.0878  0.2659
  309loPI   C4A 4938  11.059   3.742   9.803 -0.5242 -0.0169 -0.0374
  309loPI   C5A 4939  11.056   3.597   9.413  0.0210  0.0032  0.0184
  309loPI   C6A 4940  11.228   3.682   8.985  0.0800  0.0846 -0.1997
  309loPI   C1B 4941  11.105   4.484  10.890  0.2809 -0.0474  0.1646
  309loPI   C2B 4942  11.142   4.402  10.469  0.1276 -0.0495 -0.1826
  309loPI   C3B 4943  11.142   4.362  10.024  0.0704  0.1456  0.3644
  309loPI   C4B 4944  11.165   4.318   9.529  0.1763 -0.2347  0.1726
  310loPI    C1 4945  17.067   6.130  12.020 -0.0657 -0.0188  0.0273
  310loPI    C2 4946  17.411   5.935  12.076 -0.0287  0.0233 -0.0526
  310loPI    C3 4947  17.063   5.744  12.124  0.0064 -0.0373 -0.0382
  310loPI   PO4 4948  17.120   6.372  11.834 -0.2631 -0.0850 -0.1305
  310loPI   GL1 4949  17.106   6.435  11.454  0.0684  0.1520  0.0782
  310loPI   GL2 4950  16.961   6.772  11.466  0.0990 -0.0624  0.0439
  310loPI   C1A 4951  16.879   6.129  11.072 -0.1987  0.1257 -0.5165
  310loPI   C2A 4952  16.952   6.258  10.630  0.2971  0.1465  0.0222
  310loPI   C3A 4953  16.980   6.295  10.142 -0.1391  0.0817 -0.2926
  310loPI   C4A 4954  17.010   6.096   9.843 -0.0263  0.1392  0.1885
  310loPI   C5A 4955  16.952   5.975   9.422 -0.1883 -0.1234 -0.0747
  310loPI   C6A 4956  16.685   5.807   9.160 -0.1382  0.0290  0.0300
  310loPI   C1B 4957  16.780   6.640  11.114  0.0501  0.0102 -0.0461
  310loPI   C2B 4958  16.499   6.594  10.784 -0.0654  0.1138 -0.2433
  310loPI   C3B 4959  16.462   6.558  10.377  0.0658 -0.0031  0.0293
  310loPI   C4B 4960  16.545   6.531   9.932 -0.0273  0.4815  0.2376
  311loPI    C1 4961   1.764   0.453  11.913 -0.2020 -0.1093  0.0129
  311loPI    C2 4962   1.560   0.629  12.209 -0.2178 -0.2429  0.0823
  311loPI    C3 4963   1.509   0.240  12.135 -0.1776 -0.2208 -0.0655
  311loPI   PO4 4964   1.815   0.568  11.645  0.2346  0.2763  0.2428
  311loPI   GL1 4965   1.922   0.721  11.241  0.0821 -0.0613  0.1291
  311loPI   GL2 4966   2.235   0.895  11.214  0.4551  0.2258 -0.1088
  311loPI   C1A 4967   1.650   0.511  10.962 -0.1243  0.1773  0.1512
  311loPI   C2A 4968   1.594   0.471  10.498  0.2497 -0.1056 -0.0533
  311loPI   C3A 4969   1.620   0.456  10.122 -0.1216  0.4489  0.1449
  311loPI   C4A 4970   1.594   0.535   9.719  0.1089  0.1856 -0.1512
  311loPI   C5A 4971   1.464   0.731   9.386  0.0122 -0.0354 -0.1225
  311loPI   C6A 4972   1.536   0.773   8.958  0.0186  0.1161  0.0748
  311loPI   C1B 4973   2.134   0.661  10.821  0.2392  0.1166 -0.2425
  311loPI   C2B 4974   2.068   0.695  10.339  0.1245  0.0029  0.1590
  311loPI   C3B 4975   2.005   0.726  10.058  0.2689  0.0063 -0.1119
  311loPI   C4B 4976   2.131   0.649   9.631  0.1658 -0.1004  0.1519
  312loPI    C1 4977   9.034   0.662  11.594  0.0813  0.0950 -0.0328
  312loPI    C2 4978   8.646   0.571  11.625  0.1021 -0.1518 -0.4299
  312loPI    C3 4979   8.922   0.323  11.773  0.1099  0.0952 -0.0144
  312loPI   PO4 4980   9.039   0.819  11.278 -0.1372 -0.0232  0.0333
  312loPI   GL1 4981   9.053   0.758  10.855  0.0044  0.1344 -0.1369
  312loPI   GL2 4982   8.678   0.539  10.837  0.2182  0.2545  0.0838
  312loPI   C1A 4983   9.072   0.956  10.461 -0.0307  0.0371 -0.2659
  312loPI   C2A 4984   8.775   0.940  10.076 -0.4683  0.1663  0.0484
  312loPI   C3A 4985   8.764   1.138   9.687  0.1596  0.1343 -0.0153
  312loPI   C4A 4986   8.609   1.209   9.263  0.0572 -0.0157  0.0102
  312loPI   C5A 4987   8.324   1.086   8.994 -0.0745  0.2178  0.0569
  312loPI   C6A 4988   7.911   1.240   9.028 -0.1963  0.0307  0.0490
  312loPI   C1B 4989   8.856   0.511  10.483  0.0878 -0.2716 -0.0314
  312loPI   C2B 4990   8.798   0.432   9.996  0.1821 -0.1177  0.0409
  312loPI   C3B 4991   8.853   0.562   9.711 -0.1934 -0.1292  0.0855
  312loPI   C4B 4992   8.583   0.683   9.442 -0.1513 -0.2955 -0.2477
  313loPI    C1 4993   7.402   4.288  11.579  0.0297 -0.0184  0.4912
  313loPI    C2 4994   7.020   4.171  11.578  0.0069  0.0387 -0.0178
  313loPI    C3 4995   7.302   3.932  11.731 -0.1770 -0.1951 -0.0384
  313loPI   PO4 4996   7.473   4.309  11.298  0.1660  0.1818 -0.1886
  313loPI   GL1 4997   7.350   4.436  10.962 -0.1535 -0.6729 -0.0514
  313loPI   GL2 4998   7.022   4.347  11.031  0.0475  0.0395  0.0288
  313loPI   C1A 4999   7.379   4.643  10.611  0.2033  0.2691 -0.0514
  313loPI   C2A 5000   7.227   4.526  10.236 -0.1383 -0.2584 -0.0771
  313loPI   C3A 5001   7.302   4.438   9.819 -0.0035  0.0260  0.1193
  313loPI   C4A 5002   7.324   4.351   9.326  0.2135  0.2989  0.2855
  313loPI   C5A 5003   7.358   4.667   8.868  0.0525 -0.1246 -0.0053
  313loPI   C6A 5004   7.268   5.052   8.558  0.0630 -0.1349 -0.1910
  313loPI   C1B 5005   6.904   4.484  10.620  0.1181  0.0362  0.0833
  313loPI   C2B 5006   6.772   4.489  10.257  0.5054  0.0090  0.2391
  313loPI   C3B 5007   6.817   4.317   9.850  0.0452 -0.1785  0.1662
  313loPI   C4B 5008   6.760   4.226   9.449  0.0902  0.0801  0.0791
  314loPI    C1 5009   3.170   4.478  12.022 -0.1708  0.0049 -0.0971
  314loPI    C2 5010   3.069   4.170  12.256  0.0781 -0.0270 -0.0280
  314loPI    C3 5011   3.411   4.366  12.321 -0.0836  0.2738 -0.0638
  314loPI   PO4 5012   3.183   4.436  11.772  0.0830 -0.0801  0.2108
  314loPI   GL1 5013   3.461   4.405  11.448 -0.1183  0.3168  0.0633
  314loPI   GL2 5014   3.255   4.724  11.350  0.5347  0.1535  0.0153
  314loPI   C1A 5015   3.714   4.333  11.069 -0.1237 -0.1979  0.2489
  314loPI   C2A 5016   3.652   4.261  10.635 -0.3014 -0.0080  0.1904
  314loPI   C3A 5017   3.535   4.144  10.207  0.4312 -0.2889 -0.1216
  314loPI   C4A 5018   3.492   4.125   9.771  0.2072  0.1420 -0.1756
  314loPI   C5A 5019   3.495   4.136   9.352 -0.1586  0.2846  0.0480
  314loPI   C6A 5020   3.069   4.260   9.164  0.0480 -0.0056 -0.0124
  314loPI   C1B 5021   3.280   4.627  10.944  0.1665  0.0840 -0.0953
  314loPI   C2B 5022   3.197   4.444  10.492 -0.2175  0.1499 -0.1984
  314loPI   C3B 5023   3.253   4.484   9.989  0.1413 -0.3244 -0.0041
  314loPI   C4B 5024   3.286   4.589   9.548  0.1215  0.0687 -0.1309
  315loPI    C1 5025   5.908   3.164  11.987  0.0702  0.0658  0.0934
  315loPI    C2 5026   6.253   2.967  11.943 -0.0032 -0.0248 -0.0894
  315loPI    C3 5027   5.988   2.847  12.218  0.1189  0.0581  0.0661
  315loPI   PO4 5028   5.882   3.333  11.790 -0.3027  0.1450 -0.3013
  315loPI   GL1 5029   5.941   3.515  11.341  0.2343  0.0421  0.0425
  315loPI   GL2 5030   5.649   3.529  11.334  0.0832 -0.0677  0.0007
  315loPI   C1A 5031   5.892   3.518  10.880  0.1721  0.1600 -0.0813
  315loPI   C2A 5032   5.681   3.543  10.506 -0.1135 -0.0512  0.1097
  315loPI   C3A 5033   5.800   3.547  10.050 -0.3757 -0.0812 -0.0064
  315loPI   C4A 5034   5.773   3.502   9.644  0.1196 -0.1141  0.3725
  315loPI   C5A 5035   5.929   3.411   9.230 -0.2836 -0.3217 -0.0903
  315loPI   C6A 5036   6.127   3.065   8.825 -0.2244  0.2213 -0.0304
  315loPI   C1B 5037   5.400   3.439  10.984 -0.0954 -0.1327  0.0483
  315loPI   C2B 5038   5.201   3.343  10.557  0.2143  0.0669 -0.0071
  315loPI   C3B 5039   5.318   3.375  10.061 -0.1417  0.3337 -0.2448
  315loPI   C4B 5040   5.269   3.483   9.601 -0.0133 -0.0293  0.5504
  316loPI    C1 5041  13.512  17.104  12.199  0.1116  0.1630 -0.1301
  316loPI    C2 5042  13.692  17.459  12.243  0.1228  0.1257  0.1421
  316loPI    C3 5043  13.794  17.152  12.479 -0.1011  0.0257  0.1119
  316loPI   PO4 5044  13.530  16.991  11.972 -0.3009 -0.3842 -0.0180
  316loPI   GL1 5045  13.644  16.895  11.533  0.2656 -0.0695 -0.2297
  316loPI   GL2 5046  13.388  16.847  11.412 -0.3958  0.0470 -0.0228
  316loPI   C1A 5047  13.883  16.795  11.143 -0.0015  0.1350 -0.1309
  316loPI   C2A 5048  14.049  16.878  10.675  0.3020 -0.1375 -0.0179
  316loPI   C3A 5049  14.117  16.805  10.189  0.1965  0.2405 -0.2952
  316loPI   C4A 5050  14.110  16.757   9.761 -0.1482  0.1361 -0.1317
  316loPI   C5A 5051  14.135  16.777   9.286  0.0563 -0.0168  0.0507
  316loPI   C6A 5052  13.859  16.907   8.890 -0.1541  0.0908  0.1449
  316loPI   C1B 5053  13.456  16.707  10.950  0.0677  0.2974 -0.0646
  316loPI   C2B 5054  13.529  16.609  10.486  0.3684  0.0809 -0.1089
  316loPI   C3B 5055  13.607  16.581  10.094 -0.1571  0.4262 -0.0168
  316loPI   C4B 5056  13.715  16.494   9.675 -0.2862  0.1192  0.0421
  317loPI    C1 5057   9.742   9.580  11.324  0.0596 -0.1447 -0.0410
  317loPI    C2 5058   9.494   9.275  11.252 -0.1055  0.0213 -0.1849
  317loPI    C3 5059   9.628   9.341  11.623 -0.2773 -0.0698 -0.1055
  317loPI   PO4 5060   9.883   9.576  11.053  0.3259  0.1596 -0.1953
  317loPI   GL1 5061   9.692   9.739  10.797  0.1254 -0.3400  0.2645
  317loPI   GL2 5062   9.385   9.562  10.811  0.1773  0.1453  0.4413
  317loPI   C1A 5063   9.651   9.743  10.364 -0.0303  0.1628  0.1172
  317loPI   C2A 5064   9.715   9.563   9.974 -0.4353 -0.2875  0.1313
  317loPI   C3A 5065   9.683   9.592   9.511 -0.0562 -0.2483  0.4520
  317loPI   C4A 5066   9.735   9.556   9.092 -0.3054 -0.4778  0.0926
  317loPI   C5A 5067   9.492   9.437   8.664 -0.2945 -0.2778 -0.1545
  317loPI   C6A 5068   9.034   9.427   8.574  0.1714  0.0400 -0.1265
  317loPI   C1B 5069   9.189   9.572  10.450 -0.1568  0.3671 -0.0571
  317loPI   C2B 5070   9.258   9.456  10.119 -0.0607  0.1281  0.0688
  317loPI   C3B 5071   9.136   9.423   9.697  0.0836 -0.1869  0.2284
  317loPI   C4B 5072   9.208   9.363   9.173 -0.2830  0.1380  0.0755
  318loPI    C1 5073   8.335  11.519  11.589  0.2128 -0.1002  0.0634
  318loPI    C2 5074   8.274  11.456  11.979  0.0580 -0.0251  0.0522
  318loPI    C3 5075   8.568  11.699  11.859  0.0668 -0.0003  0.1241
  318loPI   PO4 5076   8.317  11.346  11.490  0.1944 -0.1009  0.0086
  318loPI   GL1 5077   8.217  11.068  11.104 -0.1982 -0.2375 -0.1571
  318loPI   GL2 5078   8.566  11.026  10.954 -0.1331  0.0860 -0.0813
  318loPI   C1A 5079   8.119  10.947  10.623 -0.1858 -0.1128 -0.0053
  318loPI   C2A 5080   8.119  10.869  10.125  0.3016  0.1352  0.1004
  318loPI   C3A 5081   8.134  10.929   9.761  0.1941 -0.2456  0.1464
  318loPI   C4A 5082   8.081  11.037   9.432  0.0167 -0.0586  0.3691
  318loPI   C5A 5083   7.984  10.886   9.048 -0.1715 -0.1145 -0.0455
  318loPI   C6A 5084   7.828  10.918   8.639 -0.0776  0.2905 -0.0507
  318loPI   C1B 5085   8.670  10.987  10.660  0.0818 -0.2412  0.0087
  318loPI   C2B 5086   8.557  11.110  10.252  0.1006  0.0359 -0.0988
  318loPI   C3B 5087   8.659  11.117   9.875  0.0764 -0.1705  0.3136
  318loPI   C4B 5088   8.583  11.237   9.450 -0.0516 -0.1800  0.1341
  319loPI    C1 5089  13.919  11.633  11.474  0.2206 -0.0775  0.0159
  319loPI    C2 5090  14.019  11.924  11.729 -0.1990  0.1152 -0.0322
  319loPI    C3 5091  13.753  11.646  11.837  0.1041 -0.1811 -0.0332
  319loPI   PO4 5092  13.924  11.740  11.241  0.1353  0.0229  0.0591
  319loPI   GL1 5093  14.298  11.735  11.037 -0.2718 -0.3432 -0.4037
  319loPI   GL2 5094  14.188  12.039  11.034 -0.1786  0.2467 -0.1595
  319loPI   C1A 5095  14.481  11.662  10.609  0.1769 -0.0513  0.1690
  319loPI   C2A 5096  14.567  11.661  10.179  0.1575  0.0502  0.0304
  319loPI   C3A 5097  14.458  11.665   9.737 -0.2049  0.0105  0.0699
  319loPI   C4A 5098  14.468  11.623   9.332  0.1711  0.0788  0.1986
  319loPI   C5A 5099  14.514  11.448   8.956 -0.0141  0.2554 -0.0726
  319loPI   C6A 5100  14.845  11.563   8.647 -0.1080 -0.0673  0.5197
  319loPI   C1B 5101  14.127  12.084  10.593  0.1785  0.0132  0.1647
  319loPI   C2B 5102  14.182  12.011  10.135  0.0837 -0.1386 -0.3738
  319loPI   C3B 5103  14.144  12.056   9.819  0.1756 -0.0324  0.1200
  319loPI   C4B 5104  14.076  11.947   9.382 -0.1087  0.0291 -0.1258
  320loPI    C1 5105   4.130  13.264  11.713 -0.0189 -0.0979 -0.1044
  320loPI    C2 5106   3.951  13.089  12.025  0.2100 -0.2027 -0.0296
  320loPI    C3 5107   4.269  13.325  12.084 -0.1821  0.3651 -0.1129
  320loPI   PO4 5108   4.140  13.156  11.515 -0.0677  0.1332 -0.0990
  320loPI   GL1 5109   4.014  13.210  11.078  0.1024  0.0476  0.0766
  320loPI   GL2 5110   3.719  13.162  10.951 -0.0025  0.0246  0.1625
  320loPI   C1A 5111   4.091  13.238  10.674  0.2109 -0.2121  0.0160
  320loPI   C2A 5112   4.087  13.286  10.201 -0.1110 -0.1403  0.1424
  320loPI   C3A 5113   4.031  13.185   9.808  0.0473 -0.0218  0.0139
  320loPI   C4A 5114   4.010  13.133   9.332 -0.2650 -0.0375  0.0722
  320loPI   C5A 5115   4.089  13.339   9.046  0.0151 -0.1477  0.0289
  320loPI   C6A 5116   3.965  13.452   8.719  0.0763  0.0843 -0.0902
  320loPI   C1B 5117   3.586  13.038  10.453  0.1863 -0.1475  0.4175
  320loPI   C2B 5118   3.624  13.143  10.074 -0.1921 -0.1303 -0.2022
  320loPI   C3B 5119   3.474  12.964   9.692  0.1905 -0.0500 -0.1239
  320loPI   C4B 5120   3.582  12.957   9.255 -0.2800 -0.2044  0.0398
  321loPI    C1 5121   7.161   9.945  11.868 -0.2405 -0.1327 -0.2648
  321loPI    C2 5122   6.799   9.783  11.815 -0.1891 -0.3864  0.1181
  321loPI    C3 5123   6.911   9.909  12.178 -0.0445  0.0752 -0.0788
  321loPI   PO4 5124   7.212  10.034  11.567  0.1004  0.0871 -0.0916
  321loPI   GL1 5125   7.216  10.189  11.079  0.2450  0.3198 -0.1137
  321loPI   GL2 5126   7.534  10.295  10.956 -0.2580  0.1046 -0.1084
  321loPI   C1A 5127   6.987  10.127  10.641 -0.4145 -0.1265 -0.2658
  321loPI   C2A 5128   6.994  10.086  10.195  0.0252  0.0369  0.0257
  321loPI   C3A 5129   7.032  10.150   9.774  0.1352  0.0119 -0.0719
  321loPI   C4A 5130   7.067  10.112   9.295  0.0025 -0.0169 -0.0375
  321loPI   C5A 5131   7.266  10.117   8.904 -0.0368  0.5027 -0.2556
  321loPI   C6A 5132   7.197   9.991   8.440 -0.0323 -0.0418 -0.1579
  321loPI   C1B 5133   7.543  10.224  10.520 -0.0517 -0.0267  0.0430
  321loPI   C2B 5134   7.505  10.217  10.075  0.0508 -0.1266 -0.3746
  321loPI   C3B 5135   7.593  10.277   9.672  0.1115 -0.1578  0.1260
  321loPI   C4B 5136   7.559  10.299   9.264  0.0120 -0.4477 -0.1985
  322loPI    C1 5137   1.275  11.840  11.959 -0.3587 -0.1850 -0.0034
  322loPI    C2 5138   1.627  11.650  11.974 -0.1614  0.1461 -0.2931
  322loPI    C3 5139   1.397  11.673  12.301  0.1090 -0.0283 -0.0871
  322loPI   PO4 5140   1.111  11.796  11.815 -0.1005  0.0576  0.1693
  322loPI   GL1 5141   0.908  12.041  11.410  0.0179 -0.0532 -0.1321
  322loPI   GL2 5142   0.836  12.388  11.222  0.0518  0.1584  0.1622
  322loPI   C1A 5143   1.016  11.925  10.958  0.0438  0.1951 -0.0130
  322loPI   C2A 5144   1.062  12.081  10.556 -0.0854  0.1711  0.0025
  322loPI   C3A 5145   1.110  12.073  10.173  0.0293 -0.0348  0.1250
  322loPI   C4A 5146   1.149  12.179   9.738 -0.2840  0.2020  0.0858
  322loPI   C5A 5147   1.106  12.275   9.306  0.0407  0.0950 -0.1533
  322loPI   C6A 5148   1.517  12.408   9.021 -0.0383  0.4052 -0.0720
  322loPI   C1B 5149   0.692  12.317  10.780  0.0040  0.2221  0.0767
  322loPI   C2B 5150   0.786  12.431  10.344  0.2973  0.0226  0.3972
  322loPI   C3B 5151   0.742  12.533   9.967  0.1610  0.0867  0.0294
  322loPI   C4B 5152   0.738  12.467   9.554 -0.1329 -0.2056  0.0278
  323loPI    C1 5153   5.692  16.747  11.966  0.0748  0.1370 -0.0844
  323loPI    C2 5154   5.429  16.903  12.224  0.0568  0.1365 -0.1022
  323loPI    C3 5155   5.782  17.082  12.165  0.0039  0.2153 -0.1823
  323loPI   PO4 5156   5.574  16.826  11.676 -0.1351 -0.1742  0.0168
  323loPI   GL1 5157   5.413  16.562  11.414  0.1023  0.1515 -0.0378
  323loPI   GL2 5158   5.664  16.751  11.195 -0.2982  0.0439 -0.2166
  323loPI   C1A 5159   5.208  16.590  11.053 -0.1846 -0.1352 -0.0300
  323loPI   C2A 5160   5.143  16.574  10.618 -0.0489  0.2406 -0.1195
  323loPI   C3A 5161   5.102  16.602  10.176  0.3673  0.1304  0.1769
  323loPI   C4A 5162   5.081  16.480   9.815  0.0822  0.1938  0.2132
  323loPI   C5A 5163   4.999  16.450   9.410  0.0847  0.0376 -0.0092
  323loPI   C6A 5164   4.811  16.220   9.133  0.0841 -0.1068 -0.0103
  323loPI   C1B 5165   5.666  16.700  10.749  0.0806 -0.1981 -0.0237
  323loPI   C2B 5166   5.571  16.701  10.330  0.1860  0.3611  0.0104
  323loPI   C3B 5167   5.604  16.699   9.869  0.2746 -0.0702  0.0671
  323loPI   C4B 5168   5.574  16.667   9.483 -0.0431  0.1362  0.3116
  324loPI    C1 5169   4.877  14.919  11.868  0.0096 -0.1001 -0.0289
  324loPI    C2 5170   4.590  14.737  12.079  0.1724 -0.3352 -0.0064
  324loPI    C3 5171   4.944  14.813  12.247  0.1594 -0.1380 -0.0653
  324loPI   PO4 5172   4.531  15.090  11.684  0.0774  0.1228 -0.1923
  324loPI   GL1 5173   4.526  15.058  11.280 -0.0589  0.3355  0.1299
  324loPI   GL2 5174   4.944  14.946  11.347  0.1115  0.2040 -0.1989
  324loPI   C1A 5175   4.391  14.754  10.897  0.0263 -0.1378 -0.2636
  324loPI   C2A 5176   4.295  14.727  10.542 -0.1792  0.0734 -0.0756
  324loPI   C3A 5177   4.310  14.784  10.074  0.0267  0.0469 -0.0304
  324loPI   C4A 5178   4.339  14.733   9.562 -0.1762 -0.5015 -0.1356
  324loPI   C5A 5179   4.251  14.751   9.124 -0.3659 -0.0498  0.3235
  324loPI   C6A 5180   4.267  15.010   8.749  0.0167  0.1338  0.0042
  324loPI   C1B 5181   4.853  14.902  10.929 -0.2564  0.3355 -0.1704
  324loPI   C2B 5182   4.839  15.040  10.554 -0.0224  0.3415 -0.1427
  324loPI   C3B 5183   4.782  14.997  10.094  0.2688  0.3685  0.0332
  324loPI   C4B 5184   4.784  14.915   9.656  0.1102  0.2264  0.0069
  325loPI    C1 5185  13.304   2.981  12.027 -0.1611  0.0366 -0.0653
  325loPI    C2 5186  13.188   2.681  11.789  0.1933 -0.0286 -0.1608
  325loPI    C3 5187  12.987   2.757  12.126 -0.0530 -0.2096 -0.2639
  325loPI   PO4 5188  13.341   3.185  11.908  0.3073 -0.2453  0.0583
  325loPI   GL1 5189  13.442   3.226  11.502  0.2970  0.1544  0.3097
  325loPI   GL2 5190  13.247   3.408  11.283  0.0090  0.2887  0.0041
  325loPI   C1A 5191  13.637   3.144  11.103 -0.2005 -0.0856 -0.3333
  325loPI   C2A 5192  13.697   2.910  10.760 -0.0497 -0.0235 -0.1391
  325loPI   C3A 5193  13.595   2.852  10.366 -0.1565  0.1439 -0.0511
  325loPI   C4A 5194  13.680   3.025   9.884  0.0260 -0.0966 -0.2490
  325loPI   C5A 5195  13.769   2.875   9.533  0.1941 -0.0498 -0.3886
  325loPI   C6A 5196  13.809   3.115   9.199 -0.0563  0.0458 -0.1246
  325loPI   C1B 5197  12.988   3.263  10.960 -0.2915 -0.1983  0.2901
  325loPI   C2B 5198  13.206   3.232  10.619 -0.1854 -0.0688 -0.1684
  325loPI   C3B 5199  13.161   3.233  10.238  0.1176 -0.0448  0.1298
  325loPI   C4B 5200  13.335   3.375   9.905  0.2728  0.1267  0.2744
  326loPI    C1 5201   3.248  11.118  11.975  0.0390 -0.0592  0.0694
  326loPI    C2 5202   3.151  10.994  12.343 -0.1383 -0.0031  0.0426
  326loPI    C3 5203   3.511  10.907  12.191 -0.0865 -0.0780  0.2055
  326loPI   PO4 5204   3.036  11.086  11.900 -0.1424  0.0123  0.1011
  326loPI   GL1 5205   2.933  10.928  11.558  0.0801 -0.4480  0.2269
  326loPI   GL2 5206   3.002  10.686  11.353 -0.2656  0.2029 -0.1871
  326loPI   C1A 5207   2.922  11.190  11.196  0.0374  0.0575 -0.0625
  326loPI   C2A 5208   2.904  11.212  10.787  0.2883  0.2900  0.0127
  326loPI   C3A 5209   2.795  11.158  10.351  0.2096  0.1784 -0.0458
  326loPI   C4A 5210   2.808  11.320   9.932  0.1475 -0.1404  0.2003
  326loPI   C5A 5211   2.753  11.140   9.494  0.0152 -0.2886 -0.0924
  326loPI   C6A 5212   2.828  10.995   9.050 -0.0887  0.3459 -0.0655
  326loPI   C1B 5213   2.794  10.750  10.989  0.1314 -0.0881  0.1236
  326loPI   C2B 5214   2.776  10.712  10.590 -0.0491  0.4756 -0.0415
  326loPI   C3B 5215   2.806  10.668  10.237  0.3003 -0.2124  0.0099
  326loPI   C4B 5216   2.844  10.783   9.805  0.1804 -0.1555  0.0085
  327loPI    C1 5217   6.550   1.725  11.991 -0.1260 -0.0237  0.0430
  327loPI    C2 5218   6.363   2.068  12.077 -0.1419  0.0371 -0.2273
  327loPI    C3 5219   6.168   1.721  12.108 -0.1457  0.0568 -0.0178
  327loPI   PO4 5220   6.646   1.827  11.712 -0.1266  0.0235  0.0948
  327loPI   GL1 5221   6.559   1.826  11.339  0.0108 -0.2977  0.1926
  327loPI   GL2 5222   6.682   1.675  11.151 -0.2055 -0.0009  0.0142
  327loPI   C1A 5223   6.614   2.165  11.068 -0.0041  0.1024 -0.0325
  327loPI   C2A 5224   6.572   2.276  10.688  0.0674  0.1195 -0.2283
  327loPI   C3A 5225   6.525   2.274  10.253 -0.0004  0.1731 -0.0845
  327loPI   C4A 5226   6.466   2.272   9.731  0.2056 -0.1676 -0.3303
  327loPI   C5A 5227   6.398   2.088   9.300 -0.0520 -0.0445 -0.1552
  327loPI   C6A 5228   6.358   1.989   8.840 -0.1320 -0.0181 -0.1011
  327loPI   C1B 5229   6.901   1.795  10.772 -0.1808  0.0221  0.1164
  327loPI   C2B 5230   6.977   2.010  10.416 -0.0280  0.2018 -0.0931
  327loPI   C3B 5231   6.800   1.953   9.979  0.2554 -0.2079 -0.0391
  327loPI   C4B 5232   6.800   1.911   9.593  0.0714  0.2596  0.0894
  328loPI    C1 5233  14.973  13.658  11.597 -0.2174  0.2567 -0.2824
  328loPI    C2 5234  14.821  13.318  11.451  0.0432  0.0720 -0.1318
  328loPI    C3 5235  14.682  13.467  11.794  0.0898 -0.0103 -0.0768
  328loPI   PO4 5236  15.028  13.739  11.391  0.2432 -0.2672  0.2666
  328loPI   GL1 5237  14.766  13.900  11.004 -0.4262 -0.0074  0.1490
  328loPI   GL2 5238  14.644  13.539  11.009  0.0874 -0.0302  0.1643
  328loPI   C1A 5239  14.853  13.800  10.621  0.0054  0.0628  0.1657
  328loPI   C2A 5240  14.903  13.817  10.158 -0.0344 -0.0177 -0.2349
  328loPI   C3A 5241  14.961  13.731   9.738 -0.0501 -0.0558  0.2178
  328loPI   C4A 5242  15.020  13.445   9.351  0.3332 -0.0474  0.1449
  328loPI   C5A 5243  14.754  13.091   9.078 -0.2392  0.1493 -0.2152
  328loPI   C6A 5244  14.647  12.846   8.785  0.3301 -0.2965 -0.2083
  328loPI   C1B 5245  14.421  13.641  10.615  0.2194  0.0006  0.4119
  328loPI   C2B 5246  14.450  13.623  10.179  0.1637 -0.2196  0.2997
  328loPI   C3B 5247  14.415  13.515   9.715  0.1117  0.0369  0.0380
  328loPI   C4B 5248  14.452  13.503   9.306 -0.1901 -0.1928 -0.1178
  329loPI    C1 5249  11.046   8.462  11.677 -0.1270  0.1173  0.0500
  329loPI    C2 5250  10.668   8.593  11.667 -0.1760 -0.0158  0.1260
  329loPI    C3 5251  10.859   8.560  12.017 -0.1585 -0.1307  0.1059
  329loPI   PO4 5252  11.000   8.221  11.529  0.1389 -0.0750  0.0068
  329loPI   GL1 5253  11.106   8.110  11.044  0.2544  0.0743 -0.0164
  329loPI   GL2 5254  10.897   7.775  10.918  0.3231  0.0927 -0.1323
  329loPI   C1A 5255  10.802   8.223  10.697 -0.0782 -0.0236  0.4431
  329loPI   C2A 5256  10.814   8.097  10.250  0.2422 -0.0249  0.1664
  329loPI   C3A 5257  10.753   8.114   9.766  0.0001 -0.0728 -0.1468
  329loPI   C4A 5258  10.743   7.956   9.379 -0.2563  0.1773 -0.1772
  329loPI   C5A 5259  10.918   8.058   8.913 -0.1506  0.0939 -0.1608
  329loPI   C6A 5260  11.198   7.980   8.552  0.1127  0.1740  0.2206
  329loPI   C1B 5261  10.762   7.681  10.478  0.1825 -0.3006 -0.2509
  329loPI   C2B 5262  10.752   7.590   9.995 -0.0535  0.0124  0.1933
  329loPI   C3B 5263  10.710   7.466   9.539 -0.4551  0.0316 -0.1024
  329loPI   C4B 5264  10.759   7.528   9.125  0.1568  0.3117 -0.3645
  330loPI    C1 5265  11.595  11.947  11.707  0.0706  0.2503  0.1132
  330loPI    C2 5266  11.616  11.660  11.986  0.1817  0.1025 -0.0448
  330loPI    C3 5267  11.333  11.942  12.009  0.0329 -0.0549  0.0793
  330loPI   PO4 5268  11.726  11.831  11.476 -0.0268  0.3243 -0.1095
  330loPI   GL1 5269  11.712  11.785  11.057  0.2146  0.1449 -0.1506
  330loPI   GL2 5270  11.682  11.514  11.104  0.0515 -0.2196  0.0556
  330loPI   C1A 5271  11.621  11.685  10.551 -0.1236 -0.0383 -0.1091
  330loPI   C2A 5272  11.569  11.649  10.192  0.2404 -0.0257  0.0493
  330loPI   C3A 5273  11.525  11.663   9.747  0.0730 -0.0306  0.1027
  330loPI   C4A 5274  11.324  11.570   9.422 -0.1451 -0.2654  0.0917
  330loPI   C5A 5275  11.050  11.327   9.207 -0.1020 -0.0145 -0.0325
  330loPI   C6A 5276  10.932  11.001   8.906 -0.1820 -0.0787 -0.2067
  330loPI   C1B 5277  11.317  11.393  10.921 -0.0243 -0.2822  0.0468
  330loPI   C2B 5278  11.168  11.443  10.546  0.1377  0.4703 -0.0458
  330loPI   C3B 5279  11.078  11.504  10.070 -0.0286 -0.1312 -0.2765
  330loPI   C4B 5280  10.900  11.522   9.655  0.1885  0.0186  0.0108
  331loPI    C1 5281  13.678   8.038  11.699  0.1260  0.1505  0.0826
  331loPI    C2 5282  13.500   8.355  11.866  0.0120  0.0970  0.0638
  331loPI    C3 5283  13.429   7.988  12.009 -0.0173  0.0598 -0.0455
  331loPI   PO4 5284  13.642   7.926  11.423 -0.1551 -0.2170  0.0147
  331loPI   GL1 5285  13.651   8.099  11.020  0.0382  0.4073 -0.1271
  331loPI   GL2 5286  13.660   7.720  10.930 -0.1851 -0.1211  0.1367
  331loPI   C1A 5287  13.701   8.109  10.603  0.0603  0.0790  0.3471
  331loPI   C2A 5288  13.631   8.102  10.202  0.1838  0.2249  0.2515
  331loPI   C3A 5289  13.683   8.170   9.697  0.2252 -0.1989 -0.0707
  331loPI   C4A 5290  13.532   8.099   9.234 -0.0083  0.1816 -0.1370
  331loPI   C5A 5291  13.623   8.068   8.876 -0.1807  0.1174  0.0988
  331loPI   C6A 5292  13.629   7.694   8.666 -0.1021 -0.1542  0.0809
  331loPI   C1B 5293  13.559   7.578  10.536 -0.1117 -0.2669 -0.0836
  331loPI   C2B 5294  13.511   7.575  10.133  0.0125 -0.0520  0.1497
  331loPI   C3B 5295  13.519   7.624   9.670 -0.1547 -0.2075  0.0180
  331loPI   C4B 5296  13.462   7.562   9.304 -0.0466 -0.2283  0.0137
  332loPI    C1 5297  13.941  15.161  11.752  0.2390 -0.0457  0.0715
  332loPI    C2 5298  13.720  14.837  11.833  0.4085 -0.2287 -0.1816
  332loPI    C3 5299  13.901  15.035  12.130 -0.0541 -0.1002  0.0250
  332loPI   PO4 5300  13.921  15.184  11.545 -0.0199  0.1112  0.2248
  332loPI   GL1 5301  14.283  15.010  11.370 -0.0504  0.0646 -0.1070
  332loPI   GL2 5302  14.388  14.769  11.215  0.0347  0.1418 -0.2240
  332loPI   C1A 5303  14.561  15.129  10.908 -0.2609  0.1648  0.0548
  332loPI   C2A 5304  14.628  15.131  10.444 -0.2036  0.0024  0.0098
  332loPI   C3A 5305  14.742  15.190   9.971  0.0238  0.0552  0.0649
  332loPI   C4A 5306  14.796  15.159   9.595  0.0693  0.0362 -0.2168
  332loPI   C5A 5307  14.604  14.889   9.189  0.0749  0.2922  0.0435
  332loPI   C6A 5308  14.567  14.555   9.114  0.1498  0.3484 -0.0476
  332loPI   C1B 5309  14.445  14.689  10.777 -0.1056  0.0733 -0.0876
  332loPI   C2B 5310  14.661  14.635  10.432  0.2479  0.0126  0.0897
  332loPI   C3B 5311  14.723  14.642   9.982  0.0444  0.3209  0.0067
  332loPI   C4B 5312  14.624  14.467   9.632 -0.0666  0.2396  0.2320
  333loPI    C1 5313   5.113  12.015  11.736 -0.1130  0.1466 -0.0872
  333loPI    C2 5314   4.956  12.199  12.056 -0.0548  0.2445 -0.1145
  333loPI    C3 5315   5.260  11.942  12.101 -0.2596  0.0087 -0.0547
  333loPI   PO4 5316   4.931  11.972  11.514 -0.4029 -0.0113 -0.1309
  333loPI   GL1 5317   4.931  12.060  11.061  0.0206 -0.0945  0.1682
  333loPI   GL2 5318   4.696  11.832  11.080 -0.0374 -0.0812 -0.0731
  333loPI   C1A 5319   4.949  12.042  10.633  0.0469  0.1360  0.0083
  333loPI   C2A 5320   4.949  12.057  10.240  0.1227 -0.1285  0.0605
  333loPI   C3A 5321   4.797  12.031   9.920 -0.0969 -0.0748  0.0821
  333loPI   C4A 5322   4.636  12.035   9.467  0.1751 -0.1611  0.1980
  333loPI   C5A 5323   4.709  11.885   9.072  0.2074 -0.2567  0.0327
  333loPI   C6A 5324   5.020  11.980   8.789 -0.0299  0.1324  0.1527
  333loPI   C1B 5325   4.568  11.719  10.691  0.4079  0.0468  0.0107
  333loPI   C2B 5326   4.472  11.857  10.256 -0.1385  0.0478  0.0787
  333loPI   C3B 5327   4.347  11.819   9.898  0.2349 -0.1328  0.1097
  333loPI   C4B 5328   4.094  11.820   9.566  0.1001 -0.1460  0.1261
  334loPI    C1 5329  10.315   3.854  11.880 -0.4356 -0.1156 -0.0809
  334loPI    C2 5330  10.273   4.140  12.156  0.1100 -0.1352  0.0334
  334loPI    C3 5331  10.349   3.764  12.268  0.1213 -0.1847 -0.1379
  334loPI   PO4 5332  10.483   4.062  11.688  0.0873  0.1840 -0.0414
  334loPI   GL1 5333  10.640   3.935  11.287  0.2881  0.0209  0.0547
  334loPI   GL2 5334  10.499   3.692  11.177 -0.2031  0.0719  0.0084
  334loPI   C1A 5335  10.627   4.227  10.845 -0.0608 -0.2405  0.2500
  334loPI   C2A 5336  10.620   4.231  10.499  0.0141  0.0314  0.1388
  334loPI   C3A 5337  10.522   4.109  10.089  0.1343  0.0981 -0.4360
  334loPI   C4A 5338  10.745   4.151   9.787  0.2941  0.1388 -0.1375
  334loPI   C5A 5339  10.821   4.090   9.287 -0.1282  0.1511  0.0168
  334loPI   C6A 5340  11.176   4.256   8.996  0.2031 -0.3843  0.3611
  334loPI   C1B 5341  10.599   3.751  10.814 -0.0264  0.1843  0.1561
  334loPI   C2B 5342  10.547   3.739  10.428 -0.2677  0.1325 -0.0446
  334loPI   C3B 5343  10.641   3.634  10.090  0.1089 -0.1664 -0.0163
  334loPI   C4B 5344  10.603   3.690   9.640  0.1599  0.0060  0.4480
  335loPI    C1 5345   2.389  12.835  11.778  0.0355 -0.1724  0.0482
  335loPI    C2 5346   2.456  13.164  11.995 -0.0769  0.0913 -0.3082
  335loPI    C3 5347   2.613  12.815  12.109 -0.1215  0.2242  0.1846
  335loPI   PO4 5348   2.430  12.873  11.600 -0.1992  0.1103 -0.1309
  335loPI   GL1 5349   2.685  12.788  11.203  0.2633 -0.0045 -0.0499
  335loPI   GL2 5350   2.761  13.092  11.224 -0.1147 -0.2019 -0.0864
  335loPI   C1A 5351   2.649  12.482  10.781 -0.3536 -0.3157  0.0106
  335loPI   C2A 5352   2.683  12.620  10.354 -0.0858  0.1715  0.0321
  335loPI   C3A 5353   2.562  12.525   9.825 -0.0782  0.0322 -0.0116
  335loPI   C4A 5354   2.715  12.715   9.354 -0.4803 -0.1254  0.0068
  335loPI   C5A 5355   2.975  12.523   9.043  0.2960  0.0375  0.0660
  335loPI   C6A 5356   3.287  12.404   8.938  0.1401 -0.0345 -0.3261
  335loPI   C1B 5357   2.750  13.065  10.795  0.0191  0.1152  0.0091
  335loPI   C2B 5358   2.775  13.173  10.323  0.1285  0.1699  0.1709
  335loPI   C3B 5359   2.644  13.353   9.809 -0.0331  0.0022 -0.0825
  335loPI   C4B 5360   2.644  13.257   9.483 -0.0184  0.1645 -0.0485
  336loPI    C1 5361   5.941   9.440  12.011 -0.1706 -0.0207  0.0864
  336loPI    C2 5362   6.192   9.164  12.155  0.0904  0.1980  0.0593
  336loPI    C3 5363   6.120   9.497  12.364 -0.0722  0.1987  0.0032
  336loPI   PO4 5364   5.934   9.447  11.750  0.0080 -0.2495 -0.2373
  336loPI   GL1 5365   6.078   9.434  11.313 -0.1353  0.1841 -0.0458
  336loPI   GL2 5366   6.210   9.621  11.149 -0.0640 -0.0069  0.2077
  336loPI   C1A 5367   5.927   9.340  10.909 -0.1244 -0.2122 -0.1072
  336loPI   C2A 5368   5.954   9.269  10.476 -0.0321  0.1498  0.1069
  336loPI   C3A 5369   5.923   9.316  10.041 -0.4300  0.1220 -0.2336
  336loPI   C4A 5370   5.967   9.340   9.618 -0.0161  0.0940  0.0131
  336loPI   C5A 5371   5.963   9.167   9.234  0.2109  0.1431  0.0345
  336loPI   C6A 5372   5.694   8.800   8.966 -0.2294  0.1456  0.0236
  336loPI   C1B 5373   6.144   9.794  10.725  0.2040  0.0560  0.1909
  336loPI   C2B 5374   6.120   9.832  10.322  0.0709 -0.1452 -0.1670
  336loPI   C3B 5375   6.053   9.777   9.838  0.0499 -0.0765  0.1365
  336loPI   C4B 5376   6.178   9.801   9.457 -0.3356 -0.0541  0.2370
  337loPI    C1 5377  13.441  10.358  11.656 -0.0254 -0.0330  0.0573
  337loPI    C2 5378  13.806  10.406  11.811  0.1972 -0.1841 -0.4005
  337loPI    C3 5379  13.544  10.160  11.988  0.1252  0.3125  0.2212
  337loPI   PO4 5380  13.555  10.423  11.324 -0.1760  0.2052 -0.0089
  337loPI   GL1 5381  13.607  10.592  10.904 -0.0285 -0.1398 -0.2131
  337loPI   GL2 5382  13.900  10.412  10.892 -0.1601  0.0476  0.1478
  337loPI   C1A 5383  13.436  10.737  10.507 -0.3035  0.1133 -0.3438
  337loPI   C2A 5384  13.453  10.808  10.105 -0.0173 -0.2954  0.1060
  337loPI   C3A 5385  13.573  10.718   9.771  0.1815 -0.1737 -0.1117
  337loPI   C4A 5386  13.561  10.549   9.263  0.2487  0.1172  0.0322
  337loPI   C5A 5387  13.648  10.418   8.911  0.0959  0.1678 -0.1692
  337loPI   C6A 5388  13.766   9.972   8.707  0.0550  0.1183 -0.5073
  337loPI   C1B 5389  13.871  10.480  10.381 -0.3384  0.3714  0.1551
  337loPI   C2B 5390  13.931  10.451   9.934  0.3057 -0.0782 -0.2378
  337loPI   C3B 5391  13.988  10.430   9.514  0.1233  0.1689 -0.3205
  337loPI   C4B 5392  14.146  10.297   9.070 -0.0441  0.1177 -0.1545
  338loPI    C1 5393  13.805   6.650  11.633  0.0384 -0.0097  0.0649
  338loPI    C2 5394  13.914   6.765  12.000  0.1920  0.0208  0.0107
  338loPI    C3 5395  13.725   7.021  11.757 -0.1469 -0.0808  0.1612
  338loPI   PO4 5396  13.998   6.540  11.507 -0.2587  0.3156 -0.3041
  338loPI   GL1 5397  14.138   6.293  11.125 -0.2432 -0.1320  0.0093
  338loPI   GL2 5398  14.003   6.017  11.232 -0.0015 -0.0568  0.1181
  338loPI   C1A 5399  14.258   6.485  10.709 -0.0963 -0.0129 -0.1528
  338loPI   C2A 5400  14.312   6.417  10.222 -0.0862 -0.0440 -0.1932
  338loPI   C3A 5401  14.294   6.513   9.744 -0.0103  0.0064  0.0925
  338loPI   C4A 5402  14.163   6.531   9.227  0.0097 -0.0661 -0.1461
  338loPI   C5A 5403  14.086   6.897   8.999  0.2100 -0.1056  0.0039
  338loPI   C6A 5404  13.947   7.376   8.873  0.2369 -0.2787 -0.0855
  338loPI   C1B 5405  14.077   5.987  10.753 -0.3218 -0.1678  0.0500
  338loPI   C2B 5406  14.173   5.932  10.308 -0.2818 -0.1007 -0.1251
  338loPI   C3B 5407  14.165   5.993   9.895  0.2104 -0.1249  0.0816
  338loPI   C4B 5408  14.245   6.017   9.463 -0.0044 -0.0837 -0.0307
  339loPI    C1 5409   6.451   7.976  11.460  0.1359  0.1482 -0.1696
  339loPI    C2 5410   6.789   8.122  11.616 -0.1073  0.4709  0.0681
  339loPI    C3 5411   6.557   7.880  11.833  0.0986  0.0309 -0.1887
  339loPI   PO4 5412   6.484   7.847  11.296  0.0991  0.0957 -0.0410
  339loPI   GL1 5413   6.395   7.502  10.947 -0.1358  0.1524 -0.2139
  339loPI   GL2 5414   6.191   7.207  10.926  0.0473  0.2402  0.1274
  339loPI   C1A 5415   6.511   7.564  10.433  0.1034  0.0278  0.0803
  339loPI   C2A 5416   6.527   7.619   9.912  0.0844  0.1624 -0.1857
  339loPI   C3A 5417   6.538   7.436   9.483 -0.0816  0.1540 -0.2075
  339loPI   C4A 5418   6.643   7.557   9.082 -0.0440  0.1876  0.1390
  339loPI   C5A 5419   7.075   7.376   8.837  0.3762  0.0738  0.1181
  339loPI   C6A 5420   7.541   7.445   8.781 -0.0795 -0.0584  0.3890
  339loPI   C1B 5421   6.086   7.336  10.540 -0.1525  0.0942  0.0159
  339loPI   C2B 5422   6.005   7.468  10.052  0.3133 -0.1759 -0.0873
  339loPI   C3B 5423   6.061   7.447   9.626  0.0806  0.3098  0.1920
  339loPI   C4B 5424   5.988   7.433   9.180 -0.1331 -0.1625  0.1935
  340loPI    C1 5425   3.047   1.761  11.853  0.1052  0.1036 -0.1541
  340loPI    C2 5426   2.949   2.114  11.692 -0.0490  0.1060 -0.0572
  340loPI    C3 5427   3.068   2.094  12.074  0.1097  0.0728 -0.1076
  340loPI   PO4 5428   3.221   1.649  11.706 -0.1495 -0.3726  0.2285
  340loPI   GL1 5429   3.217   1.865  11.236 -0.0025 -0.1833  0.0762
  340loPI   GL2 5430   3.173   2.175  11.226  0.1943  0.1386 -0.2263
  340loPI   C1A 5431   3.200   1.637  10.728  0.1809 -0.0204  0.0173
  340loPI   C2A 5432   3.102   1.600  10.273 -0.1094 -0.0427 -0.0315
  340loPI   C3A 5433   3.188   1.547   9.788  0.0496 -0.2366 -0.1269
  340loPI   C4A 5434   3.105   1.930   9.482 -0.4138  0.1626  0.5188
  340loPI   C5A 5435   3.217   2.362   9.263 -0.3246 -0.0931 -0.2743
  340loPI   C6A 5436   2.984   2.736   9.240  0.1362  0.0967  0.0305
  340loPI   C1B 5437   3.285   2.130  10.760  0.2718 -0.2465  0.2269
  340loPI   C2B 5438   3.250   2.091  10.360  0.1910  0.3747 -0.1604
  340loPI   C3B 5439   3.189   2.130   9.975 -0.0931  0.0241 -0.0238
  340loPI   C4B 5440   2.881   2.395   9.626  0.4051  0.0901 -0.2204
  341loPI    C1 5441  15.181   4.655  11.898  0.1549 -0.0298  0.0457
  341loPI    C2 5442  15.114   4.310  12.089 -0.0856  0.0232  0.0612
  341loPI    C3 5443  14.903   4.635  12.185 -0.0689  0.1008 -0.1584
  341loPI   PO4 5444  15.359   4.531  11.685  0.1247  0.0999  0.0458
  341loPI   GL1 5445  15.453   4.339  11.308  0.1010 -0.0935  0.0651
  341loPI   GL2 5446  15.405   4.005  11.153  0.1629  0.2938 -0.1195
  341loPI   C1A 5447  15.386   4.480  10.893  0.0384  0.0473 -0.5046
  341loPI   C2A 5448  15.339   4.428  10.490 -0.0291 -0.0391  0.4214
  341loPI   C3A 5449  15.254   4.463  10.083 -0.2249  0.0218 -0.0614
  341loPI   C4A 5450  15.312   4.613   9.677  0.2000  0.3354 -0.1909
  341loPI   C5A 5451  15.470   4.659   9.291 -0.0922  0.1699 -0.0437
  341loPI   C6A 5452  15.483   4.614   8.929  0.1373  0.1083 -0.3620
  341loPI   C1B 5453  15.192   4.060  10.759  0.0189 -0.0427  0.0756
  341loPI   C2B 5454  15.239   3.945  10.385 -0.0275  0.2855  0.2266
  341loPI   C3B 5455  15.248   3.969   9.942  0.1409 -0.2646  0.0989
  341loPI   C4B 5456  15.257   3.950   9.516  0.0187 -0.2747 -0.0143
  342loPI    C1 5457   8.568   4.317  11.554 -0.0421  0.0567  0.0119
  342loPI    C2 5458   8.903   4.505  11.664  0.1711 -0.2442 -0.1067
  342loPI    C3 5459   8.677   4.323  11.939  0.0963 -0.0305 -0.0247
  342loPI   PO4 5460   8.552   4.418  11.365 -0.1929 -0.1732 -0.1850
  342loPI   GL1 5461   8.607   4.448  11.011 -0.1890  0.1186  0.0286
  342loPI   GL2 5462   8.306   4.275  10.876  0.1327 -0.0337  0.2627
  342loPI   C1A 5463   8.805   4.634  10.623 -0.0138  0.0746  0.0436
  342loPI   C2A 5464   8.880   4.803  10.177  0.2706  0.2342 -0.0719
  342loPI   C3A 5465   9.020   4.944   9.877 -0.1706  0.1850 -0.1689
  342loPI   C4A 5466   8.810   5.020   9.442 -0.1293 -0.2550 -0.0937
  342loPI   C5A 5467   8.807   5.144   9.089  0.2559 -0.0170 -0.0423
  342loPI   C6A 5468   8.849   5.390   8.627  0.1211  0.0732 -0.3070
  342loPI   C1B 5469   8.521   4.204  10.454  0.1275  0.2905 -0.0242
  342loPI   C2B 5470   8.401   4.223  10.076  0.0277  0.1134 -0.0084
  342loPI   C3B 5471   8.224   4.437   9.728  0.0990  0.1450 -0.2312
  342loPI   C4B 5472   8.121   4.332   9.276 -0.1371 -0.0188 -0.0459
  343loPI    C1 5473   5.812   4.848  11.775 -0.0481  0.3652 -0.1736
  343loPI    C2 5474   5.525   5.055  11.963 -0.1278  0.0560  0.0532
  343loPI    C3 5475   5.901   5.066  12.099 -0.1507 -0.0238  0.1232
  343loPI   PO4 5476   5.772   4.874  11.564  0.0290 -0.2175  0.0814
  343loPI   GL1 5477   5.766   5.207  11.241 -0.1544 -0.3832  0.2498
  343loPI   GL2 5478   5.698   4.895  11.073 -0.0276  0.0491  0.0705
  343loPI   C1A 5479   5.669   5.392  10.792 -0.1250 -0.1606  0.1570
  343loPI   C2A 5480   5.644   5.400  10.350  0.6033 -0.1238 -0.2609
  343loPI   C3A 5481   5.554   5.399   9.986  0.0011  0.2392 -0.2184
  343loPI   C4A 5482   5.641   5.348   9.544  0.3320 -0.0790  0.1650
  343loPI   C5A 5483   5.742   5.085   9.163 -0.0857 -0.2515 -0.1612
  343loPI   C6A 5484   5.449   4.742   8.974  0.1164 -0.0707  0.0334
  343loPI   C1B 5485   5.578   4.955  10.636  0.0305 -0.0267 -0.0905
  343loPI   C2B 5486   5.558   4.880  10.274  0.0801  0.1431  0.0806
  343loPI   C3B 5487   5.544   4.846   9.830 -0.1037 -0.0111 -0.2048
  343loPI   C4B 5488   5.589   4.648   9.402 -0.1374 -0.0311 -0.1676
  344loPI    C1 5489  10.315   0.633  11.493  0.0284 -0.1739 -0.0841
  344loPI    C2 5490  10.247   0.842  11.828  0.0519 -0.1672 -0.0834
  344loPI    C3 5491  10.097   0.474  11.788 -0.1366 -0.0837 -0.1560
  344loPI   PO4 5492  10.331   0.945  11.303 -0.0112  0.4215 -0.0667
  344loPI   GL1 5493  10.586   1.165  10.999 -0.0032 -0.1472 -0.1199
  344loPI   GL2 5494  10.826   1.450  11.142 -0.0768 -0.0988 -0.1083
  344loPI   C1A 5495  10.535   1.158  10.537 -0.2088 -0.0154 -0.2623
  344loPI   C2A 5496  10.571   1.069  10.131  0.2027  0.2324  0.0200
  344loPI   C3A 5497  10.581   1.196   9.670  0.0622 -0.0298 -0.2036
  344loPI   C4A 5498  10.365   1.438   9.123  0.1145 -0.0561 -0.2789
  344loPI   C5A 5499   9.966   1.640   8.923  0.2381  0.1477 -0.0009
  344loPI   C6A 5500   9.513   1.530   9.051 -0.1293 -0.0513  0.1652
  344loPI   C1B 5501  11.056   1.440  10.765  0.1003  0.3061 -0.1235
  344loPI   C2B 5502  11.184   1.475  10.410 -0.0434 -0.0793  0.0015
  344loPI   C3B 5503  11.280   1.459  10.000  0.1163  0.0078 -0.1081
  344loPI   C4B 5504  11.239   1.562   9.564 -0.2293  0.1241  0.1870
  345loPI    C1 5505   4.099   1.015  11.978  0.0420 -0.2669 -0.1663
  345loPI    C2 5506   4.046   0.752  12.275  0.2389 -0.0824  0.0359
  345loPI    C3 5507   3.768   1.031  12.202  0.1492 -0.1836 -0.0123
  345loPI   PO4 5508   4.260   0.905  11.835 -0.1555 -0.0044 -0.2191
  345loPI   GL1 5509   4.471   1.031  11.407 -0.2032 -0.3069  0.0533
  345loPI   GL2 5510   4.700   1.082  11.595 -0.2250  0.0625 -0.0420
  345loPI   C1A 5511   4.389   1.137  10.886 -0.1012 -0.0464 -0.0251
  345loPI   C2A 5512   4.453   1.080  10.482 -0.0625  0.2405  0.3089
  345loPI   C3A 5513   4.388   1.202  10.047  0.2112  0.2726  0.4228
  345loPI   C4A 5514   4.488   1.117   9.711 -0.0365 -0.1207 -0.0476
  345loPI   C5A 5515   4.827   1.179   9.454  0.0351  0.1057 -0.0539
  345loPI   C6A 5516   4.817   1.057   9.133 -0.1956  0.3021 -0.6203
  345loPI   C1B 5517   4.913   1.093  11.141 -0.0633 -0.1050 -0.1204
  345loPI   C2B 5518   4.976   1.315  10.826  0.1373 -0.0839  0.2978
  345loPI   C3B 5519   4.946   1.320  10.469  0.3066 -0.0478  0.1345
  345loPI   C4B 5520   5.019   1.277  10.039 -0.1434  0.1888 -0.0639
  346loPI    C1 5521  12.362   7.995  11.287  0.2475  0.0403 -0.0017
  346loPI    C2 5522  12.118   8.252  11.101  0.0527 -0.1446 -0.0056
  346loPI    C3 5523  12.335   8.373  11.415 -0.0503  0.0190  0.0037
  346loPI   PO4 5524  12.381   7.822  11.095 -0.0878  0.0245  0.0407
  346loPI   GL1 5525  12.797   7.601  10.969  0.0797  0.0297  0.4683
  346loPI   GL2 5526  12.613   7.506  10.697  0.1055  0.1550 -0.3979
  346loPI   C1A 5527  13.073   7.559  10.604  0.1831 -0.0831  0.0749
  346loPI   C2A 5528  13.061   7.429  10.178  0.2808 -0.2389 -0.0649
  346loPI   C3A 5529  13.045   7.450   9.736 -0.5488 -0.0581 -0.0116
  346loPI   C4A 5530  12.878   7.532   9.297 -0.2970  0.1100 -0.2220
  346loPI   C5A 5531  12.610   7.561   8.950 -0.1569 -0.0155  0.1369
  346loPI   C6A 5532  12.229   7.659   8.672  0.2102 -0.0741  0.2040
  346loPI   C1B 5533  12.525   7.367  10.293  0.2858  0.0536  0.3139
  346loPI   C2B 5534  12.552   7.208   9.897  0.1487 -0.0127  0.1688
  346loPI   C3B 5535  12.510   7.334   9.495  0.1716  0.1081 -0.1103
  346loPI   C4B 5536  12.494   7.119   9.196  0.0179 -0.2814 -0.1458
  347loPI    C1 5537   5.320  13.574  11.803  0.1791  0.0500 -0.0110
  347loPI    C2 5538   5.172  13.502  12.167  0.1496  0.0018 -0.0324
  347loPI    C3 5539   5.511  13.325  12.050  0.2115  0.0931  0.0075
  347loPI   PO4 5540   5.080  13.571  11.663 -0.1074  0.0696 -0.0618
  347loPI   GL1 5541   5.140  13.474  11.238 -0.0463  0.0796  0.0749
  347loPI   GL2 5542   5.364  13.651  11.255 -0.2261 -0.0626 -0.0342
  347loPI   C1A 5543   4.997  13.563  10.876 -0.0513  0.0995  0.2063
  347loPI   C2A 5544   4.992  13.546  10.335 -0.0050 -0.1822 -0.0954
  347loPI   C3A 5545   5.045  13.542   9.925 -0.1652 -0.4360  0.0580
  347loPI   C4A 5546   4.919  13.600   9.487 -0.3302  0.1701 -0.1346
  347loPI   C5A 5547   5.045  13.736   9.070 -0.0730 -0.1718  0.0218
  347loPI   C6A 5548   4.891  13.850   8.737 -0.0304  0.0279  0.0646
  347loPI   C1B 5549   5.490  13.790  10.872  0.0004 -0.1258  0.2969
  347loPI   C2B 5550   5.534  13.777  10.437  0.1406 -0.0911  0.2240
  347loPI   C3B 5551   5.486  13.736  10.036  0.0454  0.1179  0.0999
  347loPI   C4B 5552   5.393  13.714   9.582  0.1707  0.1400 -0.0921
  348loPI    C1 5553  14.691  16.375  11.849 -0.0004  0.0170 -0.0307
  348loPI    C2 5554  15.043  16.561  11.816 -0.0113  0.0821  0.2078
  348loPI    C3 5555  14.913  16.440  12.175 -0.2031  0.0015  0.1126
  348loPI   PO4 5556  14.511  16.543  11.647  0.0515 -0.2094  0.0410
  348loPI   GL1 5557  14.472  16.458  11.281 -0.2371 -0.2314  0.3902
  348loPI   GL2 5558  14.095  16.332  11.233 -0.1943  0.0172 -0.1457
  348loPI   C1A 5559  14.525  16.513  10.878 -0.1910 -0.2591  0.1946
  348loPI   C2A 5560  14.567  16.412  10.434  0.0603 -0.1505 -0.0474
  348loPI   C3A 5561  14.486  16.462  10.063  0.1391  0.2763 -0.0758
  348loPI   C4A 5562  14.528  16.455   9.619  0.0903  0.2211  0.0501
  348loPI   C5A 5563  14.407  16.278   9.248  0.1286 -0.0896 -0.3882
  348loPI   C6A 5564  14.353  16.459   8.863 -0.1019 -0.0086 -0.1332
  348loPI   C1B 5565  14.034  16.342  10.819  0.2079  0.1222  0.1324
  348loPI   C2B 5566  14.062  16.300  10.353  0.1325 -0.2159 -0.1183
  348loPI   C3B 5567  13.995  16.332   9.996 -0.1344  0.0429 -0.2749
  348loPI   C4B 5568  14.113  16.221   9.603 -0.0916  0.1818  0.1424
  349loPI    C1 5569   3.382   0.890  11.886  0.1769 -0.1008 -0.0750
  349loPI    C2 5570   3.108   0.663  12.070  0.1908 -0.0853 -0.0351
  349loPI    C3 5571   3.486   0.535  12.040  0.2450  0.0223  0.1679
  349loPI   PO4 5572   3.346   0.940  11.681  0.2135 -0.0355 -0.0086
  349loPI   GL1 5573   3.461   1.055  11.345 -0.1169 -0.2774 -0.1656
  349loPI   GL2 5574   3.514   0.754  11.231  0.0444  0.2047 -0.1832
  349loPI   C1A 5575   3.511   1.257  11.024  0.2530  0.1108 -0.4415
  349loPI   C2A 5576   3.547   1.227  10.591  0.1149 -0.2183  0.3505
  349loPI   C3A 5577   3.479   1.312  10.144 -0.1044 -0.2145  0.1749
  349loPI   C4A 5578   3.585   1.221   9.731  0.1361  0.0636 -0.1351
  349loPI   C5A 5579   3.372   1.335   9.352  0.2921  0.2345 -0.1129
  349loPI   C6A 5580   3.040   1.587   9.072  0.3493 -0.0785 -0.1677
  349loPI   C1B 5581   3.479   0.755  10.796 -0.0927  0.0088  0.0669
  349loPI   C2B 5582   3.585   0.704  10.372  0.0084 -0.0293  0.0920
  349loPI   C3B 5583   3.537   0.719   9.917 -0.1018  0.0437 -0.1860
  349loPI   C4B 5584   3.581   0.757   9.454 -0.1002  0.0786 -0.1246
  350loPI    C1 5585  13.285  14.794  11.606 -0.0661  0.0124  0.1285
  350loPI    C2 5586  13.054  14.509  11.447  0.0045  0.0488 -0.0419
  350loPI    C3 5587  12.952  14.678  11.795 -0.2353  0.0776 -0.1239
  350loPI   PO4 5588  13.503  14.741  11.371  0.3123 -0.0578 -0.0607
  350loPI   GL1 5589  13.631  14.895  10.970 -0.1246 -0.1666  0.0808
  350loPI   GL2 5590  13.994  14.980  10.971  0.2720 -0.0735  0.0948
  350loPI   C1A 5591  13.639  14.915  10.550  0.4288 -0.0689 -0.1189
  350loPI   C2A 5592  13.773  14.834  10.117  0.2147  0.1934  0.1704
  350loPI   C3A 5593  13.764  14.718   9.686  0.1959  0.0558  0.0477
  350loPI   C4A 5594  13.606  14.631   9.382 -0.2139 -0.0622  0.0231
  350loPI   C5A 5595  13.314  14.482   9.020 -0.0995  0.3049  0.4479
  350loPI   C6A 5596  13.113  14.543   8.611 -0.2870 -0.0631 -0.1035
  350loPI   C1B 5597  14.158  15.022  10.566  0.0080  0.1152 -0.0671
  350loPI   C2B 5598  14.252  14.942  10.076  0.1580  0.0283  0.1044
  350loPI   C3B 5599  14.278  14.837   9.601 -0.2670 -0.0335  0.0304
  350loPI   C4B 5600  14.062  14.717   9.268  0.0863 -0.1538  0.1184
  351loPI    C1 5601   8.923   6.358  11.627  0.0042 -0.1585 -0.0696
  351loPI    C2 5602   9.181   6.076  11.744 -0.1459 -0.1718  0.2387
  351loPI    C3 5603   8.945   6.255  12.013 -0.0244  0.2781  0.0539
  351loPI   PO4 5604   9.019   6.416  11.394  0.0555  0.1025  0.1825
  351loPI   GL1 5605   9.217   6.428  10.965 -0.2172 -0.1841  0.1019
  351loPI   GL2 5606   8.999   6.212  10.857 -0.0616  0.0042  0.2389
  351loPI   C1A 5607   9.157   6.584  10.548  0.0528  0.0919  0.0425
  351loPI   C2A 5608   9.123   6.580  10.170  0.0190  0.1156  0.3652
  351loPI   C3A 5609   9.129   6.503   9.752  0.0029  0.0903 -0.1859
  351loPI   C4A 5610   9.183   6.470   9.415  0.0573 -0.1056  0.1128
  351loPI   C5A 5611   9.344   6.556   9.060 -0.0135  0.1904  0.0998
  351loPI   C6A 5612   9.769   6.763   8.887 -0.2507 -0.1181 -0.0515
  351loPI   C1B 5613   9.103   6.104  10.412  0.2309 -0.0052 -0.0683
  351loPI   C2B 5614   9.091   6.034   9.976  0.0859 -0.0389  0.2876
  351loPI   C3B 5615   9.100   5.955   9.517  0.0708 -0.0123  0.1222
  351loPI   C4B 5616   9.135   5.985   9.055  0.0126  0.0771  0.2709
  352loPI    C1 5617  11.676   7.642  11.505  0.1911  0.0667  0.0473
  352loPI    C2 5618  11.387   7.841  11.698  0.0073 -0.0232 -0.1324
  352loPI    C3 5619  11.725   7.746  11.889 -0.1269 -0.0160  0.1135
  352loPI   PO4 5620  11.612   7.417  11.398  0.0500  0.0873  0.1584
  352loPI   GL1 5621  11.284   7.332  10.984 -0.3846  0.3121  0.0717
  352loPI   GL2 5622  11.426   7.677  10.935  0.2517  0.2192 -0.0584
  352loPI   C1A 5623  11.147   7.389  10.625 -0.0429 -0.2045  0.1080
  352loPI   C2A 5624  11.125   7.349  10.204  0.2372 -0.1191 -0.0649
  352loPI   C3A 5625  11.090   7.267   9.856 -0.1139  0.3153 -0.2701
  352loPI   C4A 5626  11.146   7.075   9.564 -0.1556  0.1884  0.0529
  352loPI   C5A 5627  11.241   7.262   9.172  0.1521  0.0059  0.1415
  352loPI   C6A 5628  11.185   7.565   8.851  0.1042  0.2719  0.1660
  352loPI   C1B 5629  11.307   7.869  10.550  0.0009  0.1314  0.4142
  352loPI   C2B 5630  11.208   7.805  10.178  0.1151 -0.2452  0.1330
  352loPI   C3B 5631  11.250   7.802   9.841  0.0045  0.3519  0.1728
  352loPI   C4B 5632  11.161   7.641   9.477  0.3056 -0.2351  0.0642
  353loPI    C1 5633  13.205   6.380  11.852  0.2795  0.1553 -0.2885
  353loPI    C2 5634  13.432   6.655  12.034 -0.0996  0.1491  0.2123
  353loPI    C3 5635  13.220   6.394  12.252 -0.3505 -0.0419 -0.2475
  353loPI   PO4 5636  13.285   6.462  11.578 -0.0036 -0.3753  0.1851
  353loPI   GL1 5637  13.355   6.351  11.228 -0.0545  0.0289 -0.1271
  353loPI   GL2 5638  13.600   6.345  11.211  0.1177  0.1804 -0.2444
  353loPI   C1A 5639  13.250   6.263  10.779  0.0327  0.0151 -0.2533
  353loPI   C2A 5640  13.120   6.121  10.330 -0.3186  0.2118 -0.0974
  353loPI   C3A 5641  13.227   6.051   9.918  0.2351 -0.2834 -0.2637
  353loPI   C4A 5642  13.409   6.030   9.454 -0.0593 -0.0177  0.0741
  353loPI   C5A 5643  13.144   6.036   9.035 -0.1854  0.0527 -0.0402
  353loPI   C6A 5644  13.046   6.316   8.678  0.1778 -0.2891 -0.1482
  353loPI   C1B 5645  13.734   6.359  10.793  0.2389 -0.1723 -0.3452
  353loPI   C2B 5646  13.837   6.293  10.357  0.2170 -0.1412 -0.2861
  353loPI   C3B 5647  13.679   6.238   9.994 -0.0657  0.2147  0.1240
  353loPI   C4B 5648  13.840   6.306   9.605 -0.0063 -0.0199 -0.0160
  354loPI    C1 5649  10.563   7.452  11.541  0.0276 -0.0504  0.0755
  354loPI    C2 5650  10.824   7.710  11.701  0.0957  0.0769 -0.2335
  354loPI    C3 5651  10.875   7.316  11.752  0.0631  0.1167  0.1322
  354loPI   PO4 5652  10.564   7.551  11.328  0.2196  0.0817  0.0416
  354loPI   GL1 5653  10.470   7.443  10.954  0.3624 -0.0865  0.3420
  354loPI   GL2 5654  10.719   7.167  10.818  0.0423 -0.0187  0.0448
  354loPI   C1A 5655  10.238   7.424  10.534  0.0456 -0.3808  0.0814
  354loPI   C2A 5656  10.197   7.381  10.119 -0.1226  0.1567 -0.1945
  354loPI   C3A 5657  10.229   7.372   9.682  0.0649 -0.3434 -0.0808
  354loPI   C4A 5658  10.243   7.364   9.277 -0.1944 -0.1967  0.1903
  354loPI   C5A 5659  10.260   7.213   8.855  0.0876 -0.1598  0.2301
  354loPI   C6A 5660  10.449   6.965   8.570  0.0537 -0.2203  0.2085
  354loPI   C1B 5661  10.691   7.184  10.479  0.2120  0.1430  0.2341
  354loPI   C2B 5662  10.651   7.098  10.095  0.4268  0.0097 -0.0078
  354loPI   C3B 5663  10.654   7.015   9.707  0.0776  0.3550 -0.0498
  354loPI   C4B 5664  10.605   7.000   9.202 -0.0855 -0.0357 -0.3823
  355loPI    C1 5665  16.899  12.613  11.987  0.0108  0.1048  0.1909
  355loPI    C2 5666  17.177  12.373  12.145  0.0002  0.0186  0.0797
  355loPI    C3 5667  17.029  12.676  12.360  0.1424  0.0339  0.1576
  355loPI   PO4 5668  16.915  12.640  11.817  0.0851 -0.1611  0.1624
  355loPI   GL1 5669  16.962  12.589  11.399  0.1294  0.2171  0.0680
  355loPI   GL2 5670  17.137  12.413  11.179 -0.0079 -0.2947  0.0911
  355loPI   C1A 5671  17.025  12.913  11.076  0.1994 -0.1184  0.3970
  355loPI   C2A 5672  17.075  12.996  10.651  0.0007 -0.2819 -0.2482
  355loPI   C3A 5673  17.056  13.061  10.229  0.0770 -0.1642  0.2183
  355loPI   C4A 5674  17.150  12.997   9.790  0.2203  0.0133 -0.2150
  355loPI   C5A 5675  17.059  13.114   9.381 -0.0500  0.1571  0.0714
  355loPI   C6A 5676  17.120  13.525   9.112  0.0171  0.0110  0.2777
  355loPI   C1B 5677  16.969  12.502  10.786  0.1652 -0.1165 -0.0067
  355loPI   C2B 5678  16.949  12.563  10.392 -0.0636 -0.3254 -0.1778
  355loPI   C3B 5679  17.026  12.537   9.967  0.0138  0.1521 -0.1001
  355loPI   C4B 5680  16.956  12.599   9.528  0.1145 -0.1455  0.1110
  356loPI    C1 5681   3.025  10.285  11.800  0.0107 -0.0844  0.0390
  356loPI    C2 5682   2.669  10.348  11.970  0.0477 -0.0160  0.0920
  356loPI    C3 5683   2.974  10.593  12.051 -0.0178  0.2117 -0.3209
  356loPI   PO4 5684   2.996  10.282  11.627 -0.1072  0.0554  0.0764
  356loPI   GL1 5685   2.996  10.110  11.121 -0.0884 -0.1864  0.2183
  356loPI   GL2 5686   2.769  10.242  11.178 -0.1076 -0.3611  0.2990
  356loPI   C1A 5687   3.071   9.858  10.811 -0.0637  0.2381 -0.1107
  356loPI   C2A 5688   3.055   9.861  10.418  0.2509  0.3513 -0.0859
  356loPI   C3A 5689   3.019   9.877   9.984 -0.0610 -0.0709 -0.0510
  356loPI   C4A 5690   3.086  10.018   9.643 -0.2921  0.1077 -0.1816
  356loPI   C5A 5691   3.075  10.011   9.162  0.4044 -0.2321 -0.2281
  356loPI   C6A 5692   2.864   9.837   8.799 -0.1652  0.0177 -0.3781
  356loPI   C1B 5693   2.717  10.231  10.710 -0.1958  0.1927  0.0521
  356loPI   C2B 5694   2.675  10.171  10.332 -0.0159 -0.1798  0.1702
  356loPI   C3B 5695   2.702  10.328   9.903 -0.0286  0.0430  0.0694
  356loPI   C4B 5696   2.599  10.104   9.502 -0.2536 -0.3397  0.0911
  357loPI    C1 5697   0.206   4.428  11.909 -0.0372 -0.0760 -0.0419
  357loPI    C2 5698   0.173   4.705  12.196 -0.0441 -0.2952  0.1718
  357loPI    C3 5699   0.163   4.316  12.291 -0.1252 -0.3704 -0.1354
  357loPI   PO4 5700   0.045   4.455  11.692 -0.2758 -0.1382 -0.1160
  357loPI   GL1 5701   0.255   4.710  11.363  0.2003  0.1855  0.2315
  357loPI   GL2 5702   0.468   4.516  11.241 -0.1915  0.0755 -0.1559
  357loPI   C1A 5703   0.126   4.720  10.824 -0.0861  0.1611 -0.3705
  357loPI   C2A 5704   0.074   4.711  10.350  0.3480 -0.3462  0.3313
  357loPI   C3A 5705   0.044   4.679   9.875  0.1460 -0.3349 -0.1166
  357loPI   C4A 5706   0.114   4.702   9.503  0.0103 -0.0634 -0.1639
  357loPI   C5A 5707   0.358   4.463   9.074 -0.0487  0.0797 -0.0496
  357loPI   C6A 5708   0.736   4.281   8.745  0.1834 -0.0523 -0.2553
  357loPI   C1B 5709   0.573   4.421  10.801 -0.1378 -0.0447 -0.1196
  357loPI   C2B 5710   0.492   4.357  10.263  0.0142 -0.1962  0.2225
  357loPI   C3B 5711   0.414   4.381   9.793  0.3562 -0.0777  0.0815
  357loPI   C4B 5712   0.479   4.215   9.454  0.0451  0.1083  0.0732
  358loPI    C1 5713   9.272   4.795  11.428 -0.0656 -0.1188  0.2961
  358loPI    C2 5714   8.979   4.680  11.182 -0.0384  0.0165  0.1995
  358loPI    C3 5715   8.914   4.971  11.449  0.0604  0.1766  0.0518
  358loPI   PO4 5716   9.465   4.854  11.243 -0.3013 -0.0283 -0.1119
  358loPI   GL1 5717   9.786   4.634  10.902  0.1465  0.0555  0.3460
  358loPI   GL2 5718   9.788   4.300  10.833  0.2713 -0.1951 -0.0822
  358loPI   C1A 5719   9.900   4.787  10.434  0.0926  0.1214  0.0901
  358loPI   C2A 5720   9.889   4.840   9.945 -0.2392  0.1312 -0.4373
  358loPI   C3A 5721   9.849   4.815   9.550 -0.1434  0.1676 -0.1287
  358loPI   C4A 5722   9.935   4.786   9.208  0.0745 -0.0261  0.0437
  358loPI   C5A 5723  10.108   4.602   8.868 -0.0640  0.0657  0.0233
  358loPI   C6A 5724  10.439   4.701   8.588 -0.0931  0.0096 -0.0374
  358loPI   C1B 5725   9.747   4.349  10.363 -0.2039 -0.0581  0.2309
  358loPI   C2B 5726   9.786   4.306   9.906  0.0731  0.0616  0.0193
  358loPI   C3B 5727   9.910   4.327   9.511  0.2383 -0.2504  0.2557
  358loPI   C4B 5728   9.974   4.199   9.094 -0.2114 -0.2792 -0.1087
  359loPI    C1 5729  16.340   9.123  11.538 -0.0149  0.1623 -0.0067
  359loPI    C2 5730  16.456   9.074  11.917 -0.0794  0.2269  0.0216
  359loPI    C3 5731  16.074   9.161  11.834 -0.1508 -0.1632 -0.0814
  359loPI   PO4 5732  16.548   8.935  11.447  0.1985  0.1102 -0.0786
  359loPI   GL1 5733  16.607   8.846  11.036 -0.2390  0.1480 -0.0828
  359loPI   GL2 5734  16.743   8.618  10.895  0.0398  0.0963  0.3357
  359loPI   C1A 5735  16.407   8.879  10.610  0.0450 -0.1564 -0.0932
  359loPI   C2A 5736  16.500   8.922  10.220  0.0936  0.2056  0.2844
  359loPI   C3A 5737  16.452   8.825   9.770  0.0053 -0.1649 -0.0355
  359loPI   C4A 5738  16.401   8.845   9.345 -0.1698  0.1058  0.1130
  359loPI   C5A 5739  16.105   8.640   8.960 -0.0730 -0.2368 -0.1430
  359loPI   C6A 5740  16.035   8.328   8.681  0.2437 -0.0095  0.2065
  359loPI   C1B 5741  16.817   8.602  10.465  0.1310 -0.0270 -0.2809
  359loPI   C2B 5742  16.860   8.660   9.948  0.0756 -0.1733 -0.2180
  359loPI   C3B 5743  16.890   8.545   9.584  0.0430  0.0654 -0.1595
  359loPI   C4B 5744  16.871   8.348   9.194 -0.0116  0.1943  0.3257
  360loPI    C1 5745  12.061  14.399  11.690  0.1980  0.0502 -0.0347
  360loPI    C2 5746  12.386  14.228  11.850  0.1058  0.0602  0.1664
  360loPI    C3 5747  12.025  14.163  12.011  0.0224  0.1429  0.0154
  360loPI   PO4 5748  12.107  14.351  11.373 -0.0030  0.1453  0.2686
  360loPI   GL1 5749  11.910  14.499  10.953  0.5177  0.0318 -0.0600
  360loPI   GL2 5750  11.663  14.374  10.846 -0.1076  0.0630 -0.0621
  360loPI   C1A 5751  12.148  14.736  10.653 -0.2011 -0.2644  0.2719
  360loPI   C2A 5752  12.338  14.700  10.275  0.1952  0.2927 -0.0658
  360loPI   C3A 5753  12.318  14.732   9.823  0.4844  0.0999 -0.0973
  360loPI   C4A 5754  12.246  14.624   9.332  0.0498  0.2553 -0.1126
  360loPI   C5A 5755  12.145  14.471   8.864  0.2368  0.0072  0.0187
  360loPI   C6A 5756  12.118  14.475   8.403  0.0425 -0.1079  0.2072
  360loPI   C1B 5757  11.749  14.545  10.437  0.0175  0.0767 -0.0485
  360loPI   C2B 5758  11.832  14.506   9.963  0.4469  0.0543  0.3007
  360loPI   C3B 5759  11.790  14.437   9.404  0.0873  0.1289 -0.0220
  360loPI   C4B 5760  11.671  14.609   9.019  0.3775 -0.1955  0.0473
  361loPI    C1 5761  15.321  15.590  11.796 -0.0211  0.1682 -0.0101
  361loPI    C2 5762  15.677  15.422  11.869 -0.1124 -0.0001  0.0524
  361loPI    C3 5763  15.616  15.807  11.958  0.0756  0.0485 -0.0245
  361loPI   PO4 5764  15.279  15.560  11.590  0.2988  0.1327 -0.1064
  361loPI   GL1 5765  15.286  15.583  11.277 -0.0543 -0.1072  0.1378
  361loPI   GL2 5766  15.311  15.889  11.193 -0.0272  0.1999 -0.1781
  361loPI   C1A 5767  15.638  15.434  11.005 -0.0621  0.2007  0.0694
  361loPI   C2A 5768  15.667  15.426  10.522  0.2111 -0.2475  0.0271
  361loPI   C3A 5769  15.696  15.480  10.069  0.3963 -0.1455  0.2001
  361loPI   C4A 5770  15.721  15.510   9.733 -0.2470 -0.1523 -0.1070
  361loPI   C5A 5771  15.808  15.435   9.286  0.2709 -0.0209 -0.0365
  361loPI   C6A 5772  15.654  15.714   8.998  0.1698  0.2499  0.1057
  361loPI   C1B 5773  15.302  15.761  10.746 -0.1476  0.1143  0.0388
  361loPI   C2B 5774  15.321  15.733  10.294 -0.2644 -0.3249 -0.1723
  361loPI   C3B 5775  15.356  15.855   9.874  0.0967  0.0710  0.2147
  361loPI   C4B 5776  15.408  15.937   9.361  0.1872  0.1241 -0.0656
  362loPI    C1 5777  16.295   1.318  12.124 -0.0737 -0.0073 -0.0321
  362loPI    C2 5778  16.634   1.376  12.329 -0.0353 -0.1075 -0.0665
  362loPI    C3 5779  16.280   1.447  12.502  0.0126  0.4052 -0.1636
  362loPI   PO4 5780  16.375   1.469  11.867  0.0874  0.2323 -0.1538
  362loPI   GL1 5781  16.435   1.373  11.339  0.0532  0.2714  0.0093
  362loPI   GL2 5782  16.187   1.583  11.339  0.1575 -0.0100 -0.0915
  362loPI   C1A 5783  16.628   1.145  11.106  0.0925  0.0322  0.1301
  362loPI   C2A 5784  16.669   1.119  10.685 -0.3035 -0.1679  0.1494
  362loPI   C3A 5785  16.524   1.186  10.220  0.0526 -0.3676  0.3108
  362loPI   C4A 5786  16.506   1.168   9.779  0.0409 -0.2493 -0.0162
  362loPI   C5A 5787  16.379   0.971   9.452 -0.2507  0.2429  0.3292
  362loPI   C6A 5788  16.384   0.705   9.117 -0.4936  0.0154  0.0679
  362loPI   C1B 5789  16.247   1.501  10.888 -0.1297 -0.0781  0.0953
  362loPI   C2B 5790  16.161   1.482  10.429 -0.3106 -0.0503 -0.0703
  362loPI   C3B 5791  16.098   1.463   9.933 -0.1247  0.1744  0.0452
  362loPI   C4B 5792  16.088   1.362   9.475 -0.1137  0.3061 -0.0607
  363loPI    C1 5793  16.331   4.397  11.970  0.1924 -0.1284 -0.1647
  363loPI    C2 5794  16.436   4.481  12.347 -0.0632 -0.1001 -0.0982
  363loPI    C3 5795  16.515   4.742  12.054 -0.0528 -0.0277 -0.0313
  363loPI   PO4 5796  16.439   4.223  11.848 -0.0229 -0.0143  0.2871
  363loPI   GL1 5797  16.409   4.112  11.529  0.3506  0.0063  0.0890
  363loPI   GL2 5798  16.296   4.403  11.371 -0.0435  0.2503  0.0171
  363loPI   C1A 5799  16.637   4.066  11.125 -0.0749 -0.0417  0.1191
  363loPI   C2A 5800  16.588   3.942  10.689  0.3043 -0.0946 -0.0925
  363loPI   C3A 5801  16.574   4.072  10.244 -0.1590 -0.1059 -0.0149
  363loPI   C4A 5802  16.667   4.097   9.913  0.0975 -0.1021  0.0583
  363loPI   C5A 5803  16.703   4.005   9.476 -0.0046  0.1336 -0.0083
  363loPI   C6A 5804  17.064   4.150   9.209  0.0433  0.1110 -0.0682
  363loPI   C1B 5805  16.304   4.482  10.933  0.0910  0.0091  0.2178
  363loPI   C2B 5806  16.227   4.369  10.556 -0.0063  0.1505 -0.0482
  363loPI   C3B 5807  16.228   4.387  10.056  0.0703  0.1400  0.3274
  363loPI   C4B 5808  16.239   4.450   9.574  0.0285  0.0631  0.1296
  364loPI    C1 5809   5.693  15.997  11.770 -0.0608 -0.0616  0.3261
  364loPI    C2 5810   5.759  16.271  12.053 -0.0633  0.0168  0.2510
  364loPI    C3 5811   5.498  15.975  12.119  0.0492 -0.0529  0.3885
  364loPI   PO4 5812   5.603  16.132  11.493  0.0907 -0.0241 -0.0206
  364loPI   GL1 5813   5.434  16.164  11.133  0.0313 -0.1621  0.2007
  364loPI   GL2 5814   5.527  15.792  10.972  0.0913 -0.3876  0.0871
  364loPI   C1A 5815   5.457  16.225  10.689 -0.2116 -0.1435 -0.0009
  364loPI   C2A 5816   5.498  16.241  10.291  0.2662 -0.0192 -0.2032
  364loPI   C3A 5817   5.475  16.127   9.801 -0.0115  0.1982 -0.1753
  364loPI   C4A 5818   5.449  16.109   9.392 -0.0458  0.1791 -0.0524
  364loPI   C5A 5819   5.396  16.419   9.082 -0.2529 -0.0889 -0.3485
  364loPI   C6A 5820   5.447  16.806   8.880 -0.2281 -0.0159  0.0643
  364loPI   C1B 5821   5.317  15.709  10.583  0.1195  0.1392  0.0234
  364loPI   C2B 5822   5.354  15.655  10.147  0.3069 -0.1645  0.4002
  364loPI   C3B 5823   5.351  15.661   9.736 -0.1294 -0.0733  0.0904
  364loPI   C4B 5824   5.344  15.589   9.308 -0.2191 -0.0044  0.2981
  365loPI    C1 5825  14.686   1.096  12.022  0.2252 -0.0159 -0.0396
  365loPI    C2 5826  14.822   0.816  12.273 -0.0771 -0.2363 -0.1159
  365loPI    C3 5827  14.551   1.082  12.398  0.1239 -0.0467 -0.0768
  365loPI   PO4 5828  14.741   1.017  11.784 -0.1826 -0.2205  0.4442
  365loPI   GL1 5829  14.740   1.103  11.352  0.1083  0.1400  0.1456
  365loPI   GL2 5830  14.901   1.479  11.383  0.4854 -0.0285 -0.1249
  365loPI   C1A 5831  14.684   0.916  10.949 -0.1613  0.1719 -0.1278
  365loPI   C2A 5832  14.731   0.896  10.563  0.0645 -0.0620  0.0724
  365loPI   C3A 5833  14.671   0.900  10.204  0.3358  0.3080 -0.0251
  365loPI   C4A 5834  14.806   0.908   9.730  0.1198 -0.1696  0.0295
  365loPI   C5A 5835  15.162   0.908   9.503  0.1028  0.3283 -0.2771
  365loPI   C6A 5836  15.329   1.085   9.145  0.0562  0.0316  0.0475
  365loPI   C1B 5837  14.761   1.424  10.962 -0.0130 -0.0162  0.1323
  365loPI   C2B 5838  14.800   1.494  10.515 -0.0207 -0.0655 -0.1262
  365loPI   C3B 5839  14.861   1.461  10.075 -0.3456  0.0485 -0.1650
  365loPI   C4B 5840  14.713   1.474   9.648 -0.0781  0.1118 -0.1569
  366loPI    C1 5841  12.467  12.329  11.286  0.1777  0.0961 -0.0434
  366loPI    C2 5842  12.659  12.218  11.620  0.2132  0.0183 -0.0893
  366loPI    C3 5843  12.377  12.502  11.636 -0.0287 -0.2255  0.0669
  366loPI   PO4 5844  12.620  12.433  11.136 -0.0172 -0.5693 -0.2640
  366loPI   GL1 5845  12.681  12.378  10.665  0.0318 -0.0194  0.1204
  366loPI   GL2 5846  12.552  12.071  10.650  0.0681  0.1800 -0.1189
  366loPI   C1A 5847  12.583  12.458  10.297 -0.0049 -0.1321 -0.0377
  366loPI   C2A 5848  12.640  12.388   9.830 -0.0379 -0.1218  0.0691
  366loPI   C3A 5849  12.899  12.442   9.517 -0.2687 -0.0248 -0.3041
  366loPI   C4A 5850  12.886  12.454   9.043  0.2528  0.2264  0.0129
  366loPI   C5A 5851  12.993  12.843   8.779 -0.0428 -0.0855 -0.0411
  366loPI   C6A 5852  13.278  13.040   8.559  0.1273  0.0950 -0.2349
  366loPI   C1B 5853  12.586  11.992  10.176 -0.1446 -0.0797 -0.2325
  366loPI   C2B 5854  12.678  11.916   9.708 -0.2283 -0.1289  0.0511
  366loPI   C3B 5855  12.901  11.864   9.354 -0.4293 -0.1779 -0.3928
  366loPI   C4B 5856  12.998  11.992   8.880  0.2188 -0.2318  0.3288
  367loPI    C1 5857  13.714  16.084  11.718  0.1733  0.1439  0.1450
  367loPI    C2 5858  13.591  15.801  11.972  0.1832 -0.0541 -0.0677
  367loPI    C3 5859  13.326  15.994  11.743  0.1539  0.2433  0.2094
  367loPI   PO4 5860  13.855  16.015  11.541 -0.1075  0.0408 -0.2007
  367loPI   GL1 5861  13.768  15.876  11.148 -0.2377 -0.1304 -0.0112
  367loPI   GL2 5862  13.783  15.475  11.119 -0.0095  0.2795 -0.2462
  367loPI   C1A 5863  13.864  15.896  10.693 -0.0638 -0.0412 -0.0795
  367loPI   C2A 5864  13.994  15.784  10.264 -0.0216 -0.0952  0.0567
  367loPI   C3A 5865  13.982  15.753   9.756 -0.0352 -0.2451 -0.2903
  367loPI   C4A 5866  14.021  15.676   9.348 -0.0459 -0.1833  0.2342
  367loPI   C5A 5867  14.302  15.705   8.949  0.0509  0.1878  0.2830
  367loPI   C6A 5868  14.571  15.987   8.700  0.3882  0.3349 -0.1999
  367loPI   C1B 5869  13.826  15.448  10.726  0.3117 -0.0433 -0.0074
  367loPI   C2B 5870  13.860  15.285  10.221  0.4721  0.3018 -0.0822
  367loPI   C3B 5871  13.892  15.250   9.819 -0.0732 -0.2837 -0.2071
  367loPI   C4B 5872  13.860  15.163   9.431  0.1195  0.2995  0.3909
  368loPI    C1 5873  12.913  16.506  11.568  0.3046 -0.3011 -0.1071
  368loPI    C2 5874  13.090  16.783  11.797  0.1380 -0.1994 -0.1002
  368loPI    C3 5875  12.702  16.698  11.849  0.0527 -0.0508 -0.4584
  368loPI   PO4 5876  13.156  16.391  11.475 -0.1171  0.1516  0.0162
  368loPI   GL1 5877  13.251  16.076  11.234  0.1354 -0.1207 -0.0949
  368loPI   GL2 5878  13.281  15.793  11.217 -0.1084  0.0409 -0.3498
  368loPI   C1A 5879  13.383  16.111  10.808 -0.2626  0.3120  0.0342
  368loPI   C2A 5880  13.600  16.114  10.348 -0.1508  0.0899 -0.1581
  368loPI   C3A 5881  13.612  16.070   9.885 -0.2264 -0.1156 -0.3261
  368loPI   C4A 5882  13.650  16.007   9.448  0.1270 -0.2028 -0.2360
  368loPI   C5A 5883  13.575  15.879   9.118 -0.2208  0.2740 -0.0505
  368loPI   C6A 5884  13.751  15.493   8.759  0.1444 -0.0128 -0.0292
  368loPI   C1B 5885  13.372  15.607  10.868  0.0384 -0.0592 -0.1414
  368loPI   C2B 5886  13.511  15.592  10.380  0.2689  0.0404  0.2127
  368loPI   C3B 5887  13.539  15.597   9.990 -0.2306  0.2949  0.3536
  368loPI   C4B 5888  13.546  15.515   9.492 -0.1507 -0.0176 -0.2544
  369loPI    C1 5889   6.505  14.525  11.999  0.1977  0.0349  0.0336
  369loPI    C2 5890   6.355  14.186  12.148  0.0983  0.0355 -0.0641
  369loPI    C3 5891   6.625  14.393  12.357 -0.0802  0.0657  0.1404
  369loPI   PO4 5892   6.380  14.505  11.714  0.0835 -0.2780 -0.0442
  369loPI   GL1 5893   6.425  14.449  11.243  0.2704 -0.4056  0.4404
  369loPI   GL2 5894   6.088  14.357  11.092 -0.0836 -0.1290  0.0266
  369loPI   C1A 5895   6.474  14.597  10.827  0.1492 -0.0311 -0.2124
  369loPI   C2A 5896   6.494  14.656  10.459 -0.1453  0.0615  0.2593
  369loPI   C3A 5897   6.507  14.682  10.009  0.0767  0.2436 -0.1557
  369loPI   C4A 5898   6.551  14.653   9.618 -0.1901 -0.1362  0.2835
  369loPI   C5A 5899   6.677  14.616   9.224  0.2071  0.1535  0.2805
  369loPI   C6A 5900   6.827  14.669   8.699 -0.0428  0.1785 -0.1155
  369loPI   C1B 5901   6.052  14.466  10.614 -0.0626  0.1836  0.0311
  369loPI   C2B 5902   6.037  14.508  10.116 -0.1151  0.1968 -0.4341
  369loPI   C3B 5903   6.094  14.481   9.674 -0.0680 -0.0611  0.0101
  369loPI   C4B 5904   6.200  14.470   9.193 -0.0555  0.0023 -0.0998
  370loPI    C1 5905  15.288   8.283  11.544 -0.0524 -0.1577 -0.1183
  370loPI    C2 5906  14.937   8.441  11.434 -0.0043 -0.1181 -0.2160
  370loPI    C3 5907  14.965   8.231  11.773  0.0361  0.5036  0.1809
  370loPI   PO4 5908  15.360   8.235  11.302 -0.2492 -0.0192  0.0445
  370loPI   GL1 5909  15.308   8.502  11.020 -0.0082  0.0780  0.2146
  370loPI   GL2 5910  15.039   8.564  10.892  0.1324  0.1553 -0.2398
  370loPI   C1A 5911  15.505   8.452  10.622 -0.0571  0.1425  0.3162
  370loPI   C2A 5912  15.556   8.523  10.230  0.1023 -0.0953 -0.0791
  370loPI   C3A 5913  15.535   8.523   9.812 -0.1688  0.1665  0.2462
  370loPI   C4A 5914  15.451   8.409   9.380  0.1054  0.3677  0.1930
  370loPI   C5A 5915  15.421   8.377   8.970  0.0196 -0.1869  0.1866
  370loPI   C6A 5916  15.583   8.045   8.764  0.5394 -0.3022 -0.1544
  370loPI   C1B 5917  15.104   8.603  10.441 -0.2914  0.0370  0.2405
  370loPI   C2B 5918  15.066   8.696   9.952 -0.0591 -0.1860  0.0347
  370loPI   C3B 5919  15.100   8.713   9.531  0.0929  0.0397 -0.0552
  370loPI   C4B 5920  15.215   8.978   9.186 -0.3394 -0.0401 -0.0551
  371loPI    C1 5921   9.793  14.519  11.586 -0.3968 -0.0036  0.1729
  371loPI    C2 5922   9.841  14.916  11.563  0.1800 -0.0681  0.1248
  371loPI    C3 5923   9.716  14.749  11.905 -0.0303  0.1483  0.1564
  371loPI   PO4 5924   9.702  14.488  11.314  0.0314  0.0661  0.0099
  371loPI   GL1 5925   9.492  14.677  10.920 -0.1426  0.1327 -0.0957
  371loPI   GL2 5926   9.245  14.824  10.874 -0.0556  0.1927 -0.2553
  371loPI   C1A 5927   9.739  14.432  10.521  0.1518  0.2015 -0.0711
  371loPI   C2A 5928   9.769  14.422  10.113  0.0177  0.1269 -0.0936
  371loPI   C3A 5929   9.776  14.400   9.664 -0.1735  0.1092  0.1516
  371loPI   C4A 5930   9.768  14.432   9.216  0.0036  0.4443 -0.0418
  371loPI   C5A 5931   9.648  14.388   8.779  0.1131  0.0840  0.1438
  371loPI   C6A 5932   9.414  14.234   8.477 -0.1379  0.1415 -0.1639
  371loPI   C1B 5933   9.380  14.729  10.389 -0.2021 -0.4302 -0.0510
  371loPI   C2B 5934   9.424  14.762   9.972 -0.0909  0.2024  0.0628
  371loPI   C3B 5935   9.409  14.755   9.528 -0.0431  0.0021 -0.0731
  371loPI   C4B 5936   9.309  14.899   9.102  0.0881 -0.0745  0.2099
  372loPI    C1 5937   3.318   5.984  11.970 -0.0361 -0.0676 -0.2871
  372loPI    C2 5938   3.107   5.811  12.262  0.1085 -0.0019 -0.1426
  372loPI    C3 5939   3.478   5.685  12.181  0.1016  0.0391 -0.2388
  372loPI   PO4 5940   3.224   5.948  11.768  0.0167  0.4167  0.1143
  372loPI   GL1 5941   3.216   5.620  11.403  0.0581 -0.1255  0.2412
  372loPI   GL2 5942   3.537   5.731  11.332 -0.0341  0.1122  0.0005
  372loPI   C1A 5943   2.988   5.399  11.007 -0.0168 -0.0232 -0.1531
  372loPI   C2A 5944   2.875   5.305  10.576  0.0484  0.1624 -0.2471
  372loPI   C3A 5945   2.864   5.349  10.174 -0.0779  0.0181  0.0662
  372loPI   C4A 5946   2.896   5.265   9.798  0.2256 -0.0705  0.1302
  372loPI   C5A 5947   2.803   5.410   9.454  0.1160 -0.0182  0.1846
  372loPI   C6A 5948   2.651   5.610   9.154 -0.0692  0.3969 -0.1422
  372loPI   C1B 5949   3.423   5.600  10.887  0.1667 -0.1807  0.0298
  372loPI   C2B 5950   3.322   5.518  10.463 -0.0367 -0.0494  0.1402
  372loPI   C3B 5951   3.387   5.459  10.094  0.0534 -0.4469 -0.1096
  372loPI   C4B 5952   3.428   5.490   9.661  0.1257 -0.2595 -0.0490
  373loPI    C1 5953   7.979   1.276  11.573 -0.2093 -0.2890 -0.0272
  373loPI    C2 5954   7.718   1.453  11.819 -0.1213 -0.3305  0.0975
  373loPI    C3 5955   8.108   1.450  11.910 -0.0649 -0.1936 -0.1306
  373loPI   PO4 5956   7.843   1.294  11.350 -0.1676  0.3941 -0.1221
  373loPI   GL1 5957   7.631   1.301  10.949  0.1477 -0.0854 -0.0296
  373loPI   GL2 5958   7.277   1.530  10.989 -0.2824 -0.0061  0.2492
  373loPI   C1A 5959   7.480   1.206  10.450 -0.3398 -0.1310  0.0662
  373loPI   C2A 5960   7.254   1.141  10.134  0.1902 -0.3809 -0.0596
  373loPI   C3A 5961   7.194   1.065   9.741  0.0035 -0.0123 -0.0644
  373loPI   C4A 5962   7.046   1.142   9.321 -0.0223 -0.2364  0.3429
  373loPI   C5A 5963   6.959   1.192   8.892  0.2023 -0.0361  0.4223
  373loPI   C6A 5964   7.132   0.968   8.529  0.3442  0.1131  0.1350
  373loPI   C1B 5965   7.253   1.612  10.504  0.0928  0.2893  0.0219
  373loPI   C2B 5966   7.286   1.631  10.070  0.0927  0.0006 -0.2007
  373loPI   C3B 5967   7.177   1.582   9.617  0.2299 -0.2828  0.1067
  373loPI   C4B 5968   7.061   1.637   9.125  0.1266  0.2342  0.0677
  374loPI    C1 5969   2.407   9.308  11.563 -0.0766 -0.2155  0.1600
  374loPI    C2 5970   2.671   9.450  11.828  0.0444  0.0177 -0.0810
  374loPI    C3 5971   2.280   9.512  11.883  0.0506 -0.1566  0.1738
  374loPI   PO4 5972   2.471   9.414  11.361 -0.0381  0.2007  0.1813
  374loPI   GL1 5973   2.584   9.046  11.095 -0.0834 -0.0404  0.1784
  374loPI   GL2 5974   2.903   9.002  10.976 -0.1533  0.1644  0.1823
  374loPI   C1A 5975   2.542   9.186  10.627 -0.1854  0.1208  0.1318
  374loPI   C2A 5976   2.605   9.187  10.121 -0.0800 -0.1079  0.0846
  374loPI   C3A 5977   2.732   9.101   9.655 -0.1452 -0.0547 -0.0527
  374loPI   C4A 5978   2.665   9.165   9.333 -0.0033 -0.1243  0.1997
  374loPI   C5A 5979   2.389   8.938   9.053 -0.1469 -0.3413 -0.3608
  374loPI   C6A 5980   2.084   8.665   9.010 -0.0197  0.0024  0.1206
  374loPI   C1B 5981   2.955   8.873  10.563  0.0846 -0.3223  0.3609
  374loPI   C2B 5982   2.966   8.863  10.159  0.1470  0.1228  0.0858
  374loPI   C3B 5983   3.104   8.799   9.739  0.0773 -0.2530  0.0852
  374loPI   C4B 5984   3.035   8.638   9.394 -0.1745  0.0690  0.0297
  375loPI    C1 5985   8.804   1.851  11.424 -0.0092 -0.0465 -0.0201
  375loPI    C2 5986   9.140   2.051  11.340 -0.0395  0.0194  0.0153
  375loPI    C3 5987   9.023   2.008  11.720 -0.0341 -0.0643  0.0078
  375loPI   PO4 5988   8.567   2.017  11.282 -0.1047  0.0045 -0.2382
  375loPI   GL1 5989   8.423   2.020  10.812  0.1163 -0.0868  0.0914
  375loPI   GL2 5990   8.437   2.366  10.806 -0.0607  0.0430  0.0879
  375loPI   C1A 5991   8.769   1.908  10.484 -0.3694 -0.1895 -0.3296
  375loPI   C2A 5992   8.807   2.111  10.085  0.1801  0.0967 -0.0460
  375loPI   C3A 5993   8.919   2.132   9.702 -0.2067 -0.1875  0.1039
  375loPI   C4A 5994   8.871   2.170   9.270 -0.2085 -0.3056  0.0454
  375loPI   C5A 5995   8.989   2.303   8.851 -0.1954 -0.0979 -0.2326
  375loPI   C6A 5996   9.246   2.683   8.719 -0.1619  0.2360  0.1044
  375loPI   C1B 5997   8.491   2.324  10.408 -0.1154 -0.1060  0.1604
  375loPI   C2B 5998   8.403   2.469   9.963  0.2413 -0.1693 -0.1472
  375loPI   C3B 5999   8.473   2.474   9.510 -0.3191  0.2945 -0.0465
  375loPI   C4B 6000   8.596   2.550   9.106  0.2081 -0.0918  0.2530
  376loPI    C1 6001   8.093   0.057  11.301  0.1383 -0.1857  0.1080
  376loPI    C2 6002   8.303   0.392  11.239  0.1160 -0.1609  0.1659
  376loPI    C3 6003   8.096   0.346  11.578 -0.0458 -0.1462  0.0699
  376loPI   PO4 6004   7.999  -0.023  11.081 -0.0018 -0.1600  0.0019
  376loPI   GL1 6005   7.684   0.058  10.767  0.2621 -0.0242 -0.0627
  376loPI   GL2 6006   7.882   0.311  10.675 -0.1380  0.1566  0.0811
  376loPI   C1A 6007   7.444   0.214  10.455  0.5419  0.1126  0.1599
  376loPI   C2A 6008   7.474   0.150  10.039 -0.1901 -0.0309  0.1152
  376loPI   C3A 6009   7.562   0.262   9.624  0.1111  0.0881 -0.0360
  376loPI   C4A 6010   7.502   0.405   9.178  0.2046  0.0957 -0.0613
  376loPI   C5A 6011   7.466   0.697   8.893  0.0224 -0.1597 -0.2946
  376loPI   C6A 6012   7.794   0.903   8.762  0.1376 -0.2118  0.0392
  376loPI   C1B 6013   7.999   0.320  10.256 -0.2400  0.2553  0.1908
  376loPI   C2B 6014   7.961   0.341   9.877 -0.5713  0.0461 -0.4676
  376loPI   C3B 6015   8.005   0.423   9.480 -0.3791  0.0647  0.1279
  376loPI   C4B 6016   8.049   0.603   9.042 -0.0960 -0.2578 -0.2209
  377loPI    C1 6017  17.073   5.927  11.566  0.0819 -0.0599  0.0714
  377loPI    C2 6018  16.751   5.765  11.739  0.1229 -0.1653  0.0503
  377loPI    C3 6019  16.731   6.133  11.582  0.1143 -0.0246  0.3719
  377loPI   PO4 6020  17.266   5.725  11.602  0.0735  0.1700 -0.0545
  377loPI   GL1 6021  17.568   5.704  11.400  0.0693 -0.1319  0.2569
  377loPI   GL2 6022  17.366   6.017  11.211  0.1709  0.4478 -0.4145
  377loPI   C1A 6023  17.661   5.577  11.007  0.1202  0.1524  0.0199
  377loPI   C2A 6024  17.629   5.582  10.507 -0.0495 -0.0462  0.2472
  377loPI   C3A 6025  17.773   5.391  10.142 -0.0172 -0.0538 -0.1445
  377loPI   C4A 6026  17.764   5.394   9.743  0.0929  0.1814  0.1629
  377loPI   C5A 6027  17.964   5.478   9.533  0.0116 -0.0338  0.2987
  377loPI   C6A 6028  18.069   5.354   9.113  0.1749  0.1208 -0.0465
  377loPI   C1B 6029  17.307   5.916  10.746  0.1875  0.0253 -0.3284
  377loPI   C2B 6030  17.308   5.902  10.329 -0.0282 -0.0560  0.0514
  377loPI   C3B 6031  17.445   5.744   9.957  0.1620  0.1654  0.2319
  377loPI   C4B 6032  17.476   5.715   9.451 -0.1288 -0.0464  0.0896
  378loPI    C1 6033   4.052  12.116  11.929  0.1756  0.2090 -0.0848
  378loPI    C2 6034   4.001  11.723  11.877  0.0381  0.1789  0.2485
  378loPI    C3 6035   4.026  11.874  12.246  0.1363  0.4793  0.1227
  378loPI   PO4 6036   4.062  12.215  11.689  0.1579 -0.1016  0.0220
  378loPI   GL1 6037   3.808  12.340  11.297  0.0724 -0.2178 -0.3617
  378loPI   GL2 6038   3.544  12.379  11.156 -0.1844 -0.1983  0.1025
  378loPI   C1A 6039   3.891  12.126  10.882 -0.1286 -0.1082 -0.0032
  378loPI   C2A 6040   3.871  12.183  10.400  0.0298  0.2582  0.0311
  378loPI   C3A 6041   3.777  12.155   9.909  0.0295 -0.0349 -0.1393
  378loPI   C4A 6042   3.739  12.105   9.333 -0.0442 -0.3568 -0.2189
  378loPI   C5A 6043   3.808  11.855   8.978  0.2678  0.0127 -0.0782
  378loPI   C6A 6044   3.823  11.473   8.934  0.4419  0.1814 -0.0072
  378loPI   C1B 6045   3.594  12.544  10.650 -0.0118  0.1825  0.1430
  378loPI   C2B 6046   3.486  12.475  10.237 -0.3026  0.1425  0.1479
  378loPI   C3B 6047   3.434  12.503   9.872 -0.3230 -0.2264 -0.3788
  378loPI   C4B 6048   3.378  12.536   9.439 -0.2189  0.0642 -0.0307
  379loPI    C1 6049   1.154  10.375  11.833 -0.0188 -0.2536 -0.0612
  379loPI    C2 6050   0.982  10.114  12.083 -0.2515  0.0410  0.0935
  379loPI    C3 6051   1.375  10.185  12.106 -0.1999 -0.2351  0.1003
  379loPI   PO4 6052   1.122  10.411  11.624  0.1023  0.0850 -0.3467
  379loPI   GL1 6053   1.312  10.492  11.324 -0.1493 -0.2687  0.0057
  379loPI   GL2 6054   1.056  10.743  11.233  0.4063  0.1269  0.2259
  379loPI   C1A 6055   1.402  10.568  10.903  0.2207  0.3526  0.2223
  379loPI   C2A 6056   1.423  10.723  10.502 -0.2004  0.1477 -0.0234
  379loPI   C3A 6057   1.398  10.727  10.067 -0.1485 -0.0366 -0.1396
  379loPI   C4A 6058   1.467  10.876   9.709 -0.1696  0.1908  0.2522
  379loPI   C5A 6059   1.392  10.919   9.333 -0.1815 -0.0710 -0.0255
  379loPI   C6A 6060   1.535  11.001   8.834 -0.2221  0.0110  0.0482
  379loPI   C1B 6061   1.032  10.906  10.747  0.1559 -0.2609  0.0592
  379loPI   C2B 6062   0.987  10.971  10.287 -0.0381  0.0037 -0.1725
  379loPI   C3B 6063   1.015  11.122   9.852  0.2085  0.2774  0.0658
  379loPI   C4B 6064   0.953  11.199   9.368 -0.0652  0.2589 -0.1761
  380loPI    C1 6065   5.816   1.346  11.814 -0.1397 -0.1562  0.0601
  380loPI    C2 6066   5.694   1.548  12.137 -0.3959 -0.3694  0.0991
  380loPI    C3 6067   5.634   1.153  12.113 -0.0523 -0.4157 -0.0514
  380loPI   PO4 6068   5.799   1.539  11.662 -0.2382 -0.0021  0.0904
  380loPI   GL1 6069   6.061   1.577  11.247  0.1359  0.0744  0.1773
  380loPI   GL2 6070   5.948   1.335  10.953  0.0496  0.0101  0.4656
  380loPI   C1A 6071   6.246   1.777  10.963  0.2008  0.1808 -0.3209
  380loPI   C2A 6072   6.257   1.846  10.562  0.0388 -0.3038 -0.1764
  380loPI   C3A 6073   6.386   1.752  10.247  0.0735  0.2217 -0.0266
  380loPI   C4A 6074   6.366   1.767   9.803  0.0484  0.0327 -0.0077
  380loPI   C5A 6075   6.270   1.639   9.403 -0.0974  0.2573  0.1120
  380loPI   C6A 6076   5.972   1.817   9.140  0.0649 -0.0114  0.3719
  380loPI   C1B 6077   5.885   1.431  10.451 -0.1402 -0.1471  0.0846
  380loPI   C2B 6078   5.913   1.595  10.057  0.0605 -0.0134  0.0679
  380loPI   C3B 6079   5.867   1.625   9.714 -0.1878 -0.3123  0.0857
  380loPI   C4B 6080   5.831   1.387   9.287  0.1796 -0.1275  0.1251
  381loPI    C1 6081  11.506  12.751  11.492 -0.1277  0.0483 -0.1121
  381loPI    C2 6082  11.569  13.146  11.488 -0.0479  0.0359 -0.1072
  381loPI    C3 6083  11.302  12.989  11.741 -0.0262  0.0789 -0.0575
  381loPI   PO4 6084  11.590  12.740  11.252 -0.2244 -0.0281  0.0220
  381loPI   GL1 6085  11.531  13.023  10.919 -0.1302  0.1221  0.2875
  381loPI   GL2 6086  11.820  12.758  10.708  0.0770  0.1642  0.1135
  381loPI   C1A 6087  11.445  13.007  10.465 -0.3819 -0.0075 -0.4696
  381loPI   C2A 6088  11.364  12.913  10.045  0.1087 -0.2272 -0.2772
  381loPI   C3A 6089  11.293  13.011   9.676 -0.1738 -0.0725  0.1772
  381loPI   C4A 6090  11.382  12.907   9.391  0.1951  0.0902  0.0175
  381loPI   C5A 6091  11.312  12.877   8.932 -0.3609  0.1751  0.0336
  381loPI   C6A 6092  11.126  12.565   8.703  0.1154  0.4297 -0.0067
  381loPI   C1B 6093  11.733  12.674  10.242 -0.0491 -0.0090  0.2042
  381loPI   C2B 6094  11.772  12.677   9.762 -0.2681 -0.0363  0.1452
  381loPI   C3B 6095  11.756  12.537   9.301 -0.1890  0.0855  0.3814
  381loPI   C4B 6096  11.784  12.704   8.944  0.4439 -0.2384  0.2624
  382loPI    C1 6097  12.633   6.187  11.819 -0.0989  0.3782  0.0483
  382loPI    C2 6098  12.369   6.317  12.089  0.0057  0.1853  0.2468
  382loPI    C3 6099  12.746   6.449  12.099  0.0407  0.0842  0.2730
  382loPI   PO4 6100  12.405   6.150  11.605  0.0714  0.0444  0.1347
  382loPI   GL1 6101  12.268   6.223  11.126 -0.1619 -0.3972 -0.1884
  382loPI   GL2 6102  11.952   6.223  10.959 -0.2226  0.2090  0.1595
  382loPI   C1A 6103  12.386   6.390  10.743  0.0807 -0.0627  0.0791
  382loPI   C2A 6104  12.264   6.335  10.326 -0.1883  0.0433 -0.1890
  382loPI   C3A 6105  12.306   6.206   9.987 -0.0792  0.2092 -0.1964
  382loPI   C4A 6106  12.344   6.177   9.535  0.1328 -0.3611  0.1073
  382loPI   C5A 6107  12.290   6.033   9.155 -0.2392 -0.0557 -0.0367
  382loPI   C6A 6108  12.635   6.165   8.877 -0.0073 -0.1149 -0.5841
  382loPI   C1B 6109  11.840   6.080  10.535  0.0846 -0.1996 -0.3238
  382loPI   C2B 6110  11.860   6.074  10.050  0.2447 -0.1404  0.0080
  382loPI   C3B 6111  11.883   5.904   9.622 -0.0342 -0.2057 -0.0802
  382loPI   C4B 6112  11.823   5.831   9.173  0.0108 -0.1016  0.2500
  383loPI    C1 6113   0.827  16.222  12.272  0.0590  0.0486  0.2329
  383loPI    C2 6114   0.501  16.103  12.469 -0.1013  0.1354  0.0233
  383loPI    C3 6115   0.850  15.920  12.533 -0.1832  0.0617  0.2716
  383loPI   PO4 6116   0.892  16.116  12.011 -0.0299  0.2476 -0.1829
  383loPI   GL1 6117   0.787  15.933  11.580  0.1848 -0.1318  0.0956
  383loPI   GL2 6118   0.949  15.627  11.657 -0.2135  0.4662 -0.0060
  383loPI   C1A 6119   0.768  16.058  11.146 -0.1184 -0.0305  0.3587
  383loPI   C2A 6120   0.817  15.935  10.762 -0.1789 -0.0177 -0.1181
  383loPI   C3A 6121   0.813  15.919  10.297  0.0167  0.0214 -0.0523
  383loPI   C4A 6122   0.779  15.975   9.911 -0.1336 -0.1088  0.1497
  383loPI   C5A 6123   0.732  15.832   9.506 -0.2570 -0.2615 -0.0043
  383loPI   C6A 6124   0.928  15.548   9.156 -0.2110 -0.2932 -0.0071
  383loPI   C1B 6125   1.038  15.621  11.127 -0.0301 -0.1177 -0.0457
  383loPI   C2B 6126   1.190  15.484  10.686 -0.1870 -0.1177 -0.1791
  383loPI   C3B 6127   1.182  15.580  10.305  0.0100 -0.0636  0.1344
  383loPI   C4B 6128   1.236  15.664   9.840  0.3706  0.0098 -0.3739
  384loPI    C1 6129   5.003   4.216  12.142  0.1300 -0.0065 -0.1069
  384loPI    C2 6130   4.792   4.548  12.070  0.0350 -0.0437 -0.0031
  384loPI    C3 6131   4.843   4.421  12.446 -0.0023 -0.1943 -0.0484
  384loPI   PO4 6132   5.049   4.165  11.899 -0.0907  0.0156 -0.0513
  384loPI   GL1 6133   4.828   4.038  11.475 -0.0021 -0.2589 -0.1830
  384loPI   GL2 6134   4.538   4.131  11.415  0.1446 -0.1260 -0.1748
  384loPI   C1A 6135   5.002   4.357  11.171  0.0331  0.0201 -0.2452
  384loPI   C2A 6136   4.980   4.365  10.773  0.2435  0.0856 -0.0400
  384loPI   C3A 6137   4.948   4.276  10.299  0.2155  0.1011  0.0083
  384loPI   C4A 6138   4.976   4.096   9.907  0.0041  0.1989 -0.1714
  384loPI   C5A 6139   4.889   3.940   9.471  0.1883  0.1416 -0.2654
  384loPI   C6A 6140   4.557   3.896   9.205  0.1762 -0.1080 -0.0456
  384loPI   C1B 6141   4.587   4.121  11.003  0.0192 -0.0485 -0.0365
  384loPI   C2B 6142   4.558   4.116  10.586  0.1715 -0.1296  0.1944
  384loPI   C3B 6143   4.365   4.076  10.166 -0.0798  0.0340  0.0057
  384loPI   C4B 6144   4.342   4.030   9.640 -0.3503 -0.1297  0.1195
  385loPI    C1 6145   6.297   3.602  11.896  0.1778 -0.1615 -0.1610
  385loPI    C2 6146   6.287   3.400  12.241 -0.1454 -0.1161 -0.1401
  385loPI    C3 6147   6.492   3.743  12.216  0.1211 -0.2675 -0.0788
  385loPI   PO4 6148   6.379   3.499  11.716  0.3984 -0.3572 -0.0280
  385loPI   GL1 6149   6.249   3.202  11.476 -0.1309  0.0717  0.1032
  385loPI   GL2 6150   6.517   3.182  11.277  0.0115 -0.1030 -0.4695
  385loPI   C1A 6151   5.872   3.043  11.114  0.0103  0.1117  0.0924
  385loPI   C2A 6152   5.637   3.041  10.730 -0.3897  0.1283  0.2661
  385loPI   C3A 6153   5.629   3.053  10.257  0.0035 -0.0234  0.0645
  385loPI   C4A 6154   5.754   2.982   9.932  0.0051  0.2684  0.2130
  385loPI   C5A 6155   5.740   2.996   9.500 -0.0574 -0.1095 -0.1746
  385loPI   C6A 6156   5.447   3.281   9.202 -0.0950  0.1042  0.0685
  385loPI   C1B 6157   6.302   3.225  11.002 -0.2681  0.1613 -0.0808
  385loPI   C2B 6158   6.189   3.292  10.538  0.0235  0.0152 -0.2377
  385loPI   C3B 6159   6.266   3.164  10.077  0.0109  0.0070  0.1086
  385loPI   C4B 6160   6.158   3.142   9.665 -0.0849 -0.2026 -0.5295
  386loPI    C1 6161  13.669   8.988  11.535 -0.1668 -0.0888 -0.0263
  386loPI    C2 6162  13.396   9.140  11.785 -0.0478 -0.0074  0.0554
  386loPI    C3 6163  13.329   8.789  11.606 -0.1653 -0.0322  0.1461
  386loPI   PO4 6164  13.774   9.163  11.358 -0.0453 -0.1532  0.0233
  386loPI   GL1 6165  13.801   9.102  10.888  0.2007  0.1939  0.0347
  386loPI   GL2 6166  13.965   8.946  10.922 -0.0608  0.0918 -0.1063
  386loPI   C1A 6167  13.607   9.136  10.448 -0.1823 -0.1683 -0.0096
  386loPI   C2A 6168  13.779   9.160  10.057 -0.0403  0.0513 -0.0443
  386loPI   C3A 6169  13.757   9.160   9.673 -0.1250  0.3610  0.0519
  386loPI   C4A 6170  13.894   9.105   9.242 -0.0315 -0.1101  0.0557
  386loPI   C5A 6171  13.768   9.040   8.809  0.1450  0.0994 -0.0997
  386loPI   C6A 6172  13.595   8.989   8.440  0.3570 -0.1333 -0.0112
  386loPI   C1B 6173  14.138   8.868  10.533  0.1311 -0.0562 -0.2724
  386loPI   C2B 6174  14.212   8.946  10.194 -0.0657  0.0727 -0.0561
  386loPI   C3B 6175  14.181   8.950   9.829  0.0077  0.2744 -0.0851
  386loPI   C4B 6176  14.261   8.921   9.459  0.1871 -0.0495 -0.1006
  387loPI    C1 6177  15.865   1.634  12.003 -0.1872  0.0491  0.0446
  387loPI    C2 6178  16.153   1.848  12.180  0.0813 -0.3427  0.0939
  387loPI    C3 6179  15.850   1.704  12.397  0.0486 -0.2501  0.1104
  387loPI   PO4 6180  15.828   1.780  11.734 -0.1186  0.2007  0.1001
  387loPI   GL1 6181  15.796   1.977  11.439 -0.0240  0.1556  0.2601
  387loPI   GL2 6182  16.007   2.115  11.305  0.1947 -0.0984  0.0946
  387loPI   C1A 6183  15.844   1.737  11.043 -0.0925  0.0554  0.1631
  387loPI   C2A 6184  15.800   1.887  10.652  0.0744  0.1075  0.0158
  387loPI   C3A 6185  15.802   1.792  10.198 -0.1265  0.2703 -0.3410
  387loPI   C4A 6186  15.742   1.761   9.732 -0.0200  0.0332 -0.2856
  387loPI   C5A 6187  15.475   1.956   9.394 -0.0845  0.4921  0.4695
  387loPI   C6A 6188  15.276   1.861   9.098 -0.0675 -0.1688 -0.1854
  387loPI   C1B 6189  15.919   2.236  11.020 -0.2366 -0.1406 -0.1958
  387loPI   C2B 6190  15.884   2.386  10.604  0.1823 -0.2055 -0.1576
  387loPI   C3B 6191  15.823   2.265  10.215 -0.0821 -0.0883  0.1224
  387loPI   C4B 6192  15.830   2.284   9.692 -0.1175 -0.5918  0.0090
  388loPI    C1 6193   2.386   8.246  11.842 -0.2616  0.1392 -0.1239
  388loPI    C2 6194   2.216   7.900  11.950  0.0436  0.0733  0.1609
  388loPI    C3 6195   2.117   8.239  12.138  0.0532  0.0723  0.1679
  388loPI   PO4 6196   2.466   8.276  11.582 -0.1557  0.0624 -0.2158
  388loPI   GL1 6197   2.577   8.065  11.179 -0.2622  0.0701  0.0057
  388loPI   GL2 6198   2.191   8.119  11.168  0.0962  0.0341  0.0204
  388loPI   C1A 6199   2.510   8.163  10.736  0.2557  0.0616  0.0481
  388loPI   C2A 6200   2.436   8.088  10.338  0.0700 -0.2381  0.0883
  388loPI   C3A 6201   2.477   8.102   9.888 -0.1084  0.3087 -0.2073
  388loPI   C4A 6202   2.500   8.275   9.496 -0.0134  0.0631 -0.1039
  388loPI   C5A 6203   2.586   8.525   9.195 -0.2983  0.0627  0.2346
  388loPI   C6A 6204   2.946   8.927   8.989 -0.1257  0.3041 -0.0988
  388loPI   C1B 6205   2.010   7.908  10.829  0.3747 -0.3111 -0.0761
  388loPI   C2B 6206   1.985   7.908  10.321 -0.1406 -0.1085 -0.0201
  388loPI   C3B 6207   1.930   7.872   9.931 -0.0113  0.1172  0.1250
  388loPI   C4B 6208   1.768   8.014   9.570  0.1664  0.1716  0.2085
  389loPI    C1 6209   7.824   8.791  11.274  0.2337 -0.4267  0.0698
  389loPI    C2 6210   7.581   8.790  11.592 -0.0234  0.1810 -0.1099
  389loPI    C3 6211   7.932   8.981  11.608  0.0390  0.0703 -0.1404
  389loPI   PO4 6212   7.564   8.834  11.077  0.1161 -0.0502 -0.0671
  389loPI   GL1 6213   7.577   8.814  10.729  0.1487  0.2155 -0.0973
  389loPI   GL2 6214   7.854   8.928  10.595 -0.0921 -0.2054 -0.2782
  389loPI   C1A 6215   7.664   8.502  10.439  0.2724 -0.1790 -0.1673
  389loPI   C2A 6216   7.677   8.457  10.062 -0.1318  0.1745  0.2064
  389loPI   C3A 6217   7.638   8.460   9.645 -0.0398  0.4711 -0.0120
  389loPI   C4A 6218   7.646   8.450   9.204  0.0665  0.0885  0.3504
  389loPI   C5A 6219   7.698   8.305   8.775  0.0613 -0.2043 -0.1171
  389loPI   C6A 6220   7.998   8.370   8.289 -0.0286  0.0369 -0.4007
  389loPI   C1B 6221   7.822   8.905  10.233  0.5004 -0.0682  0.1341
  389loPI   C2B 6222   7.817   8.891   9.778  0.0247 -0.0216  0.3781
  389loPI   C3B 6223   7.663   8.955   9.275  0.2577 -0.0304 -0.2660
  389loPI   C4B 6224   7.651   8.873   8.919  0.1748  0.1449 -0.0804
  390loPI    C1 6225   6.228   4.586  12.065 -0.0558  0.2566  0.0030
  390loPI    C2 6226   6.480   4.743  12.333  0.0180 -0.0198  0.0989
  390loPI    C3 6227   6.180   4.507  12.454 -0.2101  0.2007 -0.0266
  390loPI   PO4 6228   6.333   4.716  11.767 -0.0218  0.0226 -0.0618
  390loPI   GL1 6229   6.129   4.580  11.282  0.0073  0.2271 -0.0497
  390loPI   GL2 6230   6.227   4.950  11.269  0.0268 -0.3185  0.2225
  390loPI   C1A 6231   6.009   4.674  10.828  0.1188  0.1590  0.1184
  390loPI   C2A 6232   5.953   4.623  10.328 -0.2329  0.1149 -0.1733
  390loPI   C3A 6233   5.926   4.555   9.921 -0.0065  0.0703 -0.4296
  390loPI   C4A 6234   6.010   4.454   9.547 -0.0065  0.4057  0.1248
  390loPI   C5A 6235   6.119   4.749   9.203  0.0426 -0.1055  0.0348
  390loPI   C6A 6236   6.465   5.037   9.030 -0.2525  0.1490 -0.3169
  390loPI   C1B 6237   6.106   5.165  10.865 -0.0329 -0.1515 -0.2434
  390loPI   C2B 6238   6.054   5.092  10.461  0.2367 -0.0355 -0.0471
  390loPI   C3B 6239   5.935   5.089  10.039  0.1129 -0.0440  0.0460
  390loPI   C4B 6240   6.146   5.023   9.612  0.1261 -0.0983  0.1827
  391loPI    C1 6241  11.035  16.667  11.372  0.1159 -0.3156 -0.1995
  391loPI    C2 6242  11.310  16.821  11.619 -0.2919  0.3124 -0.1117
  391loPI    C3 6243  10.995  16.625  11.768 -0.0192 -0.2129 -0.2014
  391loPI   PO4 6244  11.117  16.611  11.159  0.0758  0.1398  0.1802
  391loPI   GL1 6245  11.061  16.452  10.785  0.0637 -0.0976  0.0816
  391loPI   GL2 6246  11.111  16.177  10.675  0.4029  0.1142 -0.0133
  391loPI   C1A 6247  10.823  16.518  10.355  0.0538  0.1870  0.1007
  391loPI   C2A 6248  10.861  16.475   9.973  0.2738  0.0058 -0.1194
  391loPI   C3A 6249  11.028  16.274   9.531 -0.2980 -0.0153 -0.1735
  391loPI   C4A 6250  10.949  16.184   9.052  0.1012 -0.3282 -0.1880
  391loPI   C5A 6251  10.834  16.063   8.649  0.0026  0.0796 -0.0654
  391loPI   C6A 6252  10.465  16.068   8.361  0.1584  0.0692  0.1664
  391loPI   C1B 6253  11.072  16.011  10.235 -0.3647 -0.1423  0.1480
  391loPI   C2B 6254  11.109  15.937   9.858  0.0926 -0.2561  0.1569
  391loPI   C3B 6255  11.288  15.855   9.410  0.0443 -0.0525 -0.0890
  391loPI   C4B 6256  11.349  15.815   8.937  0.0236 -0.2987 -0.1292
  392loPI    C1 6257  10.719  14.401  11.548  0.0333  0.0888  0.0089
  392loPI    C2 6258  10.999  14.184  11.735 -0.1126  0.0314  0.1634
  392loPI    C3 6259  10.677  14.312  11.936 -0.2552 -0.0018 -0.0407
  392loPI   PO4 6260  10.743  14.371  11.307  0.0333  0.3527 -0.1401
  392loPI   GL1 6261  10.624  14.354  10.945  0.3010  0.0084  0.2338
  392loPI   GL2 6262  10.763  14.127  10.757  0.0730 -0.0659  0.3858
  392loPI   C1A 6263  10.723  14.649  10.595 -0.2184 -0.0843 -0.3119
  392loPI   C2A 6264  10.786  14.594  10.147 -0.0944  0.4820 -0.1652
  392loPI   C3A 6265  10.827  14.648   9.786 -0.0938 -0.0053  0.0958
  392loPI   C4A 6266  11.064  14.849   9.435  0.0329  0.1091 -0.2425
  392loPI   C5A 6267  11.115  14.840   9.056  0.0906 -0.0201 -0.0064
  392loPI   C6A 6268  11.209  15.156   8.654 -0.0556 -0.2251  0.0120
  392loPI   C1B 6269  10.718  14.132  10.290 -0.2888  0.1718 -0.0411
  392loPI   C2B 6270  10.682  14.213   9.865 -0.1309  0.3254  0.1718
  392loPI   C3B 6271  10.806  14.401   9.387  0.1646  0.0113 -0.1600
  392loPI   C4B 6272  10.894  14.391   8.989  0.0662 -0.0144 -0.0279
  393loPI    C1 6273  13.509  11.325  11.537  0.0585 -0.0523 -0.2059
  393loPI    C2 6274  13.339  11.687  11.552  0.0059 -0.0804 -0.1239
  393loPI    C3 6275  13.143  11.367  11.692  0.0667 -0.1352 -0.1634
  393loPI   PO4 6276  13.582  11.284  11.238  0.2144  0.4022  0.3216
  393loPI   GL1 6277  13.609  11.077  10.833  0.2230 -0.0959  0.2663
  393loPI   GL2 6278  13.910  10.977  10.640 -0.0806 -0.0607 -0.1659
  393loPI   C1A 6279  13.567  11.223  10.411  0.2829  0.0049  0.2705
  393loPI   C2A 6280  13.534  11.306   9.987 -0.1654  0.0184  0.1223
  393loPI   C3A 6281  13.526  11.234   9.628  0.1950 -0.0629  0.0571
  393loPI   C4A 6282  13.562  11.172   9.181 -0.0446  0.3968  0.0570
  393loPI   C5A 6283  13.445  11.352   8.844  0.1417 -0.2749  0.0970
  393loPI   C6A 6284  13.118  11.163   8.571 -0.1581 -0.0979 -0.0987
  393loPI   C1B 6285  13.952  10.937  10.273  0.1271 -0.3848  0.3525
  393loPI   C2B 6286  14.059  10.925   9.821  0.2024 -0.1756  0.0235
  393loPI   C3B 6287  13.917  10.936   9.511  0.1495  0.0450  0.1680
  393loPI   C4B 6288  13.999  10.851   9.085  0.2178  0.0369 -0.4314
  394loPI    C1 6289   0.648   6.582  11.929 -0.1917  0.0454 -0.1079
  394loPI    C2 6290   0.759   6.911  11.730 -0.0162 -0.0027 -0.0918
  394loPI    C3 6291   0.691   6.929  12.124  0.0585  0.0003 -0.0790
  394loPI   PO4 6292   0.818   6.366  11.850  0.1176 -0.1713 -0.1502
  394loPI   GL1 6293   0.884   6.202  11.470  0.0045 -0.0325  0.0002
  394loPI   GL2 6294   1.210   6.151  11.309 -0.0615 -0.1380  0.1100
  394loPI   C1A 6295   0.661   6.106  11.098 -0.0565  0.2634  0.4467
  394loPI   C2A 6296   0.632   6.024  10.699 -0.1643 -0.3341  0.0828
  394loPI   C3A 6297   0.687   6.068  10.210  0.0338 -0.1373 -0.3476
  394loPI   C4A 6298   0.686   5.975   9.825 -0.0716 -0.0139  0.3175
  394loPI   C5A 6299   0.729   6.022   9.429 -0.0396 -0.3684 -0.1662
  394loPI   C6A 6300   0.835   6.117   8.974  0.1617  0.0933 -0.2312
  394loPI   C1B 6301   1.171   6.144  10.817 -0.0149  0.1790  0.2371
  394loPI   C2B 6302   1.149   6.174  10.381  0.1299 -0.1774  0.5368
  394loPI   C3B 6303   1.169   6.129   9.995 -0.2512 -0.1188  0.1164
  394loPI   C4B 6304   1.172   6.023   9.584 -0.1908  0.1656 -0.0127
  395loPI    C1 6305   9.049  11.596  11.778 -0.0298 -0.1083  0.0381
  395loPI    C2 6306   8.961  11.947  11.947 -0.2867 -0.1114 -0.0840
  395loPI    C3 6307   9.213  11.695  12.129  0.0244  0.2007 -0.0716
  395loPI   PO4 6308   9.095  11.731  11.445  0.0021 -0.2169 -0.1472
  395loPI   GL1 6309   8.841  11.671  10.989  0.2159  0.0718  0.1684
  395loPI   GL2 6310   8.541  11.795  11.232  0.0534 -0.1289  0.0023
  395loPI   C1A 6311   8.747  11.708  10.541  0.1254 -0.2028  0.1967
  395loPI   C2A 6312   8.700  11.631  10.119  0.1932  0.1709  0.0908
  395loPI   C3A 6313   8.701  11.616   9.727 -0.2578 -0.0478  0.0123
  395loPI   C4A 6314   8.630  11.779   9.374  0.3031 -0.0386  0.4405
  395loPI   C5A 6315   8.696  11.651   9.062  0.2363 -0.0234 -0.2752
  395loPI   C6A 6316   8.636  11.837   8.653  0.2589  0.2634  0.2781
  395loPI   C1B 6317   8.393  11.528  10.851  0.2141  0.0071 -0.0071
  395loPI   C2B 6318   8.244  11.546  10.394  0.0307  0.0733  0.2781
  395loPI   C3B 6319   8.239  11.449   9.953  0.0302 -0.1168  0.1650
  395loPI   C4B 6320   8.201  11.479   9.543  0.0579  0.1350 -0.1057
  396loPI    C1 6321   6.927  13.298  11.612 -0.1240 -0.0716 -0.1291
  396loPI    C2 6322   6.929  13.679  11.732  0.1147 -0.0548 -0.1806
  396loPI    C3 6323   6.812  13.391  11.984  0.1514  0.0289 -0.0667
  396loPI   PO4 6324   7.157  13.345  11.441  0.1667  0.1314  0.0353
  396loPI   GL1 6325   7.268  13.407  11.003 -0.2153  0.0181  0.2716
  396loPI   GL2 6326   7.316  13.103  11.068 -0.1443  0.0073  0.1870
  396loPI   C1A 6327   7.353  13.517  10.582  0.1465 -0.1171 -0.1655
  396loPI   C2A 6328   7.294  13.514  10.198  0.3990 -0.1945 -0.1818
  396loPI   C3A 6329   7.235  13.532   9.782 -0.1314  0.1892 -0.0645
  396loPI   C4A 6330   7.280  13.647   9.376  0.0149 -0.1405 -0.0414
  396loPI   C5A 6331   7.405  13.260   8.982  0.1500 -0.2313  0.1251
  396loPI   C6A 6332   7.397  13.078   8.580  0.1430 -0.1031  0.1832
  396loPI   C1B 6333   7.219  13.028  10.681 -0.1874 -0.2879 -0.0186
  396loPI   C2B 6334   7.271  13.014  10.213  0.0019 -0.2677 -0.0795
  396loPI   C3B 6335   7.175  13.009   9.832 -0.2356 -0.0576 -0.1233
  396loPI   C4B 6336   7.202  13.107   9.392  0.0879  0.1484 -0.2506
  397loPI    C1 6337   9.698  13.722  11.517  0.2050  0.0565  0.0310
  397loPI    C2 6338   9.909  14.030  11.372 -0.2396  0.2123 -0.3056
  397loPI    C3 6339   9.742  14.055  11.735 -0.1382  0.3032 -0.2649
  397loPI   PO4 6340   9.574  13.621  11.361  0.4470  0.0526 -0.0318
  397loPI   GL1 6341   9.602  13.601  10.928 -0.1537 -0.1313 -0.0749
  397loPI   GL2 6342   9.621  13.976  10.898  0.0686  0.0571  0.1345
  397loPI   C1A 6343   9.644  13.375  10.599 -0.1152 -0.0486  0.2159
  397loPI   C2A 6344   9.641  13.324  10.177  0.0824 -0.0719 -0.1196
  397loPI   C3A 6345   9.586  13.366   9.743  0.0040  0.0063 -0.0387
  397loPI   C4A 6346   9.610  13.366   9.293  0.1916 -0.0278 -0.2421
  397loPI   C5A 6347   9.330  13.355   8.907  0.0792  0.2331 -0.0140
  397loPI   C6A 6348   9.326  13.336   8.455  0.3584 -0.3196  0.0209
  397loPI   C1B 6349   9.623  13.901  10.481 -0.1889  0.2662 -0.0651
  397loPI   C2B 6350   9.669  13.877  10.051  0.2536  0.5166  0.0900
  397loPI   C3B 6351   9.579  13.888   9.560  0.3705 -0.0328  0.0937
  397loPI   C4B 6352   9.596  13.817   9.042 -0.0224 -0.0227 -0.2161
  398loPI    C1 6353  15.611   2.984  12.006  0.2870  0.0469 -0.1051
  398loPI    C2 6354  15.533   3.166  12.353  0.1749 -0.2069  0.0046
  398loPI    C3 6355  15.833   2.902  12.329  0.2260 -0.1390 -0.1093
  398loPI   PO4 6356  15.584   3.171  11.839  0.0243 -0.2005  0.1338
  398loPI   GL1 6357  15.365   3.413  11.533 -0.0319  0.0866 -0.1905
  398loPI   GL2 6358  15.609   3.573  11.359  0.0508 -0.2315  0.0137
  398loPI   C1A 6359  15.515   3.145  11.169 -0.3618  0.0719 -0.0078
  398loPI   C2A 6360  15.577   3.229  10.758 -0.0108  0.2022 -0.2403
  398loPI   C3A 6361  15.543   3.206  10.404 -0.1471  0.1179  0.0616
  398loPI   C4A 6362  15.604   3.144   9.950  0.0906  0.2202  0.0328
  398loPI   C5A 6363  15.509   3.119   9.526 -0.1461 -0.4308 -0.1059
  398loPI   C6A 6364  15.494   2.936   9.137 -0.2967  0.3754 -0.0274
  398loPI   C1B 6365  15.672   3.674  10.919  0.1463  0.3059  0.0405
  398loPI   C2B 6366  15.622   3.705  10.515 -0.0455 -0.0333 -0.0139
  398loPI   C3B 6367  15.600   3.629  10.076  0.0360  0.0402 -0.0264
  398loPI   C4B 6368  15.668   3.678   9.721 -0.2163  0.1564 -0.0098
  399loPI    C1 6369   0.585   9.492  11.739 -0.1594  0.1292  0.1080
  399loPI    C2 6370   0.816   9.664  12.016  0.1299 -0.0833  0.0040
  399loPI    C3 6371   0.734   9.273  12.039  0.0510 -0.0756 -0.1408
  399loPI   PO4 6372   0.671   9.584  11.531  0.1428 -0.2639 -0.0525
  399loPI   GL1 6373   0.877   9.752  11.224 -0.4794  0.4376  0.1027
  399loPI   GL2 6374   1.099   9.539  11.116 -0.1460  0.0992  0.0937
  399loPI   C1A 6375   0.816   9.862  10.839 -0.1808  0.1074  0.0694
  399loPI   C2A 6376   0.798  10.015  10.410  0.3628 -0.0189  0.4717
  399loPI   C3A 6377   0.789  10.024   9.973 -0.0164  0.1324  0.3234
  399loPI   C4A 6378   0.703  10.155   9.485 -0.3418  0.2660 -0.2691
  399loPI   C5A 6379   0.936  10.253   9.144  0.1257  0.0066  0.0943
  399loPI   C6A 6380   1.270  10.402   9.006  0.0558 -0.1018 -0.0859
  399loPI   C1B 6381   1.186   9.616  10.660 -0.2580 -0.2469  0.3418
  399loPI   C2B 6382   1.187   9.769  10.211 -0.0998  0.1228 -0.2718
  399loPI   C3B 6383   1.185   9.767   9.769 -0.2871 -0.3067 -0.2702
  399loPI   C4B 6384   1.289   9.784   9.330 -0.0754 -0.0562 -0.1029
  400loPI    C1 6385  16.048   7.306  11.663 -0.2684  0.0762 -0.1743
  400loPI    C2 6386  15.927   7.681  11.593  0.0788  0.2200 -0.0241
  400loPI    C3 6387  16.208   7.609  11.869  0.1346 -0.1344 -0.1674
  400loPI   PO4 6388  15.976   7.235  11.351  0.0549 -0.0966 -0.0380
  400loPI   GL1 6389  16.164   7.349  10.979  0.1691  0.0641 -0.3783
  400loPI   GL2 6390  16.139   7.684  11.021  0.0862 -0.0726 -0.1704
  400loPI   C1A 6391  16.197   7.389  10.563  0.1273 -0.1521  0.0144
  400loPI   C2A 6392  16.169   7.328  10.187 -0.7191 -0.0973  0.0741
  400loPI   C3A 6393  16.237   7.236   9.768 -0.2609 -0.1092 -0.1604
  400loPI   C4A 6394  16.127   7.206   9.288  0.0048  0.0318  0.0679
  400loPI   C5A 6395  16.240   7.430   8.967  0.1888  0.0843 -0.3206
  400loPI   C6A 6396  16.316   7.419   8.514  0.2361  0.1457  0.0191
  400loPI   C1B 6397  16.234   7.882  10.668 -0.1563 -0.1884 -0.1990
  400loPI   C2B 6398  16.242   7.825  10.200  0.2244  0.0926 -0.1393
  400loPI   C3B 6399  16.229   7.846   9.724  0.3910  0.2520  0.1928
  400loPI   C4B 6400  16.323   7.809   9.294 -0.0238  0.3511 -0.3683
  401loPI    C1 6401  13.438   9.525  11.447  0.1199 -0.2225  0.1381
  401loPI    C2 6402  13.072   9.593  11.595  0.0804  0.1745 -0.1288
  401loPI    C3 6403  13.396   9.700  11.805  0.0488 -0.1971  0.1174
  401loPI   PO4 6404  13.508   9.620  11.189 -0.0482 -0.0957 -0.2342
  401loPI   GL1 6405  13.503   9.552  10.725 -0.2447 -0.1331 -0.2960
  401loPI   GL2 6406  13.232   9.361  10.783 -0.0535  0.0520  0.0488
  401loPI   C1A 6407  13.548   9.576  10.184 -0.0539 -0.2005 -0.4323
  401loPI   C2A 6408  13.587   9.606   9.834 -0.0736 -0.0529  0.0799
  401loPI   C3A 6409  13.543   9.556   9.459 -0.1140  0.0910 -0.2012
  401loPI   C4A 6410  13.485   9.487   9.138  0.1057  0.0167  0.0348
  401loPI   C5A 6411  13.377   9.593   8.704  0.0233  0.0940 -0.0906
  401loPI   C6A 6412  13.625   9.490   8.358 -0.1831 -0.0875  0.1063
  401loPI   C1B 6413  13.146   9.465  10.433 -0.2772  0.1865 -0.2589
  401loPI   C2B 6414  13.115   9.375  10.084  0.1165  0.0382 -0.0351
  401loPI   C3B 6415  13.114   9.341   9.671 -0.0973 -0.0860 -0.0648
  401loPI   C4B 6416  13.056   9.385   9.244  0.3860  0.0586  0.2075
  402loPI    C1 6417  13.979   1.492  11.954  0.1635  0.1238  0.0401
  402loPI    C2 6418  14.132   1.134  12.048 -0.0913 -0.0181 -0.0724
  402loPI    C3 6419  14.251   1.461  12.245  0.2019 -0.1522 -0.0219
  402loPI   PO4 6420  13.925   1.466  11.696  0.0546  0.2079 -0.1179
  402loPI   GL1 6421  13.661   1.283  11.367 -0.0415  0.4208  0.1055
  402loPI   GL2 6422  13.693   1.604  11.288  0.1925 -0.1124 -0.0606
  402loPI   C1A 6423  13.831   1.028  11.135 -0.1931  0.0957  0.2691
  402loPI   C2A 6424  13.731   0.979  10.739 -0.2067 -0.1494 -0.0071
  402loPI   C3A 6425  13.841   0.955  10.227 -0.1562  0.0955  0.0444
  402loPI   C4A 6426  13.838   1.055   9.834  0.0443 -0.1011  0.0099
  402loPI   C5A 6427  13.907   1.103   9.425  0.2252  0.0378  0.0205
  402loPI   C6A 6428  13.985   1.173   9.009 -0.1422  0.0976  0.1711
  402loPI   C1B 6429  13.940   1.597  10.979 -0.2053 -0.0256  0.0628
  402loPI   C2B 6430  13.879   1.534  10.560 -0.0542 -0.0986  0.1695
  402loPI   C3B 6431  13.916   1.574  10.105  0.1682  0.1354  0.0859
  402loPI   C4B 6432  13.897   1.574   9.677 -0.0879  0.0786 -0.0985
  403loPI    C1 6433  10.869  12.614  11.516 -0.1580  0.0639 -0.0161
  403loPI    C2 6434  10.848  13.012  11.549  0.2968  0.0876  0.0467
  403loPI    C3 6435  10.843  12.783  11.877  0.1551  0.0482  0.0172
  403loPI   PO4 6436  11.071  12.611  11.350 -0.3500  0.2293 -0.2398
  403loPI   GL1 6437  11.140  12.575  11.014 -0.1249  0.2808  0.0130
  403loPI   GL2 6438  11.322  12.503  10.821 -0.1680  0.2850 -0.1613
  403loPI   C1A 6439  10.911  12.779  10.619 -0.0475 -0.0519  0.0274
  403loPI   C2A 6440  10.903  12.775  10.121  0.0939 -0.1487 -0.0938
  403loPI   C3A 6441  10.798  12.944   9.824 -0.3140  0.0018 -0.2026
  403loPI   C4A 6442  10.860  12.731   9.501  0.0634 -0.0124  0.2018
  403loPI   C5A 6443  10.711  12.699   9.106  0.1613 -0.1575  0.0150
  403loPI   C6A 6444  10.736  12.277   8.884 -0.3067 -0.0939  0.0421
  403loPI   C1B 6445  11.299  12.505  10.378  0.0689 -0.2763 -0.1609
  403loPI   C2B 6446  11.226  12.440   9.943  0.0025 -0.0037 -0.1313
  403loPI   C3B 6447  11.312  12.455   9.604 -0.1293  0.0537 -0.1297
  403loPI   C4B 6448  11.168  12.371   9.239  0.0065  0.0175  0.1059
  404loPI    C1 6449  14.006   0.936  11.567 -0.2595 -0.0029  0.0267
  404loPI    C2 6450  13.935   0.711  11.890 -0.0706 -0.0440  0.0405
  404loPI    C3 6451  13.714   1.037  11.822 -0.1340 -0.0545  0.1924
  404loPI   PO4 6452  14.305   0.861  11.555 -0.2357 -0.1590 -0.4838
  404loPI   GL1 6453  14.461   0.587  11.265 -0.0517 -0.1158 -0.0711
  404loPI   GL2 6454  14.111   0.623  11.160  0.1266 -0.1220  0.3630
  404loPI   C1A 6455  14.706   0.411  11.007  0.0727  0.0777 -0.0621
  404loPI   C2A 6456  14.681   0.367  10.566  0.0889 -0.2488 -0.0959
  404loPI   C3A 6457  14.634   0.292  10.104  0.0644  0.1159  0.0767
  404loPI   C4A 6458  14.561   0.298   9.725 -0.0211 -0.2544 -0.1909
  404loPI   C5A 6459  14.719   0.584   9.377  0.0667  0.0512 -0.2988
  404loPI   C6A 6460  15.016   0.638   8.982 -0.1953 -0.0340 -0.1418
  404loPI   C1B 6461  14.260   0.571  10.759 -0.2149  0.2437 -0.1178
  404loPI   C2B 6462  14.208   0.599  10.343  0.1518  0.3684 -0.1565
  404loPI   C3B 6463  14.295   0.738   9.931 -0.1696 -0.0933  0.1127
  404loPI   C4B 6464  14.386   0.988   9.500  0.0058  0.0818  0.1641
  405loPI    C1 6465   3.050  15.847  11.988 -0.1611 -0.0882  0.1408
  405loPI    C2 6466   3.401  15.880  12.177 -0.1459  0.0416  0.0907
  405loPI    C3 6467   3.071  15.786  12.383 -0.0572 -0.2231  0.1153
  405loPI   PO4 6468   3.166  15.723  11.761 -0.0900 -0.1185  0.0770
  405loPI   GL1 6469   3.048  15.697  11.373  0.1727 -0.1173  0.3426
  405loPI   GL2 6470   2.776  15.839  11.389  0.1212 -0.2656 -0.0920
  405loPI   C1A 6471   3.170  15.836  11.023  0.1021 -0.3585  0.0390
  405loPI   C2A 6472   3.044  15.835  10.623 -0.4423 -0.1627 -0.0104
  405loPI   C3A 6473   3.103  15.843  10.116  0.3076 -0.1547  0.1155
  405loPI   C4A 6474   3.068  15.808   9.747 -0.0372 -0.1150 -0.2669
  405loPI   C5A 6475   3.097  15.721   9.389  0.1703 -0.0098  0.0830
  405loPI   C6A 6476   3.132  15.709   8.968  0.1511 -0.3101 -0.3081
  405loPI   C1B 6477   2.709  15.673  10.945 -0.0801 -0.1506 -0.0543
  405loPI   C2B 6478   2.596  15.533  10.642  0.2486 -0.0632  0.1548
  405loPI   C3B 6479   2.634  15.673  10.180  0.0447 -0.0468 -0.0901
  405loPI   C4B 6480   2.584  15.664   9.737  0.0249 -0.0199 -0.1216
  406POPI    C1 6481  15.473   2.457  12.009  0.1379 -0.0330  0.0792
  406POPI    C2 6482  15.699   2.150  12.132 -0.0774 -0.1310  0.2367
  406POPI    C3 6483  15.486   2.360  12.397  0.1577  0.2307  0.1464
  406POPI   PO4 6484  15.601   2.473  11.789  0.1031 -0.1441  0.1436
  406POPI   GL1 6485  15.635   2.450  11.428  0.2002  0.1441 -0.0131
  406POPI   GL2 6486  15.479   2.695  11.299 -0.0604 -0.0231  0.0502
  406POPI   C1A 6487  15.413   2.124  11.090  0.0488 -0.0534 -0.0807
  406POPI   D2A 6488  15.362   2.169  10.675  0.0548  0.1699  0.1758
  406POPI   C3A 6489  15.316   2.167  10.255 -0.0560  0.0389  0.0432
  406POPI   C4A 6490  15.364   2.115   9.826  0.0687 -0.2073  0.0774
  406POPI   C1B 6491  15.530   2.601  10.926  0.2942 -0.2234 -0.0643
  406POPI   C2B 6492  15.464   2.695  10.498  0.1486  0.1002 -0.1626
  406POPI   C3B 6493  15.487   2.644  10.093 -0.0250  0.0296  0.2696
  406POPI   C4B 6494  15.447   2.608   9.665  0.1620 -0.1779 -0.2048
  407POPI    C1 6495   8.497   3.409  11.372  0.1778  0.2281  0.1423
  407POPI    C2 6496   8.301   3.251  11.683  0.1350 -0.0482 -0.0211
  407POPI    C3 6497   8.697   3.301  11.701  0.0915  0.2465  0.2013
  407POPI   PO4 6498   8.227   3.573  11.298  0.1333  0.0510  0.2128
  407POPI   GL1 6499   8.172   3.778  10.921  0.2744  0.1006 -0.2015
  407POPI   GL2 6500   7.862   3.596  10.969 -0.0891 -0.1668 -0.0316
  407POPI   C1A 6501   8.225   3.818  10.469 -0.0736  0.1069 -0.2187
  407POPI   D2A 6502   8.089   3.795  10.014  0.1377 -0.0046  0.2433
  407POPI   C3A 6503   8.207   3.975   9.676 -0.2332  0.0169 -0.0424
  407POPI   C4A 6504   8.365   3.769   9.304  0.1808  0.2134  0.2788
  407POPI   C1B 6505   7.683   3.623  10.552 -0.0883  0.0739 -0.2975
  407POPI   C2B 6506   7.600   3.663  10.107 -0.0274 -0.2504  0.0757
  407POPI   C3B 6507   7.781   3.613   9.642  0.3293 -0.1337  0.2386
  407POPI   C4B 6508   7.849   3.835   9.171  0.1342  0.0208 -0.1617
  408POPI    C1 6509   6.267  15.778  11.425  0.0289  0.0504  0.0377
  408POPI    C2 6510   6.130  15.506  11.166 -0.0921  0.0302  0.1217
  408POPI    C3 6511   6.258  15.391  11.527  0.0243  0.0645  0.0916
  408POPI   PO4 6512   6.067  15.952  11.400 -0.1264  0.1936  0.0327
  408POPI   GL1 6513   5.930  16.138  11.103 -0.3131 -0.0473 -0.0724
  408POPI   GL2 6514   5.972  16.405  11.046 -0.1921 -0.2085 -0.0588
  408POPI   C1A 6515   6.004  15.860  10.777  0.1320 -0.0944 -0.1423
  408POPI   D2A 6516   5.834  15.935  10.346  0.3583 -0.0300 -0.1105
  408POPI   C3A 6517   5.861  15.826   9.888 -0.0569 -0.0443 -0.4607
  408POPI   C4A 6518   5.820  15.775   9.430  0.2973 -0.0064 -0.0417
  408POPI   C1B 6519   5.953  16.330  10.622 -0.1325  0.1397 -0.1232
  408POPI   C2B 6520   5.969  16.409  10.198 -0.1505  0.0329  0.0405
  408POPI   C3B 6521   5.964  16.342   9.798 -0.0931 -0.1539  0.0676
  408POPI   C4B 6522   5.944  16.289   9.318  0.1198  0.0099 -0.2275
  409POPI    C1 6523   1.076  16.932  11.688  0.0937  0.3338  0.0187
  409POPI    C2 6524   1.453  16.800  11.675  0.0210  0.1232  0.0033
  409POPI    C3 6525   1.294  16.918  12.023  0.0266 -0.0111  0.0520
  409POPI   PO4 6526   1.115  17.052  11.446 -0.1933 -0.3473 -0.0002
  409POPI   GL1 6527   1.038  16.871  11.135 -0.0733 -0.0829 -0.2760
  409POPI   GL2 6528   0.985  16.512  11.055  0.2779  0.0985  0.2004
  409POPI   C1A 6529   0.996  16.864  10.661  0.0262 -0.1004  0.1158
  409POPI   D2A 6530   0.977  16.931  10.229  0.1300 -0.1112 -0.4092
  409POPI   C3A 6531   1.101  16.958   9.879  0.2759  0.3094  0.0683
  409POPI   C4A 6532   1.142  17.054   9.466  0.2642  0.0131 -0.3138
  409POPI   C1B 6533   0.910  16.359  10.618  0.0781 -0.0356 -0.0447
  409POPI   C2B 6534   0.875  16.396  10.184 -0.1169 -0.2545  0.0106
  409POPI   C3B 6535   0.959  16.437   9.779 -0.0518 -0.0145  0.0880
  409POPI   C4B 6536   1.043  16.565   9.329  0.0985 -0.0583 -0.1684
  410POPI    C1 6537   8.768   7.829  11.366  0.3143 -0.0933  0.0112
  410POPI    C2 6538   9.156   7.915  11.408  0.3327 -0.1843  0.0293
  410POPI    C3 6539   8.931   7.847  11.731  0.2099  0.2631  0.0442
  410POPI   PO4 6540   8.671   8.033  11.194 -0.0784  0.0247  0.0661
  410POPI   GL1 6541   8.581   8.010  10.796  0.1208  0.3671  0.1607
  410POPI   GL2 6542   8.565   8.251  10.633  0.0225  0.0366  0.2417
  410POPI   C1A 6543   8.458   7.730  10.481  0.1442 -0.1953  0.1842
  410POPI   D2A 6544   8.428   7.601  10.114 -0.0448  0.1123  0.1804
  410POPI   C3A 6545   8.448   7.710   9.764 -0.0948  0.2625  0.1047
  410POPI   C4A 6546   8.335   7.692   9.313  0.2457  0.2071 -0.0206
  410POPI   C1B 6547   8.517   8.246  10.258  0.2487 -0.1392 -0.0626
  410POPI   C2B 6548   8.560   8.210   9.899 -0.0462 -0.0419  0.2441
  410POPI   C3B 6549   8.491   8.229   9.483 -0.3495 -0.1444 -0.1453
  410POPI   C4B 6550   8.507   8.106   9.106  0.1490 -0.0696  0.0146
  411POPI    C1 6551   0.346  13.916  11.822  0.1175 -0.0967  0.0456
  411POPI    C2 6552   0.527  13.623  12.026 -0.2484 -0.2136  0.2110
  411POPI    C3 6553   0.468  13.979  12.198  0.1745 -0.0430  0.0184
  411POPI   PO4 6554   0.491  13.857  11.526 -0.1605 -0.0344 -0.1191
  411POPI   GL1 6555   0.499  13.562  11.194  0.0957  0.2037  0.1617
  411POPI   GL2 6556   0.168  13.480  11.236 -0.2899  0.0449 -0.2476
  411POPI   C1A 6557   0.511  13.719  10.848  0.0009 -0.1070  0.1257
  411POPI   D2A 6558   0.450  13.692  10.372  0.0327  0.2086 -0.2127
  411POPI   C3A 6559   0.513  13.865   9.953 -0.0165  0.2744 -0.1588
  411POPI   C4A 6560   0.598  13.902   9.506  0.0885  0.2919  0.0095
  411POPI   C1B 6561  -0.046  13.457  10.878  0.1469 -0.1901 -0.0173
  411POPI   C2B 6562  -0.006  13.519  10.441  0.0243 -0.2828 -0.1934
  411POPI   C3B 6563   0.044  13.657  10.078 -0.3585 -0.0403  0.0071
  411POPI   C4B 6564  -0.051  13.575   9.653  0.0282  0.0606 -0.0082
  412POPI    C1 6565   1.049   4.456  12.051 -0.2041  0.0290  0.1383
  412POPI    C2 6566   1.428   4.509  12.168 -0.0621 -0.1228 -0.2408
  412POPI    C3 6567   1.173   4.306  12.401  0.0221  0.1817  0.1254
  412POPI   PO4 6568   1.045   4.356  11.782 -0.2412  0.3188  0.0129
  412POPI   GL1 6569   0.941   4.382  11.383 -0.2196 -0.0124  0.0133
  412POPI   GL2 6570   1.115   4.787  11.231  0.2290 -0.0339 -0.1891
  412POPI   C1A 6571   1.046   4.230  11.023  0.2588 -0.0735 -0.0639
  412POPI   D2A 6572   0.831   4.037  10.703 -0.3134 -0.2827 -0.2620
  412POPI   C3A 6573   0.830   4.015  10.246  0.1704  0.2603 -0.0146
  412POPI   C4A 6574   0.929   4.054   9.763 -0.0533 -0.2968 -0.0858
  412POPI   C1B 6575   0.960   4.716  10.900 -0.2287  0.0236  0.5087
  412POPI   C2B 6576   0.939   4.533  10.458  0.1748 -0.2742 -0.0177
  412POPI   C3B 6577   0.935   4.504  10.020  0.0969  0.0861  0.1307
  412POPI   C4B 6578   0.913   4.518   9.570 -0.2256 -0.1613  0.1541
  413POPI    C1 6579   8.991  10.030  11.488  0.1442  0.0530 -0.0209
  413POPI    C2 6580   9.006  10.359  11.714 -0.0244  0.0194  0.0407
  413POPI    C3 6581   9.067  10.001  11.880  0.2037  0.0216 -0.0347
  413POPI   PO4 6582   9.020  10.140  11.255 -0.0963 -0.2092 -0.0599
  413POPI   GL1 6583   9.079  10.000  10.804  0.0901 -0.0699  0.2070
  413POPI   GL2 6584   8.863   9.830  10.797  0.1172 -0.0965 -0.1157
  413POPI   C1A 6585   9.281  10.059  10.393  0.1631  0.0270  0.0421
  413POPI   D2A 6586   9.371   9.902   9.896 -0.0895  0.1421 -0.0252
  413POPI   C3A 6587   9.371   9.988   9.419 -0.0065 -0.0986  0.1374
  413POPI   C4A 6588   9.296   9.847   8.963  0.0267 -0.0506 -0.3541
  413POPI   C1B 6589   8.841   9.848  10.296  0.5804 -0.0540 -0.2686
  413POPI   C2B 6590   8.773   9.731   9.822 -0.1814 -0.0609 -0.1305
  413POPI   C3B 6591   8.899   9.779   9.422  0.1602 -0.0048 -0.1154
  413POPI   C4B 6592   8.800   9.797   8.982 -0.0857  0.0178 -0.0200
  414POPI    C1 6593  17.128  14.833  11.686  0.0917  0.1015  0.1003
  414POPI    C2 6594  17.003  14.968  12.041  0.0585  0.1531  0.0691
  414POPI    C3 6595  16.740  14.815  11.782  0.0602  0.2572  0.0052
  414POPI   PO4 6596  17.290  15.042  11.575  0.0569  0.0830 -0.1367
  414POPI   GL1 6597  17.487  15.037  11.196  0.2684  0.0366  0.1031
  414POPI   GL2 6598  17.379  14.689  11.251 -0.0793 -0.0007 -0.0761
  414POPI   C1A 6599  17.469  15.155  10.781 -0.0864  0.0480 -0.0652
  414POPI   D2A 6600  17.451  15.202  10.335  0.0238 -0.2978 -0.0266
  414POPI   C3A 6601  17.465  15.215   9.899  0.1703  0.1630  0.0111
  414POPI   C4A 6602  17.525  15.319   9.514 -0.0004  0.1019 -0.2233
  414POPI   C1B 6603  17.417  14.602  10.850 -0.1208  0.1813 -0.0839
  414POPI   C2B 6604  17.403  14.636  10.367 -0.2018 -0.0557 -0.0981
  414POPI   C3B 6605  17.368  14.604   9.951 -0.1374 -0.0128 -0.0672
  414POPI   C4B 6606  17.265  14.628   9.427 -0.1163 -0.0776  0.3322
  415POPI    C1 6607   2.845   3.363  11.700 -0.1681 -0.0114 -0.0811
  415POPI    C2 6608   2.631   3.381  12.037 -0.1291 -0.0413 -0.0547
  415POPI    C3 6609   2.846   3.054  11.954  0.1471  0.1061  0.0669
  415POPI   PO4 6610   2.717   3.508  11.530 -0.2233  0.4074  0.0796
  415POPI   GL1 6611   2.571   3.378  11.131 -0.1909 -0.1135 -0.1706
  415POPI   GL2 6612   2.437   3.282  10.781 -0.0225 -0.1286  0.3318
  415POPI   C1A 6613   2.752   2.953  11.005 -0.0282  0.1464  0.0672
  415POPI   D2A 6614   2.446   2.724  10.805  0.1266  0.0076 -0.1374
  415POPI   C3A 6615   2.559   2.520  10.480 -0.1282  0.0698  0.2298
  415POPI   C4A 6616   2.886   2.411  10.263 -0.0088 -0.0014  0.0168
  415POPI   C1B 6617   2.479   3.020  10.387  0.1930  0.1275  0.1464
  415POPI   C2B 6618   2.537   2.798   9.991 -0.0769  0.0290  0.1580
  415POPI   C3B 6619   2.473   2.665   9.577 -0.0464 -0.0489  0.0157
  415POPI   C4B 6620   2.503   2.565   9.161  0.2407 -0.0423  0.0562
  416POPI    C1 6621   4.440  12.905  11.900  0.0094 -0.1058 -0.0642
  416POPI    C2 6622   4.632  12.621  12.106 -0.0280 -0.0281  0.0789
  416POPI    C3 6623   4.592  12.988  12.260 -0.0933  0.0191 -0.0489
  416POPI   PO4 6624   4.276  12.716  11.742 -0.0449  0.1361  0.1409
  416POPI   GL1 6625   4.244  12.655  11.316  0.0057  0.1030 -0.3461
  416POPI   GL2 6626   4.423  12.868  11.157  0.0550  0.3152  0.2388
  416POPI   C1A 6627   4.014  12.657  10.864  0.0949 -0.0910  0.0285
  416POPI   D2A 6628   4.014  12.736  10.395 -0.2322 -0.1102  0.0417
  416POPI   C3A 6629   3.876  12.662   9.983 -0.2199 -0.1303 -0.0226
  416POPI   C4A 6630   3.916  12.672   9.614 -0.0424  0.0106 -0.1943
  416POPI   C1B 6631   4.476  12.845  10.781 -0.0204 -0.0907 -0.1843
  416POPI   C2B 6632   4.521  12.882  10.314 -0.0608 -0.0993  0.2005
  416POPI   C3B 6633   4.389  12.848   9.910 -0.3571 -0.0168 -0.1947
  416POPI   C4B 6634   4.388  12.744   9.438 -0.1735 -0.0934 -0.0331
  417POPI    C1 6635  17.097   1.803  11.666 -0.1382 -0.0196 -0.0377
  417POPI    C2 6636  17.087   2.109  11.922 -0.1383  0.2020 -0.2977
  417POPI    C3 6637  17.435   1.994  11.763 -0.1102 -0.0606 -0.0539
  417POPI   PO4 6638  16.849   1.841  11.545 -0.1168  0.0285 -0.1930
  417POPI   GL1 6639  16.505   1.953  11.200 -0.0999  0.3409 -0.0319
  417POPI   GL2 6640  16.689   1.705  11.044  0.0384  0.1576 -0.2528
  417POPI   C1A 6641  16.286   1.957  10.824  0.1151  0.1835  0.0403
  417POPI   D2A 6642  16.233   1.972  10.368  0.1339  0.0033  0.1482
  417POPI   C3A 6643  16.197   1.962   9.860 -0.1698  0.0640 -0.3920
  417POPI   C4A 6644  16.145   1.866   9.393 -0.2620  0.1742  0.1861
  417POPI   C1B 6645  16.700   1.697  10.556  0.0649 -0.1970  0.4626
  417POPI   C2B 6646  16.528   1.669  10.098 -0.1770 -0.0178 -0.0614
  417POPI   C3B 6647  16.564   1.629   9.666  0.1203 -0.3988  0.2820
  417POPI   C4B 6648  16.534   1.469   9.292 -0.1909  0.2393 -0.1101
  418POPI    C1 6649  16.774   3.170  12.101  0.1949  0.1559  0.0368
  418POPI    C2 6650  16.832   2.968  12.441  0.0101  0.0951  0.0334
  418POPI    C3 6651  16.812   3.368  12.447 -0.2805  0.0814  0.1386
  418POPI   PO4 6652  16.923   3.124  11.946  0.2429  0.0054 -0.0676
  418POPI   GL1 6653  16.948   3.073  11.491  0.3319 -0.1097  0.0372
  418POPI   GL2 6654  16.884   2.738  11.400 -0.0085  0.0068 -0.2501
  418POPI   C1A 6655  16.927   3.215  10.972 -0.1040  0.1059 -0.0135
  418POPI   D2A 6656  16.938   3.094  10.592  0.0214 -0.2071 -0.0318
  418POPI   C3A 6657  16.904   3.178  10.145 -0.1038  0.1306 -0.2085
  418POPI   C4A 6658  16.885   3.194   9.735  0.0067 -0.1729 -0.2175
  418POPI   C1B 6659  16.820   2.748  11.011  0.0758 -0.0894  0.1529
  418POPI   C2B 6660  16.875   2.667  10.444  0.0989  0.1305  0.2506
  418POPI   C3B 6661  16.704   2.731  10.017  0.3508 -0.0914  0.1908
  418POPI   C4B 6662  16.719   2.601   9.661  0.0203  0.3016 -0.0477
  419POPI    C1 6663   2.260   2.155  11.876  0.1096  0.0186  0.1729
  419POPI    C2 6664   2.579   2.149  12.117 -0.1030 -0.1915  0.4573
  419POPI    C3 6665   2.243   2.329  12.236 -0.0869  0.0533  0.1481
  419POPI   PO4 6666   2.389   2.097  11.603  0.3802 -0.0298  0.2132
  419POPI   GL1 6667   2.615   2.246  11.284  0.0382 -0.2138  0.0015
  419POPI   GL2 6668   2.723   2.430  11.297 -0.3568  0.2524 -0.0540
  419POPI   C1A 6669   2.337   2.248  10.871  0.3913 -0.1603  0.0991
  419POPI   D2A 6670   2.197   2.150  10.463 -0.0882 -0.1803  0.4208
  419POPI   C3A 6671   2.339   2.241  10.079  0.1638  0.0416 -0.1693
  419POPI   C4A 6672   2.409   2.186   9.661  0.0252 -0.0316 -0.3116
  419POPI   C1B 6673   2.868   2.427  10.871  0.2658  0.2760 -0.2016
  419POPI   C2B 6674   2.953   2.837  10.586 -0.0453 -0.1216  0.0744
  419POPI   C3B 6675   2.953   2.935  10.138  0.2419 -0.0679  0.0960
  419POPI   C4B 6676   2.876   2.957   9.686 -0.1585  0.0967  0.1483
  420POPI    C1 6677  15.881   8.867  11.485 -0.1754 -0.1210  0.2280
  420POPI    C2 6678  15.755   8.588  11.228  0.0896  0.0143 -0.0571
  420POPI    C3 6679  15.764   8.510  11.621 -0.2202 -0.2323 -0.0946
  420POPI   PO4 6680  15.784   9.090  11.388 -0.1730  0.2670  0.0324
  420POPI   GL1 6681  16.019   9.170  11.053  0.1185  0.1427  0.0090
  420POPI   GL2 6682  16.136   8.861  11.020  0.1503  0.1477 -0.3041
  420POPI   C1A 6683  15.962   9.193  10.615  0.1150 -0.1154  0.2014
  420POPI   D2A 6684  15.874   9.199  10.244 -0.0412  0.0350  0.0230
  420POPI   C3A 6685  16.047   9.228   9.848 -0.2201 -0.1389 -0.1397
  420POPI   C4A 6686  16.248   9.338   9.520 -0.1324 -0.1295 -0.0688
  420POPI   C1B 6687  15.937   8.686  10.760 -0.0492  0.0343  0.0309
  420POPI   C2B 6688  15.975   8.742  10.380  0.1501  0.1785 -0.0825
  420POPI   C3B 6689  15.944   8.759   9.912  0.3334 -0.1568 -0.1103
  420POPI   C4B 6690  15.913   8.673   9.453 -0.0130  0.1001 -0.2322
  421POPI    C1 6691   2.837   7.182  11.740  0.0067 -0.1895 -0.0422
  421POPI    C2 6692   2.465   7.254  11.867  0.0631 -0.0067  0.0223
  421POPI    C3 6693   2.618   6.885  11.896 -0.0976 -0.0736  0.0336
  421POPI   PO4 6694   2.890   7.316  11.541  0.0038  0.0183 -0.2675
  421POPI   GL1 6695   2.615   7.483  11.191  0.0811 -0.4266  0.0085
  421POPI   GL2 6696   2.392   7.634  10.987  0.3252  0.0946  0.1626
  421POPI   C1A 6697   2.752   7.321  10.799  0.0226  0.0565 -0.4995
  421POPI   D2A 6698   2.751   7.393  10.387 -0.0059  0.0491 -0.1941
  421POPI   C3A 6699   3.007   7.103  10.182  0.1625  0.0950  0.2412
  421POPI   C4A 6700   3.085   6.974   9.756 -0.1463  0.0052  0.0819
  421POPI   C1B 6701   2.402   7.655  10.561 -0.0617 -0.0078  0.3552
  421POPI   C2B 6702   2.393   7.630  10.136  0.2997 -0.1467  0.1313
  421POPI   C3B 6703   2.585   7.345   9.876 -0.0346 -0.2049  0.1785
  421POPI   C4B 6704   2.624   7.180   9.531 -0.0335 -0.3190  0.0033
  422POPI    C1 6705  14.108   0.206  11.920 -0.0258  0.0436 -0.0876
  422POPI    C2 6706  14.001  -0.177  11.874 -0.1781  0.0872 -0.1016
  422POPI    C3 6707  14.187  -0.060  12.208  0.0742 -0.0430 -0.1940
  422POPI   PO4 6708  14.132   0.238  11.549 -0.2128  0.1668  0.1021
  422POPI   GL1 6709  13.800   0.122  11.277 -0.0328 -0.1195 -0.0045
  422POPI   GL2 6710  13.509   0.097  11.173 -0.3249  0.3051  0.2955
  422POPI   C1A 6711  14.013   0.162  10.884  0.1928  0.1728 -0.2655
  422POPI   D2A 6712  14.179   0.103  10.454  0.0499 -0.0602  0.0273
  422POPI   C3A 6713  14.172   0.188   9.975 -0.2088  0.0226 -0.0094
  422POPI   C4A 6714  14.183   0.091   9.485  0.2613 -0.1496 -0.0251
  422POPI   C1B 6715  13.600  -0.030  10.711 -0.3194  0.2260 -0.0505
  422POPI   C2B 6716  13.707  -0.112  10.338 -0.4736  0.0093  0.1348
  422POPI   C3B 6717  13.714  -0.144   9.890  0.1416 -0.0832 -0.1743
  422POPI   C4B 6718  13.698  -0.160   9.503 -0.0064  0.1475  0.3314
  423POPI    C1 6719   9.718  15.806  11.699  0.0255  0.0363  0.1023
  423POPI    C2 6720   9.475  16.124  11.690  0.1641  0.1387 -0.1299
  423POPI    C3 6721   9.796  16.124  11.929  0.0617  0.0951  0.0093
  423POPI   PO4 6722   9.853  15.817  11.448 -0.0949  0.2234 -0.0738
  423POPI   GL1 6723   9.826  15.579  11.070  0.0942 -0.1694 -0.1812
  423POPI   GL2 6724   9.950  15.845  10.849  0.0412 -0.1839 -0.1763
  423POPI   C1A 6725   9.962  15.411  10.653 -0.1887 -0.2232  0.0685
  423POPI   D2A 6726  10.039  15.363  10.197  0.2806 -0.0696  0.3250
  423POPI   C3A 6727   9.931  15.441   9.711  0.0167  0.1603  0.0348
  423POPI   C4A 6728   9.984  15.337   9.283 -0.3407 -0.3017  0.1356
  423POPI   C1B 6729   9.759  15.780  10.459  0.1801 -0.0312 -0.1443
  423POPI   C2B 6730   9.720  15.809  10.155 -0.2474  0.1856  0.2177
  423POPI   C3B 6731   9.616  15.861   9.701  0.1625 -0.1706  0.2629
  423POPI   C4B 6732   9.604  15.683   9.265 -0.1778 -0.1277  0.0461
  424POPI    C1 6733   5.545   8.590  11.387  0.0719  0.0440  0.0725
  424POPI    C2 6734   5.639   8.558  11.774  0.0020 -0.2111  0.0700
  424POPI    C3 6735   5.256   8.561  11.662  0.0102  0.2831  0.0352
  424POPI   PO4 6736   5.743   8.494  11.276  0.0769 -0.2967  0.2720
  424POPI   GL1 6737   5.789   8.391  10.849  0.0550 -0.1243 -0.0857
  424POPI   GL2 6738   6.062   8.490  10.783  0.2968 -0.0813  0.0120
  424POPI   C1A 6739   5.693   8.278  10.505 -0.3585 -0.3292  0.0691
  424POPI   D2A 6740   5.696   8.317  10.141 -0.0293  0.1326  0.1517
  424POPI   C3A 6741   5.810   8.292   9.698  0.0890  0.3336 -0.0596
  424POPI   C4A 6742   5.790   8.315   9.280 -0.2681 -0.2489 -0.0783
  424POPI   C1B 6743   6.163   8.443  10.319 -0.1572  0.3264  0.0902
  424POPI   C2B 6744   6.142   8.459   9.975  0.4306  0.1570  0.0308
  424POPI   C3B 6745   6.259   8.419   9.594 -0.0611 -0.3362 -0.2043
  424POPI   C4B 6746   6.268   8.340   9.167  0.0380 -0.0933 -0.2203
  425POPI    C1 6747   2.589   4.479  11.971  0.0505  0.0195  0.0838
  425POPI    C2 6748   2.791   4.628  12.283  0.1373 -0.2746  0.1714
  425POPI    C3 6749   2.411   4.513  12.328 -0.0156  0.1600  0.0381
  425POPI   PO4 6750   2.683   4.356  11.857 -0.1404 -0.0399  0.3464
  425POPI   GL1 6751   2.798   4.349  11.415  0.1242  0.4509  0.0279
  425POPI   GL2 6752   2.697   4.670  11.444 -0.2618 -0.3581  0.0579
  425POPI   C1A 6753   2.786   4.322  10.967  0.1252 -0.1740  0.4189
  425POPI   D2A 6754   2.705   4.332  10.568 -0.1896  0.0988  0.0379
  425POPI   C3A 6755   2.704   4.378  10.137 -0.1666  0.0639 -0.2200
  425POPI   C4A 6756   2.909   4.261   9.729 -0.2258 -0.3550 -0.2022
  425POPI   C1B 6757   2.842   4.882  11.090 -0.2490 -0.1036 -0.0192
  425POPI   C2B 6758   2.821   4.820  10.582 -0.3768 -0.1302 -0.0778
  425POPI   C3B 6759   2.855   4.838  10.121  0.0719 -0.2213  0.1290
  425POPI   C4B 6760   2.851   4.752   9.636 -0.1914 -0.0159 -0.0729
  426POPI    C1 6761  12.104  10.548  11.756  0.0258 -0.0654 -0.0781
  426POPI    C2 6762  11.801  10.336  11.909 -0.0006 -0.0514 -0.1105
  426POPI    C3 6763  11.864  10.711  12.032  0.1847 -0.1532  0.1148
  426POPI   PO4 6764  12.056  10.524  11.467 -0.0348  0.4711  0.0965
  426POPI   GL1 6765  12.034  10.545  11.097 -0.0345 -0.0478  0.2932
  426POPI   GL2 6766  11.782  10.415  10.999  0.2029 -0.1155  0.0505
  426POPI   C1A 6767  12.069  10.743  10.662  0.1479  0.3135 -0.5784
  426POPI   D2A 6768  11.975  10.726  10.204 -0.2842 -0.3873 -0.3197
  426POPI   C3A 6769  11.923  10.654   9.776 -0.0817  0.0823 -0.2317
  426POPI   C4A 6770  11.871  10.776   9.365 -0.0123  0.1867 -0.0938
  426POPI   C1B 6771  11.607  10.591  10.569 -0.0234 -0.2176  0.0114
  426POPI   C2B 6772  11.462  10.679  10.086  0.2350  0.0258 -0.2715
  426POPI   C3B 6773  11.337  10.607   9.668 -0.2270  0.1291  0.0443
  426POPI   C4B 6774  11.112  10.623   9.360  0.1902  0.0973  0.0659
  427POPI    C1 6775  10.230   5.617  11.591  0.0743 -0.1453 -0.1199
  427POPI    C2 6776   9.930   5.410  11.758 -0.0487 -0.1127 -0.2980
  427POPI    C3 6777  10.290   5.415  11.931 -0.2402  0.1338  0.1094
  427POPI   PO4 6778  10.121   5.655  11.377 -0.1842 -0.1676 -0.2066
  427POPI   GL1 6779  10.389   5.791  10.986 -0.0353  0.1459 -0.0499
  427POPI   GL2 6780  10.585   5.887  11.218 -0.0655 -0.0145  0.2933
  427POPI   C1A 6781  10.396   5.637  10.609 -0.2642 -0.1860  0.1624
  427POPI   D2A 6782  10.461   5.499  10.163 -0.3253 -0.1177  0.0668
  427POPI   C3A 6783  10.425   5.456   9.720 -0.0165  0.0884  0.0518
  427POPI   C4A 6784  10.537   5.379   9.200  0.3520  0.0890  0.0173
  427POPI   C1B 6785  10.876   5.779  10.819 -0.1393 -0.0360  0.0341
  427POPI   C2B 6786  10.914   5.692  10.348 -0.1963  0.0342  0.0032
  427POPI   C3B 6787  10.960   5.555   9.849  0.0153  0.3968  0.1645
  427POPI   C4B 6788  10.906   5.585   9.496 -0.2330  0.1143  0.0994
  428POPI    C1 6789   9.468   2.517  11.302 -0.1301 -0.1238 -0.0884
  428POPI    C2 6790   9.261   2.801  11.494  0.0606  0.0547 -0.1434
  428POPI    C3 6791   9.287   2.434  11.649 -0.0574  0.1092  0.0078
  428POPI   PO4 6792   9.339   2.498  11.051 -0.1885  0.2123  0.2381
  428POPI   GL1 6793   9.320   2.089  10.803  0.2069  0.0609 -0.0644
  428POPI   GL2 6794   9.246   1.783  10.581  0.1813  0.4165 -0.0421
  428POPI   C1A 6795   9.426   2.279  10.376 -0.1516 -0.2819 -0.3103
  428POPI   D2A 6796   9.387   2.239   9.950  0.0161  0.0792  0.1847
  428POPI   C3A 6797   9.367   2.276   9.525 -0.0200 -0.1576  0.1256
  428POPI   C4A 6798   9.367   2.365   9.169  0.0218 -0.0388 -0.0305
  428POPI   C1B 6799   9.241   1.764  10.167 -0.1073  0.0659  0.1452
  428POPI   C2B 6800   9.316   1.789   9.721 -0.2842  0.3385 -0.2137
  428POPI   C3B 6801   9.204   1.811   9.252  0.3428  0.0593 -0.1150
  428POPI   C4B 6802   9.221   1.884   8.840 -0.1170 -0.2965 -0.1822
  429POPI    C1 6803   4.563   5.416  11.953  0.2481  0.1620 -0.2507
  429POPI    C2 6804   4.808   5.507  12.256 -0.1137  0.1711  0.0463
  429POPI    C3 6805   4.438   5.657  12.247 -0.1814 -0.0071 -0.2884
  429POPI   PO4 6806   4.756   5.427  11.733  0.1507  0.2574  0.0460
  429POPI   GL1 6807   4.902   5.422  11.289 -0.0023  0.2004 -0.3168
  429POPI   GL2 6808   5.026   5.588  11.193 -0.0420 -0.1692 -0.1155
  429POPI   C1A 6809   4.718   5.218  10.931 -0.0875 -0.1089  0.0175
  429POPI   D2A 6810   4.594   5.117  10.550  0.0442  0.1608 -0.0212
  429POPI   C3A 6811   4.688   5.103  10.113 -0.0389 -0.1720  0.1920
  429POPI   C4A 6812   4.703   4.989   9.709  0.0678  0.0293  0.0115
  429POPI   C1B 6813   4.737   5.727  10.896 -0.0172 -0.0045 -0.0318
  429POPI   C2B 6814   4.735   5.577  10.437  0.1493  0.0438 -0.0308
  429POPI   C3B 6815   4.800   5.581   9.999  0.0314  0.1424 -0.3354
  429POPI   C4B 6816   4.663   5.558   9.526  0.1486  0.3188 -0.1343
  430POPI    C1 6817   9.569   3.351  11.519 -0.0503  0.3640 -0.0331
  430POPI    C2 6818   9.265   3.251  11.758 -0.0318 -0.0593 -0.1788
  430POPI    C3 6819   9.642   3.194  11.880 -0.0196 -0.0737 -0.2229
  430POPI   PO4 6820   9.459   3.516  11.387 -0.1367 -0.0380 -0.4601
  430POPI   GL1 6821   9.331   3.492  10.964 -0.0972 -0.0980  0.1681
  430POPI   GL2 6822   9.308   3.907  10.974 -0.1732  0.0571  0.0387
  430POPI   C1A 6823   9.162   3.602  10.581 -0.1132  0.1229  0.0163
  430POPI   D2A 6824   9.119   3.595  10.143 -0.1055 -0.1202  0.2980
  430POPI   C3A 6825   9.143   3.644   9.777 -0.2785 -0.3698  0.2856
  430POPI   C4A 6826   9.311   3.755   9.306  0.1752  0.0107 -0.0811
  430POPI   C1B 6827   9.491   3.977  10.523  0.0609  0.1554  0.1623
  430POPI   C2B 6828   9.425   3.991  10.177 -0.0073  0.0673 -0.0590
  430POPI   C3B 6829   9.585   3.888   9.803  0.2148 -0.1835 -0.1127
  430POPI   C4B 6830   9.827   3.791   9.437 -0.0565  0.0573 -0.1446
  431POPI    C1 6831   7.265   7.996  11.583  0.0405 -0.0471 -0.1444
  431POPI    C2 6832   7.085   7.648  11.663  0.2010 -0.1249 -0.1201
  431POPI    C3 6833   7.426   7.745  11.848  0.0510  0.1361  0.0253
  431POPI   PO4 6834   7.185   8.004  11.250 -0.2482 -0.2029  0.1503
  431POPI   GL1 6835   7.186   7.786  10.854  0.2816  0.1338  0.2623
  431POPI   GL2 6836   6.889   7.689  10.710  0.0295 -0.1631  0.1216
  431POPI   C1A 6837   7.347   7.573  10.450 -0.4114 -0.2227  0.0347
  431POPI   D2A 6838   7.368   7.373  10.122  0.0202 -0.2215 -0.1282
  431POPI   C3A 6839   7.394   7.445   9.659  0.5675  0.1992 -0.2153
  431POPI   C4A 6840   7.418   7.442   9.230 -0.1473  0.0040 -0.1712
  431POPI   C1B 6841   6.989   7.769  10.227  0.1648  0.0438 -0.5363
  431POPI   C2B 6842   7.025   7.753   9.882 -0.0809 -0.2928 -0.0369
  431POPI   C3B 6843   6.999   7.655   9.456 -0.2304 -0.1746  0.1239
  431POPI   C4B 6844   7.079   7.807   9.077  0.2582  0.0675 -0.1284
  432POPI    C1 6845   0.393   7.337  11.870 -0.1663 -0.0008 -0.5168
  432POPI    C2 6846   0.495   7.688  12.033  0.1764 -0.2367 -0.2072
  432POPI    C3 6847   0.146   7.517  12.129  0.0125  0.0106 -0.3516
  432POPI   PO4 6848   0.413   7.353  11.602  0.3828  0.1281  0.3734
  432POPI   GL1 6849   0.338   7.299  11.180  0.0199  0.0539  0.0094
  432POPI   GL2 6850   0.200   7.036  11.271 -0.1916  0.0752  0.2735
  432POPI   C1A 6851   0.469   7.146  10.841 -0.2277  0.0149  0.0301
  432POPI   D2A 6852   0.389   6.890  10.576  0.1570  0.1295 -0.1153
  432POPI   C3A 6853   0.395   6.839  10.130  0.3251 -0.0519 -0.1303
  432POPI   C4A 6854   0.383   6.872   9.650  0.0724 -0.1292  0.2023
  432POPI   C1B 6855   0.056   6.852  11.027 -0.4100 -0.1837  0.0713
  432POPI   C2B 6856  -0.113   6.741  10.561 -0.1737  0.0536 -0.0978
  432POPI   C3B 6857  -0.111   6.735  10.148  0.2343 -0.1385 -0.2704
  432POPI   C4B 6858  -0.042   6.620   9.644  0.1619 -0.0292 -0.1825
  433POPI    C1 6859  12.653  11.860  11.176  0.1451 -0.1363  0.0242
  433POPI    C2 6860  12.862  11.713  11.484 -0.0302  0.0140  0.2181
  433POPI    C3 6861  12.466  11.759  11.515 -0.0832 -0.1874 -0.1150
  433POPI   PO4 6862  12.829  11.804  10.980  0.3956 -0.1831  0.3789
  433POPI   GL1 6863  12.956  11.577  10.669 -0.2004  0.3107  0.0086
  433POPI   GL2 6864  13.300  11.489  10.753  0.0161  0.0838  0.1151
  433POPI   C1A 6865  12.958  11.642  10.197 -0.1341 -0.1031 -0.0626
  433POPI   D2A 6866  13.132  11.613   9.758  0.1440 -0.0748  0.0008
  433POPI   C3A 6867  13.084  11.382   9.430  0.0862  0.1450 -0.2248
  433POPI   C4A 6868  12.954  11.497   9.051 -0.1232 -0.1685 -0.1082
  433POPI   C1B 6869  13.484  11.728  10.421  0.1382  0.1049  0.0394
  433POPI   C2B 6870  13.580  11.794  10.001 -0.2909  0.0444  0.1650
  433POPI   C3B 6871  13.627  11.734   9.634  0.0544  0.0023  0.0095
  433POPI   C4B 6872  13.491  11.662   9.248 -0.2555 -0.1020 -0.0085
  434POPI    C1 6873   5.476   6.276  11.791  0.4097  0.0178 -0.0526
  434POPI    C2 6874   5.543   5.882  11.767  0.1771 -0.0255 -0.0195
  434POPI    C3 6875   5.299   6.027  12.049  0.2025  0.1351 -0.0786
  434POPI   PO4 6876   5.390   6.299  11.589  0.0650 -0.0628 -0.2213
  434POPI   GL1 6877   5.350   6.312  11.241 -0.1170  0.0041  0.0936
  434POPI   GL2 6878   5.265   6.032  11.135 -0.1596  0.1983  0.2916
  434POPI   C1A 6879   5.399   6.304  10.758 -0.1192 -0.0209 -0.1146
  434POPI   D2A 6880   5.282   6.267  10.353 -0.0892  0.0537  0.0410
  434POPI   C3A 6881   5.381   6.222   9.946 -0.1624 -0.1074  0.0256
  434POPI   C4A 6882   5.414   6.193   9.534  0.0766  0.0162 -0.0020
  434POPI   C1B 6883   5.236   5.796  10.785 -0.1625 -0.0306  0.0692
  434POPI   C2B 6884   5.241   5.734  10.331  0.1887 -0.0600 -0.0716
  434POPI   C3B 6885   5.266   5.766   9.858 -0.0069 -0.1385  0.0016
  434POPI   C4B 6886   5.164   5.702   9.398 -0.0936  0.0202  0.0901
  435POPI    C1 6887  13.232   1.927  11.598 -0.0361 -0.0738 -0.2160
  435POPI    C2 6888  13.274   1.920  11.995 -0.0850  0.0118 -0.2092
  435POPI    C3 6889  13.004   2.162  11.826 -0.1956 -0.1619 -0.2834
  435POPI   PO4 6890  13.184   1.720  11.531  0.3012 -0.6581  0.2691
  435POPI   GL1 6891  13.209   1.515  11.166  0.0227  0.0293 -0.1461
  435POPI   GL2 6892  12.993   1.719  11.081  0.2487 -0.0933  0.1185
  435POPI   C1A 6893  13.437   1.450  10.820 -0.1292  0.1747  0.1383
  435POPI   D2A 6894  13.473   1.281  10.409  0.2059  0.0978  0.1139
  435POPI   C3A 6895  13.415   1.343  10.035 -0.1273 -0.3115 -0.1303
  435POPI   C4A 6896  13.450   1.390   9.608 -0.0188 -0.0503  0.0823
  435POPI   C1B 6897  13.035   1.612  10.569 -0.0989  0.0802  0.2260
  435POPI   C2B 6898  13.016   1.674  10.024  0.0342 -0.3129 -0.0093
  435POPI   C3B 6899  13.050   1.635   9.588  0.2177  0.2439 -0.2007
  435POPI   C4B 6900  13.070   1.543   9.155  0.0948 -0.1477 -0.0202
  436POPI    C1 6901  16.162   0.843  12.217 -0.2017  0.0639 -0.0698
  436POPI    C2 6902  16.552   0.856  12.302 -0.2160  0.1991 -0.0236
  436POPI    C3 6903  16.284   0.969  12.577 -0.2927  0.0076 -0.0185
  436POPI   PO4 6904  16.174   0.888  11.928  0.2274 -0.1633  0.0394
  436POPI   GL1 6905  16.191   0.830  11.518 -0.0652  0.0731  0.1190
  436POPI   GL2 6906  15.920   0.574  11.523 -0.0257  0.1473  0.1262
  436POPI   C1A 6907  16.141   1.013  11.140 -0.0782  0.1385  0.0840
  436POPI   D2A 6908  16.139   1.014  10.784 -0.2428  0.2157  0.2163
  436POPI   C3A 6909  16.036   1.040  10.266  0.0712 -0.0695  0.2083
  436POPI   C4A 6910  16.041   0.954   9.821  0.0032  0.0890 -0.0164
  436POPI   C1B 6911  16.098   0.520  11.132 -0.0170  0.0436 -0.0388
  436POPI   C2B 6912  16.131   0.473  10.690  0.2752 -0.0583  0.0759
  436POPI   C3B 6913  16.060   0.572  10.320 -0.1408  0.2692  0.1388
  436POPI   C4B 6914  15.977   0.455   9.947  0.2279  0.2505  0.0502
  437POPI    C1 6915   7.149   9.496  11.611  0.1060 -0.1876  0.1103
  437POPI    C2 6916   7.291   9.163  11.781  0.0099 -0.1286  0.3094
  437POPI    C3 6917   7.165   9.466  12.009 -0.2376 -0.0961  0.1340
  437POPI   PO4 6918   7.238   9.581  11.311 -0.0243 -0.1793  0.0797
  437POPI   GL1 6919   6.923   9.686  10.961 -0.3249  0.0903  0.0045
  437POPI   GL2 6920   6.843   9.558  10.721 -0.0276  0.3816  0.1261
  437POPI   C1A 6921   7.310   9.815  10.729 -0.3225  0.0163  0.1057
  437POPI   D2A 6922   7.531   9.753  10.346 -0.0244  0.2544  0.0126
  437POPI   C3A 6923   7.493   9.777   9.829 -0.0870  0.2437 -0.1063
  437POPI   C4A 6924   7.520   9.784   9.385  0.0299 -0.0470 -0.1014
  437POPI   C1B 6925   6.976   9.593  10.303  0.0094 -0.2755  0.0787
  437POPI   C2B 6926   6.993   9.568   9.836  0.0899 -0.0168  0.0439
  437POPI   C3B 6927   6.970   9.591   9.438  0.1484  0.1490  0.0724
  437POPI   C4B 6928   7.068   9.643   9.039  0.2604  0.2406 -0.0876
  438POPI    C1 6929  10.130   9.247  11.465 -0.0046  0.1418  0.1059
  438POPI    C2 6930   9.984   9.082  11.799  0.0576  0.0740  0.0997
  438POPI    C3 6931  10.071   9.472  11.791  0.0566  0.0757  0.1629
  438POPI   PO4 6932   9.957   9.037  11.289 -0.0982  0.3762  0.3533
  438POPI   GL1 6933   9.751   9.153  10.801  0.1099 -0.2443  0.1582
  438POPI   GL2 6934  10.036   9.305  10.675 -0.0293 -0.0086 -0.1830
  438POPI   C1A 6935   9.580   9.205  10.318 -0.4634  0.3363 -0.3524
  438POPI   D2A 6936   9.529   9.089   9.793  0.1541  0.3240  0.0316
  438POPI   C3A 6937   9.623   9.103   9.367  0.1479  0.1674 -0.0877
  438POPI   C4A 6938   9.615   9.008   8.896 -0.4299  0.1384  0.0022
  438POPI   C1B 6939  10.091   9.313  10.192  0.3507  0.0330  0.1216
  438POPI   C2B 6940  10.114   9.272   9.740  0.1288  0.1822 -0.2014
  438POPI   C3B 6941  10.096   9.320   9.341 -0.1493 -0.0796 -0.2713
  438POPI   C4B 6942  10.077   9.144   8.963 -0.0240 -0.0681 -0.1720
  439POPI    C1 6943   9.661  16.614  11.074 -0.1730  0.0712  0.0139
  439POPI    C2 6944   9.698  16.516  11.460  0.1929 -0.0033 -0.0360
  439POPI    C3 6945   9.635  16.231  11.187 -0.3304  0.0751 -0.0075
  439POPI   PO4 6946   9.902  16.789  11.001  0.2376 -0.3776  0.0469
  439POPI   GL1 6947  10.135  16.781  10.726 -0.0492  0.0675  0.0409
  439POPI   GL2 6948  10.062  17.077  10.613  0.0293  0.1834 -0.0352
  439POPI   C1A 6949  10.397  16.831  10.355 -0.1824  0.0609  0.0783
  439POPI   D2A 6950  10.356  16.741   9.893  0.2027  0.0672 -0.1422
  439POPI   C3A 6951  10.666  16.715   9.581 -0.4706 -0.0100  0.0819
  439POPI   C4A 6952  10.876  16.667   9.205  0.0674  0.3729 -0.1888
  439POPI   C1B 6953   9.977  16.981  10.165  0.1202  0.0975 -0.0861
  439POPI   C2B 6954   9.885  16.910   9.761 -0.0129 -0.0924 -0.0697
  439POPI   C3B 6955  10.117  16.680   9.489 -0.0376 -0.1747 -0.0217
  439POPI   C4B 6956  10.122  16.683   9.105 -0.2169  0.1110 -0.3346
  440POPI    C1 6957   7.350   0.256  11.426  0.0333  0.0182 -0.0044
  440POPI    C2 6958   7.489  -0.053  11.213 -0.0634  0.1148 -0.2101
  440POPI    C3 6959   7.674   0.057  11.550 -0.1390 -0.2853 -0.0330
  440POPI   PO4 6960   7.231   0.473  11.298  0.0434 -0.1731  0.0406
  440POPI   GL1 6961   6.888   0.426  11.075 -0.0340 -0.1515 -0.2869
  440POPI   GL2 6962   7.161   0.183  10.918  0.3987  0.3567 -0.0060
  440POPI   C1A 6963   6.760   0.467  10.664 -0.0686 -0.1290  0.4395
  440POPI   D2A 6964   6.624   0.392  10.192 -0.0873 -0.1482  0.1001
  440POPI   C3A 6965   6.319   0.743   9.955 -0.0614 -0.0430  0.0834
  440POPI   C4A 6966   6.197   0.721   9.494  0.0609  0.0957  0.0525
  440POPI   C1B 6967   6.964   0.050  10.561  0.1048 -0.2532  0.2256
  440POPI   C2B 6968   6.991  -0.032  10.075 -0.0263 -0.0417 -0.3166
  440POPI   C3B 6969   7.127   0.002   9.630  0.2886 -0.0845 -0.3320
  440POPI   C4B 6970   7.073   0.088   9.133 -0.1430 -0.1528  0.0737
  441POPI    C1 6971   0.166   8.126  11.423  0.0446 -0.0753 -0.1306
  441POPI    C2 6972   0.319   7.798  11.253 -0.1548 -0.2066 -0.0615
  441POPI    C3 6973   0.161   7.777  11.620 -0.2064 -0.0419 -0.0735
  441POPI   PO4 6974   0.017   8.227  11.252 -0.1217  0.5037  0.0393
  441POPI   GL1 6975  -0.152   7.985  10.915  0.0000 -0.1434  0.2943
  441POPI   GL2 6976  -0.479   8.035  10.880  0.1970 -0.0946  0.0573
  441POPI   C1A 6977  -0.065   8.066  10.550 -0.0201 -0.1282 -0.1615
  441POPI   D2A 6978  -0.052   8.247  10.168  0.2129 -0.1644  0.3160
  441POPI   C3A 6979   0.024   8.084   9.775 -0.0758  0.3381  0.0087
  441POPI   C4A 6980   0.152   8.304   9.380 -0.1212 -0.1470  0.1807
  441POPI   C1B 6981  -0.499   8.053  10.397  0.1026 -0.1122 -0.1208
  441POPI   C2B 6982  -0.520   8.094   9.945  0.0471 -0.1543 -0.0305
  441POPI   C3B 6983  -0.440   8.000   9.583 -0.1312  0.0966  0.2324
  441POPI   C4B 6984  -0.402   7.823   9.092  0.1927 -0.2165  0.0634
  442POPI    C1 6985  15.308  13.176  11.801 -0.0831 -0.0683  0.1647
  442POPI    C2 6986  15.579  12.904  11.913  0.2700  0.2154  0.0191
  442POPI    C3 6987  15.501  13.217  12.149 -0.0647  0.0442  0.1416
  442POPI   PO4 6988  15.103  13.025  11.709  0.0331  0.3227 -0.0787
  442POPI   GL1 6989  15.010  12.907  11.308  0.0916 -0.1695 -0.1648
  442POPI   GL2 6990  15.219  12.810  11.131 -0.1372  0.2716 -0.0672
  442POPI   C1A 6991  14.839  13.108  10.915  0.0977 -0.1089 -0.0072
  442POPI   D2A 6992  14.765  13.256  10.515 -0.0472  0.1758 -0.2392
  442POPI   C3A 6993  14.859  13.219  10.146 -0.0337  0.1792 -0.0037
  442POPI   C4A 6994  14.786  13.168   9.712 -0.2121  0.0787  0.0293
  442POPI   C1B 6995  15.286  12.825  10.642 -0.2022  0.0348 -0.0017
  442POPI   C2B 6996  15.262  12.851  10.266  0.3300 -0.1783 -0.2764
  442POPI   C3B 6997  15.242  12.880   9.835 -0.1508  0.0627 -0.0531
  442POPI   C4B 6998  15.128  12.825   9.426 -0.2335  0.0520 -0.0308
  443POPI    C1 6999  11.214   5.107  11.831 -0.0833 -0.0059 -0.0243
  443POPI    C2 7000  11.217   5.360  11.522 -0.1684  0.0008 -0.0200
  443POPI    C3 7001  11.135   5.494  11.889  0.0492  0.0142  0.0252
  443POPI   PO4 7002  11.501   5.016  11.756 -0.1479  0.0072 -0.1222
  443POPI   GL1 7003  11.614   4.984  11.280 -0.1257  0.0880 -0.2619
  443POPI   GL2 7004  11.230   4.884  11.243 -0.1194 -0.0326  0.0086
  443POPI   C1A 7005  11.682   5.119  10.853  0.0047 -0.3881  0.0763
  443POPI   D2A 7006  11.769   5.062  10.440  0.1004 -0.1684 -0.0686
  443POPI   C3A 7007  11.739   5.056  10.015 -0.2103  0.3207 -0.2092
  443POPI   C4A 7008  11.741   4.999   9.538 -0.0516  0.1354  0.0056
  443POPI   C1B 7009  11.240   4.975  10.850  0.0274 -0.0847 -0.1339
  443POPI   C2B 7010  11.200   4.881  10.499  0.1163 -0.0831  0.0472
  443POPI   C3B 7011  11.205   4.821  10.062 -0.3610  0.0388  0.0106
  443POPI   C4B 7012  11.237   4.801   9.655 -0.0927 -0.1352 -0.0650
  444POPI    C1 7013   2.818   0.262  11.792  0.1801  0.0894  0.0353
  444POPI    C2 7014   2.805  -0.067  12.019 -0.3218  0.0298 -0.0696
  444POPI    C3 7015   2.515   0.208  12.047 -0.1634  0.2285 -0.3322
  444POPI   PO4 7016   2.826   0.185  11.534  0.0929  0.0596 -0.1240
  444POPI   GL1 7017   2.587   0.189  11.129  0.1292  0.2534 -0.1479
  444POPI   GL2 7018   2.533  -0.181  11.161 -0.0910 -0.4301 -0.0525
  444POPI   C1A 7019   2.537   0.324  10.801 -0.0125 -0.1883 -0.3338
  444POPI   D2A 7020   2.513   0.419  10.464 -0.3849  0.0379 -0.1775
  444POPI   C3A 7021   2.509   0.378   9.954  0.0067  0.2664 -0.0250
  444POPI   C4A 7022   2.538   0.334   9.596  0.0321  0.1196 -0.0683
  444POPI   C1B 7023   2.419  -0.143  10.708 -0.1667 -0.0821  0.3912
  444POPI   C2B 7024   2.413  -0.186  10.152 -0.1439  0.0515  0.3661
  444POPI   C3B 7025   2.391  -0.166   9.743  0.0399  0.1447 -0.0997
  444POPI   C4B 7026   2.292   0.029   9.300  0.0309 -0.1154 -0.1810
  445POPI    C1 7027  13.716   3.602  11.787 -0.0221  0.0137  0.0430
  445POPI    C2 7028  13.793   3.957  11.955  0.0006 -0.0059  0.0743
  445POPI    C3 7029  13.665   3.653  12.181 -0.1910  0.0325  0.0195
  445POPI   PO4 7030  13.548   3.704  11.597  0.2216  0.6010 -0.1403
  445POPI   GL1 7031  13.749   3.671  11.223  0.2181  0.0085  0.0860
  445POPI   GL2 7032  13.826   3.830  10.973  0.0553 -0.1949 -0.2988
  445POPI   C1A 7033  13.668   3.443  10.720 -0.0403  0.1405 -0.0095
  445POPI   D2A 7034  13.690   3.335  10.287  0.2898 -0.1740 -0.0778
  445POPI   C3A 7035  13.792   3.469   9.990 -0.0727  0.2098 -0.0489
  445POPI   C4A 7036  13.848   3.433   9.592 -0.0919 -0.2429 -0.1797
  445POPI   C1B 7037  13.857   4.033  10.491 -0.0469 -0.3241 -0.2370
  445POPI   C2B 7038  13.873   3.929  10.117 -0.0377 -0.3534  0.1063
  445POPI   C3B 7039  13.882   3.916   9.757  0.2912  0.3087  0.2570
  445POPI   C4B 7040  13.747   3.866   9.319  0.1936 -0.2272 -0.1418
  446POPI    C1 7041  15.631  14.762  11.802  0.2875  0.2084 -0.0199
  446POPI    C2 7042  15.857  14.523  12.031  0.1307 -0.1562 -0.2361
  446POPI    C3 7043  15.458  14.503  12.053  0.1113  0.3243 -0.0205
  446POPI   PO4 7044  15.762  14.790  11.610 -0.4551  0.2704  0.0528
  446POPI   GL1 7045  15.750  14.859  11.167  0.0504  0.1496 -0.2850
  446POPI   GL2 7046  15.430  14.997  11.082 -0.0534 -0.4186  0.0262
  446POPI   C1A 7047  16.002  15.048  10.946  0.1855 -0.2173 -0.0885
  446POPI   D2A 7048  16.107  15.223  10.572  0.0834 -0.1746 -0.3756
  446POPI   C3A 7049  16.057  15.161  10.202 -0.3989 -0.0650 -0.2241
  446POPI   C4A 7050  16.149  15.117   9.743  0.3113 -0.1089 -0.0231
  446POPI   C1B 7051  15.519  14.940  10.687  0.2104  0.0482 -0.3575
  446POPI   C2B 7052  15.637  14.976  10.294 -0.1816 -0.2419  0.0437
  446POPI   C3B 7053  15.637  14.966   9.828  0.0419  0.0624 -0.0519
  446POPI   C4B 7054  15.551  14.978   9.379 -0.3252  0.3518  0.0742
  447POPI    C1 7055   1.693   1.454  11.838  0.0735  0.0292  0.0357
  447POPI    C2 7056   1.852   1.820  11.811  0.0004  0.0657  0.0970
  447POPI    C3 7057   2.085   1.506  11.894  0.0594  0.1017  0.0678
  447POPI   PO4 7058   1.505   1.463  11.681  0.1301  0.0313  0.1052
  447POPI   GL1 7059   1.434   1.538  11.205 -0.1461  0.1965 -0.2256
  447POPI   GL2 7060   1.726   1.672  11.308  0.0754 -0.0851  0.3905
  447POPI   C1A 7061   1.252   1.437  10.883  0.1159 -0.0956 -0.2653
  447POPI   D2A 7062   1.241   1.411  10.428  0.1390 -0.0077 -0.3600
  447POPI   C3A 7063   1.207   1.376  10.023 -0.5884  0.0959 -0.2947
  447POPI   C4A 7064   1.289   1.351   9.612  0.3931 -0.0184 -0.2248
  447POPI   C1B 7065   1.735   1.562  10.827  0.3537  0.1528 -0.0322
  447POPI   C2B 7066   1.663   1.643  10.454  0.3960 -0.1416 -0.0963
  447POPI   C3B 7067   1.683   1.586  10.089  0.1280 -0.0617  0.0007
  447POPI   C4B 7068   1.785   1.556   9.652  0.0052 -0.0440  0.0081
  448POPI    C1 7069   8.548  16.872  11.475 -0.0480 -0.0577  0.1960
  448POPI    C2 7070   8.568  17.271  11.499  0.3535 -0.0674  0.1035
  448POPI    C3 7071   8.658  17.047  11.818  0.0920 -0.0867  0.1665
  448POPI   PO4 7072   8.407  16.826  11.227 -0.0393 -0.2276 -0.0056
  448POPI   GL1 7073   8.362  16.562  10.844  0.1390  0.1138 -0.0850
  448POPI   GL2 7074   8.066  16.659  10.948  0.2671  0.0856 -0.1254
  448POPI   C1A 7075   8.223  16.441  10.430  0.1459 -0.3417 -0.0629
  448POPI   D2A 7076   8.246  16.512  10.084  0.1007  0.0477  0.0585
  448POPI   C3A 7077   8.165  16.277   9.718 -0.1310 -0.0576 -0.3072
  448POPI   C4A 7078   8.340  16.211   9.369 -0.0610  0.0741  0.0580
  448POPI   C1B 7079   7.783  16.619  10.674  0.1909  0.4114  0.2589
  448POPI   C2B 7080   7.744  16.476  10.231  0.0508 -0.2763  0.0361
  448POPI   C3B 7081   7.724  16.520   9.781 -0.1665  0.1179  0.0547
  448POPI   C4B 7082   7.943  16.543   9.339  0.0218  0.1774 -0.0807
  449POPI    C1 7083  17.044   1.533  12.127 -0.0640 -0.4383 -0.1002
  449POPI    C2 7084  17.353   1.300  12.229  0.1706 -0.1270 -0.0860
  449POPI    C3 7085  17.418   1.675  12.105 -0.2104 -0.0181  0.0312
  449POPI   PO4 7086  16.848   1.427  11.868  0.1905 -0.0595  0.0625
  449POPI   GL1 7087  16.922   1.360  11.404 -0.1444 -0.1333  0.0020
  449POPI   GL2 7088  17.082   1.036  11.379 -0.1521  0.2801 -0.0050
  449POPI   C1A 7089  17.082   1.365  11.040  0.0174 -0.3052 -0.0747
  449POPI   D2A 7090  17.141   1.261  10.639 -0.0867  0.1675  0.2065
  449POPI   C3A 7091  17.017   1.305  10.251 -0.0685 -0.0892 -0.2312
  449POPI   C4A 7092  16.968   1.301   9.865 -0.0680  0.4137 -0.3332
  449POPI   C1B 7093  17.024   0.828  10.992  0.1331  0.1153 -0.0125
  449POPI   C2B 7094  16.970   0.746  10.609  0.1298 -0.0837  0.0646
  449POPI   C3B 7095  17.006   0.832  10.168  0.5534  0.3627 -0.2129
  449POPI   C4B 7096  16.961   0.804   9.783  0.2088 -0.1351 -0.1430
  450POPI    C1 7097  15.651   6.913  11.812 -0.1148  0.1075 -0.2014
  450POPI    C2 7098  15.300   7.053  11.944  0.0465  0.1965  0.1442
  450POPI    C3 7099  15.535   6.841  12.188  0.0158 -0.2875 -0.2326
  450POPI   PO4 7100  15.602   6.773  11.523  0.0625 -0.0136 -0.2402
  450POPI   GL1 7101  15.749   6.482  11.262 -0.0058  0.0279 -0.0248
  450POPI   GL2 7102  15.686   6.173  11.144 -0.2481 -0.0502 -0.1738
  450POPI   C1A 7103  15.590   6.686  10.905 -0.0984  0.1149  0.0366
  450POPI   D2A 7104  15.565   6.642  10.540 -0.0736  0.0826 -0.0968
  450POPI   C3A 7105  15.663   6.606   9.940  0.1769  0.1447  0.0484
  450POPI   C4A 7106  15.735   6.480   9.511  0.0321  0.0698 -0.0624
  450POPI   C1B 7107  15.523   6.154  10.738 -0.0800 -0.2386 -0.1610
  450POPI   C2B 7108  15.592   6.101  10.293 -0.1931  0.0760  0.0272
  450POPI   C3B 7109  15.507   6.032   9.906 -0.0618 -0.0208  0.0777
  450POPI   C4B 7110  15.492   5.994   9.477 -0.3541  0.2468  0.1711
  451POPI    C1 7111  12.111   7.471  11.538 -0.1152  0.0155 -0.0683
  451POPI    C2 7112  12.219   7.794  11.747 -0.1876  0.0731 -0.1194
  451POPI    C3 7113  12.234   7.432  11.917 -0.1368  0.1066 -0.0517
  451POPI   PO4 7114  12.200   7.439  11.315  0.2327 -0.1836 -0.0019
  451POPI   GL1 7115  12.183   7.379  10.908 -0.3588  0.0606  0.0340
  451POPI   GL2 7116  11.776   7.309  10.959 -0.1572  0.0830  0.1842
  451POPI   C1A 7117  12.026   7.254  10.525  0.0709 -0.0317 -0.2270
  451POPI   D2A 7118  11.978   6.986  10.155  0.1017 -0.0116  0.0297
  451POPI   C3A 7119  12.049   7.137   9.789 -0.3703 -0.2224  0.0278
  451POPI   C4A 7120  12.055   6.915   9.337 -0.3695  0.2736 -0.0286
  451POPI   C1B 7121  11.551   7.080  10.581 -0.4051 -0.0195 -0.2143
  451POPI   C2B 7122  11.518   6.902  10.173  0.1714  0.0031 -0.0205
  451POPI   C3B 7123  11.512   6.816   9.765  0.1774  0.1505  0.0371
  451POPI   C4B 7124  11.598   6.661   9.386 -0.1398  0.0357 -0.0999
  452POPI    C1 7125   4.917  10.291  11.444  0.2212 -0.0166 -0.0565
  452POPI    C2 7126   5.119  10.154  11.761 -0.2560 -0.1850  0.1849
  452POPI    C3 7127   4.906  10.491  11.790  0.1972  0.1424 -0.1485
  452POPI   PO4 7128   4.913  10.048  11.240 -0.0246 -0.0578 -0.1818
  452POPI   GL1 7129   4.711   9.952  10.769 -0.1201 -0.1319 -0.0578
  452POPI   GL2 7130   4.826  10.114  10.661  0.1145 -0.1220 -0.1609
  452POPI   C1A 7131   4.480   9.929  10.320 -0.0869  0.0391  0.0779
  452POPI   D2A 7132   4.521  10.052   9.873 -0.0910  0.0586 -0.1424
  452POPI   C3A 7133   4.562   9.714   9.529  0.0282 -0.1942  0.2382
  452POPI   C4A 7134   4.776   9.677   9.120  0.0493  0.0794  0.1323
  452POPI   C1B 7135   4.885  10.138  10.122  0.0206  0.0642 -0.3286
  452POPI   C2B 7136   4.975  10.242   9.744 -0.0594 -0.1133 -0.1387
  452POPI   C3B 7137   4.912  10.099   9.287 -0.0463 -0.1078 -0.0492
  452POPI   C4B 7138   5.128  10.160   8.882 -0.1262 -0.0126  0.0321
  453POPI    C1 7139   7.852   7.490  11.255  0.0035 -0.2937 -0.0689
  453POPI    C2 7140   7.558   7.408  10.996 -0.1211 -0.0782  0.0024
  453POPI    C3 7141   7.477   7.599  11.338  0.1020 -0.0158  0.0226
  453POPI   PO4 7142   8.032   7.256  11.267  0.0769 -0.3666  0.0031
  453POPI   GL1 7143   7.996   7.125  10.938 -0.2603  0.2135  0.2800
  453POPI   GL2 7144   8.177   6.734  10.734  0.0029 -0.0424 -0.0790
  453POPI   C1A 7145   7.776   7.162  10.561 -0.0478 -0.1496  0.2794
  453POPI   D2A 7146   7.845   7.077  10.168 -0.0576 -0.2468  0.1090
  453POPI   C3A 7147   7.805   7.078   9.785 -0.1151 -0.0619 -0.2345
  453POPI   C4A 7148   7.846   7.024   9.365 -0.0274  0.0996  0.2504
  453POPI   C1B 7149   8.282   6.670  10.388  0.3441  0.1282  0.1453
  453POPI   C2B 7150   8.200   6.697   9.932  0.0692  0.0528 -0.0099
  453POPI   C3B 7151   8.326   6.736   9.493  0.0251 -0.0600 -0.3104
  453POPI   C4B 7152   8.464   6.717   9.039  0.0704  0.2747 -0.0299
  454POPI    C1 7153  14.806   5.461  11.593  0.0062 -0.1955 -0.3640
  454POPI    C2 7154  15.190   5.415  11.491  0.1006 -0.2577  0.0054
  454POPI    C3 7155  15.093   5.625  11.818 -0.1837 -0.2059 -0.1090
  454POPI   PO4 7156  14.630   5.627  11.462 -0.0428 -0.1403 -0.0887
  454POPI   GL1 7157  14.196   5.574  11.274 -0.0310 -0.0877  0.4160
  454POPI   GL2 7158  13.960   5.456  11.100 -0.2745  0.2206  0.1873
  454POPI   C1A 7159  14.348   5.551  10.825  0.1273 -0.2065 -0.1334
  454POPI   D2A 7160  14.417   5.486  10.363 -0.0303  0.0726 -0.2962
  454POPI   C3A 7161  14.499   5.621   9.995 -0.0582 -0.0471 -0.0128
  454POPI   C4A 7162  14.659   5.627   9.581 -0.1328  0.1416  0.1508
  454POPI   C1B 7163  13.932   5.502  10.564  0.1405 -0.1892  0.3413
  454POPI   C2B 7164  14.038   5.506  10.128  0.4514  0.2903  0.1389
  454POPI   C3B 7165  14.115   5.378   9.721  0.2490  0.0020 -0.1437
  454POPI   C4B 7166  14.179   5.329   9.258 -0.0931  0.4192  0.1505
  455POPI    C1 7167   8.254   0.872  11.590  0.1725 -0.4485 -0.0653
  455POPI    C2 7168   8.088   0.748  11.932 -0.0050  0.0943  0.0550
  455POPI    C3 7169   8.390   1.010  11.940  0.2159 -0.1468 -0.1979
  455POPI   PO4 7170   8.014   0.785  11.395  0.0235  0.1030  0.2051
  455POPI   GL1 7171   8.019   0.833  11.013  0.0974 -0.1886 -0.0553
  455POPI   GL2 7172   8.167   1.160  10.984 -0.0099 -0.3548 -0.0896
  455POPI   C1A 7173   8.214   0.660  10.570  0.1222 -0.1024  0.1583
  455POPI   D2A 7174   8.384   0.636  10.209  0.0524  0.0249  0.1016
  455POPI   C3A 7175   8.213   0.858   9.830 -0.0152  0.2348  0.0147
  455POPI   C4A 7176   8.165   0.937   9.470  0.0515 -0.1028 -0.0314
  455POPI   C1B 7177   8.043   1.134  10.542  0.1612 -0.1693 -0.3169
  455POPI   C2B 7178   7.866   1.275  10.182  0.2721 -0.2796 -0.0510
  455POPI   C3B 7179   7.879   1.242   9.825  0.2354 -0.2451  0.1377
  455POPI   C4B 7180   7.611   1.311   9.523  0.1597 -0.0494  0.0120
  456POPI    C1 7181   4.236  14.150  11.565 -0.1278  0.2551 -0.0760
  456POPI    C2 7182   4.024  14.302  11.867  0.0056 -0.0900  0.1988
  456POPI    C3 7183   4.417  14.240  11.910  0.0651  0.0473 -0.1202
  456POPI   PO4 7184   4.051  14.166  11.379 -0.2783  0.0590 -0.0729
  456POPI   GL1 7185   3.829  14.132  11.072 -0.3481  0.2528  0.1905
  456POPI   GL2 7186   3.506  14.147  11.062  0.2245 -0.0433  0.5711
  456POPI   C1A 7187   3.730  14.023  10.614  0.2441  0.1364  0.0350
  456POPI   D2A 7188   3.825  14.107  10.121  0.0426  0.0827  0.0878
  456POPI   C3A 7189   3.711  14.079   9.687 -0.3930  0.2017  0.1954
  456POPI   C4A 7190   3.599  14.058   9.268 -0.3205  0.1079 -0.2264
  456POPI   C1B 7191   3.368  14.377  10.629 -0.0370  0.4529 -0.3772
  456POPI   C2B 7192   3.340  14.423  10.255 -0.1134  0.1539 -0.1233
  456POPI   C3B 7193   3.238  14.458   9.816  0.0925 -0.1665 -0.2241
  456POPI   C4B 7194   3.384  14.494   9.408 -0.0136 -0.4392  0.1294
  457POPI    C1 7195  10.642  13.527  11.390 -0.0849 -0.1027 -0.0166
  457POPI    C2 7196  10.829  13.724  11.684 -0.0739  0.1927 -0.2167
  457POPI    C3 7197  10.526  13.477  11.769  0.1873 -0.0346  0.0784
  457POPI   PO4 7198  10.753  13.395  11.220 -0.1619 -0.0312 -0.0775
  457POPI   GL1 7199  10.896  13.550  10.878  0.0934  0.1099 -0.1561
  457POPI   GL2 7200  11.096  13.249  10.759 -0.0035 -0.0857  0.2237
  457POPI   C1A 7201  10.990  13.746  10.475  0.1782  0.1419 -0.0244
  457POPI   D2A 7202  11.079  13.901  10.015  0.3151  0.2492 -0.0538
  457POPI   C3A 7203  11.110  13.886   9.595 -0.0757 -0.0868  0.2814
  457POPI   C4A 7204  11.156  13.699   9.272 -0.2792  0.1856  0.1307
  457POPI   C1B 7205  11.010  13.193  10.390  0.1113  0.0032 -0.3171
  457POPI   C2B 7206  11.013  13.333  10.016 -0.0913 -0.2412  0.0630
  457POPI   C3B 7207  10.940  13.417   9.624 -0.3887  0.1977  0.1428
  457POPI   C4B 7208  11.003  13.224   9.235 -0.0090 -0.0872  0.1529
  458POPI    C1 7209   4.672   7.931  11.687 -0.2370 -0.0902  0.1235
  458POPI    C2 7210   4.905   7.688  11.903  0.0992 -0.0496 -0.1835
  458POPI    C3 7211   5.040   8.048  11.793 -0.2224  0.0932 -0.1217
  458POPI   PO4 7212   4.575   7.737  11.480  0.1102  0.3345 -0.4108
  458POPI   GL1 7213   4.454   7.564  11.143 -0.2284 -0.2030 -0.0914
  458POPI   GL2 7214   4.299   7.297  11.325 -0.1441  0.0066 -0.0941
  458POPI   C1A 7215   4.607   7.528  10.678  0.1469  0.1950  0.0993
  458POPI   D2A 7216   4.654   7.425  10.297 -0.0376 -0.0328  0.1235
  458POPI   C3A 7217   4.601   7.420   9.849 -0.0960  0.0514  0.0720
  458POPI   C4A 7218   4.710   7.373   9.480 -0.1998  0.3327 -0.2356
  458POPI   C1B 7219   4.468   7.054  11.013  0.0919 -0.0718 -0.0774
  458POPI   C2B 7220   4.496   6.984  10.578  0.1244 -0.0902 -0.1598
  458POPI   C3B 7221   4.498   6.987  10.124  0.0580 -0.0780  0.0494
  458POPI   C4B 7222   4.563   6.915   9.722 -0.0565  0.0014  0.1496
  459POPI    C1 7223   3.573  15.289  11.941 -0.0453  0.0609  0.0083
  459POPI    C2 7224   3.203  15.299  12.093  0.0153 -0.1266  0.1739
  459POPI    C3 7225   3.372  14.948  12.002  0.2344 -0.0573  0.3049
  459POPI   PO4 7226   3.602  15.476  11.715 -0.1138 -0.0592 -0.3215
  459POPI   GL1 7227   3.475  15.433  11.298  0.0780 -0.0258 -0.1546
  459POPI   GL2 7228   3.662  15.645  11.214 -0.0640  0.0256  0.1692
  459POPI   C1A 7229   3.472  15.478  10.801  0.0143 -0.3810 -0.0706
  459POPI   D2A 7230   3.523  15.285  10.413 -0.0426 -0.0291 -0.0984
  459POPI   C3A 7231   3.420  15.491  10.028  0.0368 -0.3052  0.1280
  459POPI   C4A 7232   3.437  15.487   9.626  0.0310  0.1711 -0.1455
  459POPI   C1B 7233   3.933  15.587  10.859 -0.1681  0.2778  0.1501
  459POPI   C2B 7234   3.961  15.538  10.394 -0.0240 -0.1090 -0.1702
  459POPI   C3B 7235   3.959  15.572   9.910  0.1542 -0.0684  0.1853
  459POPI   C4B 7236   3.888  15.757   9.526 -0.1517 -0.3891 -0.0764
  460POPI    C1 7237   5.717   2.691  11.842  0.0990  0.1722  0.1010
  460POPI    C2 7238   5.906   2.870  11.538 -0.0172  0.0681 -0.0341
  460POPI    C3 7239   6.071   2.553  11.719  0.0904  0.1805  0.0671
  460POPI   PO4 7240   5.437   2.623  11.779 -0.0382  0.0059 -0.0403
  460POPI   GL1 7241   5.132   2.735  11.546 -0.0519  0.1109  0.1718
  460POPI   GL2 7242   5.419   2.779  11.299 -0.0132  0.0986 -0.0879
  460POPI   C1A 7243   4.871   2.712  11.240  0.2755 -0.0333  0.0976
  460POPI   D2A 7244   4.798   2.549  10.803  0.1444  0.1734 -0.1460
  460POPI   C3A 7245   4.777   2.631  10.373 -0.0574 -0.2159  0.0251
  460POPI   C4A 7246   4.685   2.641   9.922  0.1357 -0.1319 -0.2894
  460POPI   C1B 7247   5.246   2.773  10.861 -0.0833 -0.2223 -0.0512
  460POPI   C2B 7248   5.236   2.771  10.418  0.1007  0.1954 -0.0433
  460POPI   C3B 7249   5.175   2.841   9.988 -0.1244  0.1656 -0.1078
  460POPI   C4B 7250   5.243   2.827   9.514 -0.0722 -0.0926 -0.1462
  461POPI    C1 7251  12.520   3.522  12.004 -0.1461 -0.1408  0.0419
  461POPI    C2 7252  12.813   3.259  12.071 -0.1361 -0.1378  0.0106
  461POPI    C3 7253  12.547   3.338  12.359 -0.1909 -0.2473 -0.0092
  461POPI   PO4 7254  12.539   3.503  11.618  0.1420 -0.0200 -0.0650
  461POPI   GL1 7255  12.643   3.501  11.208 -0.3926 -0.2510  0.0407
  461POPI   GL2 7256  12.827   3.792  11.322  0.1660 -0.2101  0.3427
  461POPI   C1A 7257  12.692   3.612  10.754 -0.1172  0.1516  0.1049
  461POPI   D2A 7258  12.673   3.516  10.360  0.0307  0.1086 -0.0127
  461POPI   C3A 7259  12.862   3.622  10.047  0.2213 -0.0522 -0.2299
  461POPI   C4A 7260  12.981   3.618   9.534 -0.2397  0.0075 -0.1086
  461POPI   C1B 7261  12.880   4.067  11.064  0.0502  0.0883 -0.1320
  461POPI   C2B 7262  12.915   4.171  10.649 -0.0711 -0.0011  0.0892
  461POPI   C3B 7263  12.914   4.192  10.182 -0.0789 -0.0883 -0.0492
  461POPI   C4B 7264  13.023   4.113   9.735 -0.0809 -0.1708 -0.0492
  462POPI    C1 7265   2.627   9.979  11.693  0.1887  0.0901  0.0977
  462POPI    C2 7266   2.554   9.859  12.068 -0.2166 -0.2273 -0.0755
  462POPI    C3 7267   2.926   9.842  11.922 -0.0626 -0.1398  0.2948
  462POPI   PO4 7268   2.468   9.876  11.510  0.1729  0.0832 -0.0817
  462POPI   GL1 7269   2.329   9.987  11.190  0.3064  0.0711 -0.0563
  462POPI   GL2 7270   2.546   9.760  10.961  0.1483 -0.0834 -0.0279
  462POPI   C1A 7271   2.213   9.989  10.727  0.4552  0.0946  0.1092
  462POPI   D2A 7272   2.215  10.025  10.304  0.0955 -0.0527 -0.1087
  462POPI   C3A 7273   2.216   9.968   9.900 -0.1665 -0.0697  0.0726
  462POPI   C4A 7274   2.231   9.872   9.556  0.0957  0.0929  0.0709
  462POPI   C1B 7275   2.580   9.689  10.559  0.0113 -0.3680  0.0302
  462POPI   C2B 7276   2.587   9.691  10.149 -0.0806  0.0220  0.2537
  462POPI   C3B 7277   2.630   9.571   9.713  0.0011 -0.0804  0.0573
  462POPI   C4B 7278   2.910   9.613   9.376  0.2305  0.1615  0.0574
  463POPI    C1 7279   3.361   3.500  11.924  0.1607  0.1293  0.0299
  463POPI    C2 7280   3.055   3.681  12.106  0.2248  0.1321  0.1357
  463POPI    C3 7281   3.203   3.340  12.254  0.1889  0.0617  0.0109
  463POPI   PO4 7282   3.288   3.535  11.637 -0.0652 -0.4917 -0.3273
  463POPI   GL1 7283   3.427   3.825  11.416 -0.0285  0.0451 -0.1110
  463POPI   GL2 7284   3.660   3.975  11.411 -0.0989  0.1874  0.0721
  463POPI   C1A 7285   3.247   4.115  11.125  0.1955 -0.0382  0.3190
  463POPI   D2A 7286   3.090   4.037  10.741  0.1016  0.0303  0.0943
  463POPI   C3A 7287   3.095   3.951  10.267  0.1526 -0.0525  0.3243
  463POPI   C4A 7288   2.777   3.911  10.024  0.0106  0.0436 -0.3832
  463POPI   C1B 7289   3.649   3.843  10.937 -0.0272 -0.2138 -0.5039
  463POPI   C2B 7290   3.513   3.678  10.536 -0.0450  0.0497  0.2600
  463POPI   C3B 7291   3.491   3.663  10.093 -0.1903  0.1829  0.0183
  463POPI   C4B 7292   3.242   3.695   9.752  0.1632 -0.3398  0.1159
  464POPI    C1 7293   5.048  12.442  11.491  0.2485  0.3204  0.0889
  464POPI    C2 7294   4.796  12.739  11.584  0.1856  0.3180 -0.0718
  464POPI    C3 7295   4.723  12.505  11.267  0.2749  0.1787  0.0092
  464POPI   PO4 7296   5.284  12.500  11.424 -0.0126 -0.1463 -0.0761
  464POPI   GL1 7297   5.596  12.582  11.059  0.1668  0.2929  0.1425
  464POPI   GL2 7298   5.338  12.285  10.883 -0.0970  0.0908  0.1478
  464POPI   C1A 7299   5.391  12.846  10.632  0.1487 -0.2333  0.1224
  464POPI   D2A 7300   5.433  12.799  10.186 -0.1039  0.0387 -0.3267
  464POPI   C3A 7301   5.298  12.813   9.861  0.0361 -0.0450 -0.3243
  464POPI   C4A 7302   5.304  12.729   9.417  0.2023 -0.2392  0.0854
  464POPI   C1B 7303   5.387  12.293  10.482 -0.0182 -0.1807 -0.0627
  464POPI   C2B 7304   5.312  12.299  10.034 -0.0358  0.0842  0.0208
  464POPI   C3B 7305   5.242  12.295   9.684  0.2533 -0.0967  0.0937
  464POPI   C4B 7306   5.260  12.264   9.184 -0.1688  0.1673 -0.1715
  465POPI    C1 7307  10.385   1.963  11.504 -0.0418  0.0637  0.0902
  465POPI    C2 7308  10.108   1.997  11.790  0.0750  0.1196  0.1976
  465POPI    C3 7309  10.384   1.709  11.812 -0.0746 -0.0410  0.0044
  465POPI   PO4 7310  10.209   2.122  11.302  0.0224  0.1755  0.2303
  465POPI   GL1 7311  10.181   2.205  10.785 -0.1551 -0.1283 -0.0066
  465POPI   GL2 7312  10.344   2.519  10.986  0.3528 -0.0560 -0.0276
  465POPI   C1A 7313  10.318   2.108  10.426  0.1048 -0.4402  0.4880
  465POPI   D2A 7314  10.328   2.099  10.056  0.1308 -0.1462  0.2188
  465POPI   C3A 7315  10.400   2.045   9.615  0.3037  0.0084 -0.2792
  465POPI   C4A 7316  10.211   1.877   9.287 -0.3748  0.0617  0.1054
  465POPI   C1B 7317  10.307   2.650  10.542 -0.0340 -0.0127  0.1247
  465POPI   C2B 7318  10.404   2.547  10.140 -0.1427 -0.0309 -0.1167
  465POPI   C3B 7319  10.381   2.530   9.670  0.0304  0.0122 -0.0758
  465POPI   C4B 7320  10.340   2.593   9.205 -0.1371  0.0067 -0.0568
  466POPI    C1 7321   5.222  14.517  11.706  0.1373 -0.1534 -0.0965
  466POPI    C2 7322   4.953  14.391  11.974  0.0213  0.1780 -0.0524
  466POPI    C3 7323   5.310  14.525  12.096  0.0646  0.0911 -0.0832
  466POPI   PO4 7324   5.106  14.491  11.515  0.1459 -0.1121  0.1315
  466POPI   GL1 7325   4.760  14.454  11.099 -0.1915  0.1072  0.0047
  466POPI   GL2 7326   4.488  14.390  11.142  0.2559  0.2567  0.0092
  466POPI   C1A 7327   4.756  14.492  10.638 -0.2530 -0.0088 -0.1687
  466POPI   D2A 7328   4.781  14.556  10.218  0.2874  0.0785  0.2938
  466POPI   C3A 7329   4.714  14.425   9.814  0.2301 -0.0429 -0.5277
  466POPI   C4A 7330   4.678  14.431   9.357 -0.2490 -0.1216  0.1516
  466POPI   C1B 7331   4.314  14.256  10.779 -0.1817 -0.0839  0.0851
  466POPI   C2B 7332   4.312  14.229  10.314  0.2628  0.0334 -0.0980
  466POPI   C3B 7333   4.198  14.285   9.834 -0.3285 -0.2270  0.2427
  466POPI   C4B 7334   4.053  14.305   9.418  0.1751  0.0619 -0.1140
  467POPI    C1 7335   5.302  10.711  11.658 -0.0974  0.0854 -0.0909
  467POPI    C2 7336   5.620  10.805  11.881 -0.0674  0.1382 -0.1553
  467POPI    C3 7337   5.337  11.079  11.810 -0.2156  0.0406  0.0472
  467POPI   PO4 7338   5.309  10.629  11.404  0.1059 -0.2317 -0.1793
  467POPI   GL1 7339   5.314  10.691  10.979  0.1041 -0.0174  0.0631
  467POPI   GL2 7340   5.202  10.359  10.915 -0.1604 -0.0859  0.0064
  467POPI   C1A 7341   5.014  10.608  10.537 -0.0882 -0.1680  0.1463
  467POPI   D2A 7342   5.146  10.611  10.229  0.2363 -0.0624  0.2406
  467POPI   C3A 7343   5.072  10.843   9.994 -0.0747 -0.2045  0.0583
  467POPI   C4A 7344   5.010  10.708   9.594  0.1557  0.0567  0.1325
  467POPI   C1B 7345   5.269  10.083  10.533 -0.1092 -0.0959 -0.1495
  467POPI   C2B 7346   5.350  10.180  10.175 -0.1925  0.1337  0.0454
  467POPI   C3B 7347   5.462  10.242   9.843 -0.0044  0.1794  0.0974
  467POPI   C4B 7348   5.356  10.287   9.362  0.1750 -0.0651  0.0107
  468POPI    C1 7349   3.461   9.286  11.695  0.0802 -0.1233  0.0042
  468POPI    C2 7350   3.154   9.378  11.935  0.0796  0.1735 -0.1063
  468POPI    C3 7351   3.529   9.405  12.071  0.0713  0.1532 -0.0793
  468POPI   PO4 7352   3.345   9.392  11.511  0.1982 -0.1278  0.0960
  468POPI   GL1 7353   3.223   9.401  11.117  0.4270  0.1017 -0.0656
  468POPI   GL2 7354   3.447   9.599  11.014 -0.0974  0.2390  0.2710
  468POPI   C1A 7355   2.990   9.375  10.720  0.0440  0.3283  0.0627
  468POPI   D2A 7356   3.037   9.390  10.281 -0.0832  0.4874 -0.3250
  468POPI   C3A 7357   3.124   9.328   9.790 -0.1265  0.1295  0.0770
  468POPI   C4A 7358   3.227   9.202   9.374 -0.2028  0.0373  0.0389
  468POPI   C1B 7359   3.444   9.521  10.589 -0.0948  0.3171 -0.1157
  468POPI   C2B 7360   3.509   9.490  10.092 -0.1781  0.1765 -0.1354
  468POPI   C3B 7361   3.512   9.635   9.702  0.0575 -0.0281 -0.0577
  468POPI   C4B 7362   3.452   9.632   9.307  0.1239  0.1939  0.3026
  469POPI    C1 7363   9.976   2.904  11.203 -0.0740  0.0642 -0.0090
  469POPI    C2 7364   9.771   2.854  11.543 -0.0584  0.0854  0.0036
  469POPI    C3 7365  10.049   3.140  11.517 -0.0396  0.0653 -0.0177
  469POPI   PO4 7366   9.911   2.615  11.139  0.1089 -0.3558 -0.1346
  469POPI   GL1 7367   9.727   2.545  10.721  0.3053  0.0474  0.0659
  469POPI   GL2 7368   9.492   2.778  10.630 -0.0025  0.0014  0.0463
  469POPI   C1A 7369   9.952   2.405  10.308  0.2483 -0.3402  0.1975
  469POPI   D2A 7370   9.915   2.353   9.880 -0.0758  0.0645 -0.2772
  469POPI   C3A 7371   9.936   2.336   9.508  0.1585 -0.4743 -0.1814
  469POPI   C4A 7372   9.861   2.570   9.163 -0.0540 -0.2583 -0.2678
  469POPI   C1B 7373   9.543   2.689  10.169  0.1290 -0.1253  0.0853
  469POPI   C2B 7374   9.475   2.702   9.686  0.0053 -0.1126  0.0450
  469POPI   C3B 7375   9.554   2.860   9.406 -0.1154 -0.3163  0.3258
  469POPI   C4B 7376   9.622   2.982   8.901 -0.0102 -0.0197  0.1162
  470POPI    C1 7377   4.011  16.316  11.655 -0.1344  0.1091  0.1731
  470POPI    C2 7378   4.126  15.949  11.544 -0.2951  0.1496 -0.1381
  470POPI    C3 7379   4.249  16.100  11.893 -0.0907 -0.1330 -0.0845
  470POPI   PO4 7380   3.959  16.438  11.430 -0.0118  0.1093  0.4615
  470POPI   GL1 7381   3.895  16.049  11.158 -0.1110 -0.0513 -0.1463
  470POPI   GL2 7382   4.194  16.234  10.999  0.0365  0.2126  0.1500
  470POPI   C1A 7383   3.640  15.976  10.781  0.1872  0.1590 -0.0650
  470POPI   D2A 7384   3.580  15.865  10.389  0.2387 -0.1354 -0.1178
  470POPI   C3A 7385   3.587  15.994   9.880 -0.0621  0.0250 -0.0272
  470POPI   C4A 7386   3.484  16.051   9.498  0.1427  0.0702 -0.0010
  470POPI   C1B 7387   4.054  16.017  10.574  0.1525 -0.1186 -0.0784
  470POPI   C2B 7388   4.015  16.025  10.173 -0.2268  0.1492  0.1259
  470POPI   C3B 7389   4.088  16.218   9.806 -0.1416 -0.3095  0.1386
  470POPI   C4B 7390   3.984  16.250   9.401 -0.0802  0.1866 -0.0362
  471POPI    C1 7391   5.327   0.238  12.094  0.1377 -0.0421  0.1030
  471POPI    C2 7392   5.653   0.393  12.266  0.0812  0.0331  0.1427
  471POPI    C3 7393   5.379   0.206  12.490 -0.0088  0.1604  0.1399
  471POPI   PO4 7394   5.383   0.096  11.865 -0.1867 -0.0043 -0.1458
  471POPI   GL1 7395   5.361   0.181  11.438 -0.2464  0.1240 -0.1498
  471POPI   GL2 7396   5.172  -0.114  11.276 -0.2948  0.3819  0.2648
  471POPI   C1A 7397   5.336   0.398  11.053  0.0965  0.0919  0.2479
  471POPI   D2A 7398   5.239   0.352  10.598 -0.1948  0.1410 -0.0198
  471POPI   C3A 7399   5.203   0.456  10.190  0.2104 -0.1499 -0.1457
  471POPI   C4A 7400   5.300   0.315   9.811  0.3496  0.2246  0.0034
  471POPI   C1B 7401   5.304  -0.145  10.818 -0.3447  0.1272 -0.3411
  471POPI   C2B 7402   5.211  -0.111  10.390 -0.2872 -0.0332 -0.0010
  471POPI   C3B 7403   5.214  -0.150   9.971 -0.0160  0.0689  0.0253
  471POPI   C4B 7404   5.262  -0.114   9.569  0.0485  0.2499 -0.2531
  472POPI    C1 7405  16.450   9.579  11.724  0.1468  0.0576 -0.0027
  472POPI    C2 7406  16.365   9.944  11.865 -0.0285 -0.1038  0.3196
  472POPI    C3 7407  16.119   9.638  11.940  0.0139 -0.2522 -0.1173
  472POPI   PO4 7408  16.483   9.687  11.422  0.0034 -0.0916 -0.0049
  472POPI   GL1 7409  16.498   9.904  11.052 -0.0051  0.0459 -0.5239
  472POPI   GL2 7410  16.167   9.773  11.022 -0.0966  0.1476  0.0185
  472POPI   C1A 7411  16.673   9.996  10.685 -0.1964 -0.1922 -0.1102
  472POPI   D2A 7412  16.695  10.031  10.259 -0.1856 -0.3444 -0.2088
  472POPI   C3A 7413  16.587   9.987   9.877 -0.2771 -0.0745  0.1540
  472POPI   C4A 7414  16.649  10.209   9.404  0.0080 -0.2099 -0.2016
  472POPI   C1B 7415  15.973   9.666  10.588  0.0428 -0.3151 -0.1735
  472POPI   C2B 7416  15.975   9.685  10.201 -0.0166 -0.4624 -0.1002
  472POPI   C3B 7417  16.153   9.770   9.843 -0.0130 -0.0541  0.1186
  472POPI   C4B 7418  16.146   9.952   9.462  0.2129 -0.2695 -0.2201
  473DPPI    C1 7419  15.844  16.206  11.913 -0.1650 -0.2932  0.0826
  473DPPI    C2 7420  16.174  16.328  12.102 -0.1423  0.0655 -0.1786
  473DPPI    C3 7421  15.908  16.099  12.293  0.0835  0.0676  0.1475
  473DPPI   PO4 7422  15.926  16.228  11.654  0.1849  0.4252 -0.0891
  473DPPI   GL1 7423  15.684  16.305  11.293 -0.1183 -0.1656 -0.1900
  473DPPI   GL2 7424  15.338  16.369  11.193  0.0703  0.1731 -0.0079
  473DPPI   C1A 7425  15.800  16.026  10.961  0.0877  0.1404 -0.0094
  473DPPI   C2A 7426  15.727  15.935  10.646 -0.6184 -0.4305  0.0703
  473DPPI   C3A 7427  15.776  16.006  10.194  0.4026 -0.0177 -0.1201
  473DPPI   C4A 7428  15.891  16.036   9.766 -0.2414 -0.0073 -0.0884
  473DPPI   C1B 7429  15.336  16.266  10.708 -0.1396  0.1637 -0.1780
  473DPPI   C2B 7430  15.354  16.227  10.280  0.2445 -0.0409  0.0948
  473DPPI   C3B 7431  15.485  16.419   9.816 -0.0901 -0.0305 -0.2286
  473DPPI   C4B 7432  15.685  16.330   9.405  0.4166  0.0692  0.0095
  474DPPI    C1 7433  12.004   8.821  11.500 -0.0434 -0.1789 -0.0963
  474DPPI    C2 7434  11.797   8.792  11.841  0.1326  0.3945  0.0728
  474DPPI    C3 7435  12.179   8.675  11.829  0.0032 -0.0356 -0.0563
  474DPPI   PO4 7436  11.811   8.638  11.330  0.0837 -0.0508  0.1247
  474DPPI   GL1 7437  11.720   8.760  10.885 -0.1384  0.1021 -0.1170
  474DPPI   GL2 7438  11.895   8.876  10.652  0.0074 -0.0379 -0.1281
  474DPPI   C1A 7439  11.410   8.918  10.495  0.1565  0.0676  0.0582
  474DPPI   C2A 7440  11.379   8.825  10.112  0.1396 -0.0714 -0.0247
  474DPPI   C3A 7441  11.345   8.817   9.685 -0.0263  0.1718  0.2438
  474DPPI   C4A 7442  11.327   8.762   9.200 -0.5075 -0.0611  0.1143
  474DPPI   C1B 7443  11.852   8.692  10.370 -0.1302 -0.0779 -0.0135
  474DPPI   C2B 7444  11.706   8.528   9.925  0.0907 -0.1050  0.2391
  474DPPI   C3B 7445  11.737   8.441   9.532 -0.0291  0.2887  0.0199
  474DPPI   C4B 7446  11.853   8.400   9.108  0.0991  0.1630 -0.2888
  475DPPI    C1 7447   0.764   8.331  11.586  0.1810 -0.1561  0.2119
  475DPPI    C2 7448   0.534   8.175  11.873 -0.1193 -0.2324 -0.0642
  475DPPI    C3 7449   0.650   8.557  11.895  0.0922 -0.3130  0.2953
  475DPPI   PO4 7450   0.659   8.173  11.326 -0.1569 -0.1768 -0.2131
  475DPPI   GL1 7451   0.520   8.381  10.952  0.1271  0.0662 -0.3788
  475DPPI   GL2 7452   0.368   8.138  10.856  0.0054  0.1728  0.0345
  475DPPI   C1A 7453   0.850   8.471  10.563 -0.0646  0.0087 -0.1568
  475DPPI   C2A 7454   0.879   8.485  10.141  0.2285  0.2010 -0.0025
  475DPPI   C3A 7455   1.064   8.352   9.807  0.0168 -0.0890  0.1292
  475DPPI   C4A 7456   1.181   7.974   9.706  0.1935 -0.3321  0.0606
  475DPPI   C1B 7457   0.438   8.138  10.450 -0.2616  0.4644  0.0170
  475DPPI   C2B 7458   0.479   8.199  10.102 -0.1667  0.1522 -0.0824
  475DPPI   C3B 7459   0.534   8.394   9.732 -0.1247  0.0885  0.1354
  475DPPI   C4B 7460   0.814   8.195   9.321  0.1554 -0.1898 -0.0337
  476DPPI    C1 7461  12.251  16.335  11.885 -0.0023 -0.1682 -0.1734
  476DPPI    C2 7462  11.935  16.112  11.782 -0.1040 -0.0704 -0.0777
  476DPPI    C3 7463  11.930  16.320  12.124  0.0559 -0.0508 -0.0864
  476DPPI   PO4 7464  12.404  16.291  11.629  0.0332 -0.0663  0.3648
  476DPPI   GL1 7465  12.563  16.351  11.260  0.1324 -0.2651  0.0115
  476DPPI   GL2 7466  12.775  16.526  11.076 -0.0329  0.0545 -0.1161
  476DPPI   C1A 7467  12.523  16.254  10.747 -0.2180 -0.0687  0.1174
  476DPPI   C2A 7468  12.598  16.240  10.352 -0.1213 -0.1677  0.0373
  476DPPI   C3A 7469  12.713  16.118   9.921  0.1094 -0.2152 -0.0452
  476DPPI   C4A 7470  12.672  16.259   9.448  0.3742 -0.2871  0.0270
  476DPPI   C1B 7471  13.014  16.496  10.773  0.1604 -0.2040 -0.0007
  476DPPI   C2B 7472  13.075  16.442  10.322 -0.0598 -0.4238 -0.2165
  476DPPI   C3B 7473  13.223  16.371   9.857  0.2351 -0.1135 -0.0921
  476DPPI   C4B 7474  13.175  16.375   9.458 -0.0452  0.0695  0.1919
  477DPPI    C1 7475   4.219   9.366  11.436  0.1476 -0.0162  0.0338
  477DPPI    C2 7476   4.226   9.700  11.656  0.0487  0.0342 -0.0392
  477DPPI    C3 7477   3.956   9.415  11.733  0.2227 -0.0910  0.1131
  477DPPI   PO4 7478   4.207   9.453  11.158  0.0203 -0.2098 -0.0166
  477DPPI   GL1 7479   4.333   9.382  10.722  0.1945 -0.2444  0.3266
  477DPPI   GL2 7480   3.898   9.372  10.753  0.1870 -0.1980  0.3058
  477DPPI   C1A 7481   4.317   9.469  10.275  0.1446 -0.1153  0.0422
  477DPPI   C2A 7482   4.448   9.387   9.877  0.1454  0.0014 -0.3706
  477DPPI   C3A 7483   4.604   9.234   9.480 -0.1672 -0.5764 -0.2603
  477DPPI   C4A 7484   4.714   8.990   9.085  0.2751  0.0746  0.1675
  477DPPI   C1B 7485   3.876   9.226  10.412  0.1390  0.0825  0.3084
  477DPPI   C2B 7486   3.970   9.142  10.054  0.0268 -0.0739 -0.0400
  477DPPI   C3B 7487   4.134   9.026   9.681 -0.0203  0.1927  0.1316
  477DPPI   C4B 7488   4.177   8.969   9.217  0.0421 -0.3579 -0.0465
  478DPPI    C1 7489   4.537  13.771  11.765 -0.0826 -0.1383  0.1547
  478DPPI    C2 7490   4.730  13.512  12.000  0.0829  0.1836  0.3814
  478DPPI    C3 7491   4.858  13.890  11.972 -0.2233  0.2736  0.1461
  478DPPI   PO4 7492   4.486  13.694  11.548  0.0560 -0.0036  0.2602
  478DPPI   GL1 7493   4.635  13.513  11.203 -0.0372 -0.0814  0.0123
  478DPPI   GL2 7494   4.529  13.853  11.090 -0.2053  0.1294 -0.1202
  478DPPI   C1A 7495   4.471  13.372  10.897  0.4146 -0.1124  0.0287
  478DPPI   C2A 7496   4.518  13.339  10.460 -0.3708 -0.3271  0.0833
  478DPPI   C3A 7497   4.603  13.331  10.041 -0.2156  0.1108 -0.2213
  478DPPI   C4A 7498   4.431  13.258   9.583  0.0485 -0.3170 -0.1201
  478DPPI   C1B 7499   4.597  13.782  10.629  0.2307 -0.3537 -0.0875
  478DPPI   C2B 7500   4.570  13.870  10.170 -0.0250  0.2739  0.0763
  478DPPI   C3B 7501   4.601  13.972   9.700 -0.0334  0.1724  0.3085
  478DPPI   C4B 7502   4.487  13.732   9.351  0.2177  0.2308 -0.1398
  479DPPI    C1 7503   5.807   2.021  11.954  0.4805  0.0533  0.0298
  479DPPI    C2 7504   5.880   2.365  12.145 -0.0270  0.1466  0.0677
  479DPPI    C3 7505   5.739   2.049  12.347 -0.0219  0.0672 -0.0519
  479DPPI   PO4 7506   5.710   2.153  11.709 -0.0350  0.0032 -0.1928
  479DPPI   GL1 7507   5.719   2.414  11.403 -0.3113 -0.0092 -0.1966
  479DPPI   GL2 7508   5.977   2.278  11.295 -0.2041 -0.1306 -0.2489
  479DPPI   C1A 7509   5.726   2.537  10.947 -0.1954  0.1712  0.0721
  479DPPI   C2A 7510   5.686   2.591  10.596 -0.0974 -0.1006  0.1230
  479DPPI   C3A 7511   5.612   2.562  10.166 -0.1610 -0.0571 -0.0913
  479DPPI   C4A 7512   5.584   2.461   9.790  0.2967 -0.2823  0.0622
  479DPPI   C1B 7513   6.124   2.271  10.863 -0.2006  0.3100 -0.2931
  479DPPI   C2B 7514   6.068   2.276  10.423  0.1779 -0.2363  0.4598
  479DPPI   C3B 7515   6.004   2.119  10.073 -0.2142  0.0144  0.3368
  479DPPI   C4B 7516   5.965   2.108   9.627  0.1503  0.0985  0.3234
  480DPPI    C1 7517   1.936  13.068  11.795  0.1661 -0.3092 -0.1367
  480DPPI    C2 7518   1.666  12.803  11.927 -0.0022 -0.1159 -0.0874
  480DPPI    C3 7519   2.032  12.813  12.088 -0.0484 -0.2076  0.0250
  480DPPI   PO4 7520   1.964  13.068  11.515 -0.1422  0.1612  0.0776
  480DPPI   GL1 7521   2.127  12.871  11.196 -0.1127  0.1260  0.3957
  480DPPI   GL2 7522   2.303  13.194  11.128  0.0264  0.1674  0.1632
  480DPPI   C1A 7523   2.256  12.853  10.822  0.0080 -0.0834 -0.1517
  480DPPI   C2A 7524   2.324  12.951  10.503  0.1570  0.2959 -0.0063
  480DPPI   C3A 7525   2.146  12.901  10.070 -0.2343 -0.1408  0.1631
  480DPPI   C4A 7526   2.245  13.008   9.637  0.0275 -0.2090  0.1376
  480DPPI   C1B 7527   2.283  13.483  10.765  0.1979 -0.3079  0.2108
  480DPPI   C2B 7528   2.327  13.536  10.209 -0.0880  0.1271 -0.2495
  480DPPI   C3B 7529   2.133  13.569   9.852 -0.0270 -0.1991  0.0789
  480DPPI   C4B 7530   2.302  13.592   9.463 -0.2450  0.0660  0.2725
  481DPPI    C1 7531  10.758  15.558  11.338  0.0391  0.0093  0.1673
  481DPPI    C2 7532  10.987  15.314  11.558 -0.0681 -0.4953 -0.2609
  481DPPI    C3 7533  10.606  15.378  11.661  0.0993 -0.0920  0.1397
  481DPPI   PO4 7534  10.762  15.438  11.126  0.1222  0.0248  0.0631
  481DPPI   GL1 7535  10.664  15.136  10.813 -0.1671  0.0144  0.1162
  481DPPI   GL2 7536  10.921  15.178  10.651 -0.0031 -0.3193  0.0301
  481DPPI   C1A 7537  10.432  15.184  10.424  0.1530  0.0607 -0.1029
  481DPPI   C2A 7538  10.399  15.074   9.978 -0.0881 -0.1155 -0.2869
  481DPPI   C3A 7539  10.505  14.960   9.534  0.1431 -0.1693  0.0394
  481DPPI   C4A 7540  10.577  14.737   9.145 -0.2561  0.1839  0.0156
  481DPPI   C1B 7541  10.885  15.047  10.239 -0.3258  0.2685  0.1321
  481DPPI   C2B 7542  10.955  15.123   9.827  0.2759 -0.2317  0.0345
  481DPPI   C3B 7543  10.925  15.426   9.460  0.1053  0.1084  0.0727
  481DPPI   C4B 7544  11.211  15.355   9.114  0.3408  0.1065  0.0129
  482DPPI    C1 7545  13.716  14.056  11.302 -0.1474  0.0948 -0.0521
  482DPPI    C2 7546  13.529  14.265  11.587  0.2036  0.2518  0.0672
  482DPPI    C3 7547  13.413  13.891  11.506  0.0326  0.2419  0.3438
  482DPPI   PO4 7548  14.071  14.013  11.392  0.4464  0.1116 -0.0631
  482DPPI   GL1 7549  14.261  13.881  11.027  0.2024 -0.0828  0.5536
  482DPPI   GL2 7550  13.999  13.824  10.870 -0.0203  0.0620  0.0254
  482DPPI   C1A 7551  14.421  14.175  10.685 -0.0314 -0.0081 -0.3102
  482DPPI   C2A 7552  14.527  14.126  10.320 -0.0742  0.0106  0.1802
  482DPPI   C3A 7553  14.500  14.021   9.816 -0.0145  0.0816 -0.0100
  482DPPI   C4A 7554  14.500  14.004   9.405 -0.1284 -0.1251  0.0714
  482DPPI   C1B 7555  13.965  13.996  10.507 -0.0298 -0.0006 -0.2584
  482DPPI   C2B 7556  14.056  13.954  10.128 -0.1382  0.1287  0.2586
  482DPPI   C3B 7557  13.959  13.875   9.773  0.0703 -0.1262  0.2056
  482DPPI   C4B 7558  14.009  13.780   9.365 -0.0516  0.0309  0.0576
  483DPPI    C1 7559   8.727   5.444  11.560  0.1199  0.0433 -0.1250
  483DPPI    C2 7560   9.083   5.626  11.563  0.1810 -0.0763 -0.0022
  483DPPI    C3 7561   9.021   5.303  11.791 -0.0281 -0.0143  0.0315
  483DPPI   PO4 7562   8.664   5.349  11.267  0.1784  0.2035 -0.2417
  483DPPI   GL1 7563   8.334   5.327  10.957 -0.2195  0.1076 -0.1732
  483DPPI   GL2 7564   8.407   5.616  10.927  0.1401 -0.0711  0.2895
  483DPPI   C1A 7565   8.138   5.141  10.562  0.2077  0.1350 -0.0896
  483DPPI   C2A 7566   7.986   5.225  10.227 -0.0893  0.3262  0.3550
  483DPPI   C3A 7567   7.967   5.266   9.824 -0.0239 -0.0370  0.2098
  483DPPI   C4A 7568   7.999   5.210   9.431  0.2406 -0.0910 -0.2487
  483DPPI   C1B 7569   8.216   5.669  10.583 -0.1418  0.0413  0.1038
  483DPPI   C2B 7570   8.067   5.705  10.164 -0.0169  0.0729 -0.1527
  483DPPI   C3B 7571   8.074   5.740   9.770 -0.1261 -0.0785  0.1764
  483DPPI   C4B 7572   8.105   5.674   9.312 -0.0719  0.0336 -0.0419
  484DPPI    C1 7573  10.566   9.488  11.611 -0.0965 -0.0099  0.0258
  484DPPI    C2 7574  10.322   9.755  11.441 -0.1313 -0.1254 -0.1075
  484DPPI    C3 7575  10.459   9.817  11.812 -0.0726  0.1175 -0.1681
  484DPPI   PO4 7576  10.717   9.410  11.349  0.0012  0.0605 -0.2476
  484DPPI   GL1 7577  10.867   9.307  10.970 -0.0873 -0.0517  0.2126
  484DPPI   GL2 7578  10.682   9.013  10.861 -0.0391 -0.0363 -0.0968
  484DPPI   C1A 7579  10.923   9.234  10.508  0.1179  0.1338  0.1179
  484DPPI   C2A 7580  10.919   9.131  10.041  0.6039  0.1272 -0.1561
  484DPPI   C3A 7581  10.898   9.067   9.673 -0.0346  0.2241 -0.3243
  484DPPI   C4A 7582  10.920   9.062   9.272 -0.0971  0.0362  0.0080
  484DPPI   C1B 7583  10.441   9.026  10.429 -0.1427 -0.1011  0.0245
  484DPPI   C2B 7584  10.463   8.928  10.016 -0.0136  0.1602 -0.0633
  484DPPI   C3B 7585  10.473   8.884   9.669 -0.1268 -0.0449 -0.0081
  484DPPI   C4B 7586  10.458   8.832   9.183  0.2088 -0.1219  0.0504
  485DPPI    C1 7587   2.345   6.464  11.742  0.2025  0.2861  0.1197
  485DPPI    C2 7588   2.287   6.128  11.951  0.1411  0.0637 -0.2472
  485DPPI    C3 7589   2.506   6.424  12.106 -0.0143 -0.0404  0.1842
  485DPPI   PO4 7590   2.449   6.363  11.482 -0.1684  0.2372 -0.0223
  485DPPI   GL1 7591   2.754   6.296  11.220  0.1945  0.0748  0.0898
  485DPPI   GL2 7592   3.030   6.129  11.325 -0.0533 -0.0021  0.0665
  485DPPI   C1A 7593   2.799   6.313  10.759 -0.1436 -0.2241 -0.0602
  485DPPI   C2A 7594   2.879   6.229  10.356  0.1410 -0.6010  0.0941
  485DPPI   C3A 7595   2.633   6.138   9.897 -0.0016  0.0777  0.1316
  485DPPI   C4A 7596   2.580   6.027   9.509  0.0502 -0.2307 -0.0890
  485DPPI   C1B 7597   3.044   5.921  11.024 -0.3213 -0.0503 -0.0473
  485DPPI   C2B 7598   3.012   5.873  10.619  0.2267 -0.1257  0.2158
  485DPPI   C3B 7599   3.073   5.846  10.136  0.4242 -0.2056  0.1766
  485DPPI   C4B 7600   3.062   5.780   9.736  0.2226 -0.0911 -0.1144
  486DPPI    C1 7601   3.381   0.015  11.948  0.1362 -0.2719 -0.3171
  486DPPI    C2 7602   3.633  -0.249  12.113 -0.1815 -0.2216  0.2726
  486DPPI    C3 7603   3.727   0.140  12.105 -0.0849 -0.2470  0.1692
  486DPPI   PO4 7604   3.303  -0.101  11.674  0.1511 -0.0376 -0.1183
  486DPPI   GL1 7605   3.251   0.091  11.273 -0.2892  0.2547  0.2037
  486DPPI   GL2 7606   3.031  -0.084  11.178 -0.2089  0.0394 -0.2036
  486DPPI   C1A 7607   3.535   0.275  11.037 -0.0201 -0.0287 -0.2641
  486DPPI   C2A 7608   3.473   0.303  10.640 -0.0576 -0.0689 -0.0832
  486DPPI   C3A 7609   3.532   0.235  10.208  0.0413 -0.0377 -0.1645
  486DPPI   C4A 7610   3.508   0.237   9.756 -0.0822  0.5745 -0.1416
  486DPPI   C1B 7611   2.984   0.030  10.776  0.0194  0.3091  0.0012
  486DPPI   C2B 7612   2.817   0.010  10.394  0.1888 -0.3134  0.0826
  486DPPI   C3B 7613   2.925  -0.027  10.001 -0.1284  0.0783  0.0326
  486DPPI   C4B 7614   3.036   0.005   9.576  0.3626  0.1528 -0.0470
  487DPPI    C1 7615   1.478   9.414  11.754 -0.0548 -0.0869  0.0326
  487DPPI    C2 7616   1.323   9.664  12.026 -0.3347 -0.1073 -0.1042
  487DPPI    C3 7617   1.225   9.276  12.033  0.1366 -0.2295  0.1380
  487DPPI   PO4 7618   1.488   9.599  11.495 -0.2125 -0.1074  0.2085
  487DPPI   GL1 7619   1.606   9.615  11.089  0.2477  0.2006 -0.2666
  487DPPI   GL2 7620   1.590   9.358  10.858  0.0213 -0.0462 -0.0519
  487DPPI   C1A 7621   1.684   9.830  10.750  0.2749  0.0347  0.2463
  487DPPI   C2A 7622   1.653   9.913  10.365 -0.1011 -0.1796  0.2207
  487DPPI   C3A 7623   1.745   9.870   9.897  0.0952 -0.2749 -0.0145
  487DPPI   C4A 7624   1.752   9.986   9.505 -0.3585  0.1901 -0.0026
  487DPPI   C1B 7625   1.639   9.333  10.457 -0.0446  0.2030  0.1084
  487DPPI   C2B 7626   1.545   9.479  10.084 -0.0795  0.1632 -0.0297
  487DPPI   C3B 7627   1.758   9.471   9.616  0.3295 -0.0212  0.2905
  487DPPI   C4B 7628   1.801   9.610   9.151 -0.0446 -0.2258  0.0897
  488DPPI    C1 7629  12.768   9.983  11.481 -0.1350 -0.0110  0.0373
  488DPPI    C2 7630  12.690   9.823  11.840 -0.0887  0.2416  0.1622
  488DPPI    C3 7631  13.013  10.055  11.790  0.1291 -0.1167 -0.1442
  488DPPI   PO4 7632  12.660   9.819  11.332 -0.1759 -0.2490 -0.0270
  488DPPI   GL1 7633  12.976   9.659  11.092 -0.0163  0.1658  0.0755
  488DPPI   GL2 7634  12.783   9.649  10.850 -0.1415 -0.3446 -0.0024
  488DPPI   C1A 7635  13.129   9.879  10.666 -0.2294  0.0829  0.0416
  488DPPI   C2A 7636  13.140   9.902  10.204 -0.2088 -0.1491 -0.0235
  488DPPI   C3A 7637  13.102   9.847   9.810 -0.0400 -0.0309  0.0192
  488DPPI   C4A 7638  13.128   9.842   9.449 -0.0795  0.1084 -0.1945
  488DPPI   C1B 7639  12.633   9.611  10.476 -0.1067  0.1466  0.0629
  488DPPI   C2B 7640  12.665   9.616   9.988  0.1243 -0.1756  0.1247
  488DPPI   C3B 7641  12.625   9.563   9.554  0.0298  0.2579 -0.1974
  488DPPI   C4B 7642  12.468   9.637   9.083 -0.1717 -0.0353  0.0438
  489DPPI    C1 7643   7.317  15.955  11.578  0.1587  0.0626 -0.0872
  489DPPI    C2 7644   7.001  16.107  11.770  0.2214  0.4397 -0.2728
  489DPPI    C3 7645   7.294  15.929  11.976 -0.2783 -0.2553 -0.1252
  489DPPI   PO4 7646   7.237  16.083  11.287  0.0446 -0.0091  0.0961
  489DPPI   GL1 7647   6.965  16.180  10.828  0.1334  0.1550  0.1128
  489DPPI   GL2 7648   6.969  15.832  10.932  0.0049 -0.0774 -0.0627
  489DPPI   C1A 7649   6.817  16.193  10.383 -0.2362  0.0420  0.3075
  489DPPI   C2A 7650   6.806  16.125   9.992 -0.2143 -0.0972  0.1852
  489DPPI   C3A 7651   6.781  16.084   9.481 -0.1490  0.2347 -0.0075
  489DPPI   C4A 7652   6.921  16.057   9.026  0.1351 -0.0602  0.1992
  489DPPI   C1B 7653   6.789  15.653  10.522  0.2528 -0.2382 -0.3117
  489DPPI   C2B 7654   6.751  15.560  10.141  0.0475  0.2038  0.1277
  489DPPI   C3B 7655   6.780  15.642   9.755  0.1119  0.1030 -0.0213
  489DPPI   C4B 7656   6.756  15.589   9.314  0.2107 -0.2962 -0.3060
  490DPPI    C1 7657   3.139   5.310  12.054  0.1782 -0.1153  0.0001
  490DPPI    C2 7658   3.174   4.956  12.237  0.1403 -0.1563 -0.0715
  490DPPI    C3 7659   3.238   5.294  12.441 -0.1672 -0.1913  0.0886
  490DPPI   PO4 7660   3.299   5.392  11.828  0.3271 -0.3659 -0.1106
  490DPPI   GL1 7661   3.610   5.294  11.652  0.0616  0.2726 -0.0379
  490DPPI   GL2 7662   3.834   5.329  11.346 -0.0880  0.2432  0.0216
  490DPPI   C1A 7663   3.415   5.228  11.191 -0.0186  0.2598  0.1230
  490DPPI   C2A 7664   3.338   5.105  10.768 -0.0880  0.1796 -0.1577
  490DPPI   C3A 7665   3.260   4.951  10.364 -0.0277 -0.0811  0.1077
  490DPPI   C4A 7666   3.275   4.977   9.855  0.0141 -0.0540  0.3930
  490DPPI   C1B 7667   3.768   5.282  10.853 -0.0870 -0.1624 -0.1296
  490DPPI   C2B 7668   3.717   5.230  10.373 -0.2958  0.0206 -0.2928
  490DPPI   C3B 7669   3.789   5.215  10.001 -0.0377  0.2087  0.0705
  490DPPI   C4B 7670   3.766   5.125   9.533 -0.0805 -0.0552 -0.2194
  491DPPI    C1 7671   7.849  13.890  11.552  0.0430 -0.0557  0.0281
  491DPPI    C2 7672   7.904  13.618  11.840  0.0807  0.0599  0.1312
  491DPPI    C3 7673   7.791  13.990  11.935 -0.1698  0.0258 -0.0239
  491DPPI   PO4 7674   8.043  13.793  11.379 -0.0739  0.1021 -0.4973
  491DPPI   GL1 7675   8.186  13.466  11.045  0.0104  0.1543 -0.4283
  491DPPI   GL2 7676   8.195  13.727  10.876 -0.0060 -0.2788  0.0955
  491DPPI   C1A 7677   8.286  13.358  10.599  0.0141  0.2673  0.2205
  491DPPI   C2A 7678   8.191  13.407  10.138  0.0117  0.6123 -0.1197
  491DPPI   C3A 7679   8.058  13.498   9.802 -0.2696  0.1503 -0.4048
  491DPPI   C4A 7680   8.183  13.414   9.380  0.1653  0.2381 -0.1082
  491DPPI   C1B 7681   8.318  13.884  10.524 -0.4204 -0.2489  0.2483
  491DPPI   C2B 7682   8.364  13.912  10.084 -0.0221  0.2354 -0.0769
  491DPPI   C3B 7683   8.326  13.898   9.583  0.1013  0.1125 -0.1260
  491DPPI   C4B 7684   8.155  13.874   9.142 -0.1209 -0.2783  0.0267
  492DPPI    C1 7685   6.476  13.480  11.608 -0.1742  0.0012 -0.0375
  492DPPI    C2 7686   6.095  13.535  11.720 -0.2038  0.0371 -0.1543
  492DPPI    C3 7687   6.390  13.722  11.916 -0.2180 -0.2546  0.1545
  492DPPI   PO4 7688   6.462  13.548  11.375 -0.0608 -0.2500  0.0693
  492DPPI   GL1 7689   6.437  13.604  10.959  0.0724 -0.0047 -0.0251
  492DPPI   GL2 7690   6.345  13.870  11.046 -0.1011 -0.0337 -0.0214
  492DPPI   C1A 7691   6.433  13.640  10.512  0.0359 -0.3331 -0.0430
  492DPPI   C2A 7692   6.390  13.704  10.039  0.0233  0.0277 -0.0365
  492DPPI   C3A 7693   6.346  13.704   9.592 -0.0026 -0.1207 -0.0518
  492DPPI   C4A 7694   6.302  13.609   9.205 -0.3668 -0.2570  0.1601
  492DPPI   C1B 7695   6.421  14.130  10.686  0.0115  0.1979 -0.0704
  492DPPI   C2B 7696   6.490  14.196  10.224  0.2642  0.1507 -0.0045
  492DPPI   C3B 7697   6.459  14.219   9.831  0.2956 -0.0992  0.2149
  492DPPI   C4B 7698   6.543  14.166   9.457 -0.1403 -0.0370  0.1098
  493DPPI    C1 7699   9.685   5.856  11.500  0.2039 -0.2397  0.1170
  493DPPI    C2 7700   9.532   5.685  11.828  0.0624 -0.1818  0.0823
  493DPPI    C3 7701   9.832   5.948  11.861  0.0884 -0.2205  0.1597
  493DPPI   PO4 7702   9.612   5.587  11.263 -0.2752  0.3797  0.2904
  493DPPI   GL1 7703   9.476   5.550  10.910  0.4049 -0.0918 -0.1077
  493DPPI   GL2 7704   9.914   5.509  10.933  0.0556 -0.0041  0.1717
  493DPPI   C1A 7705   9.377   5.699  10.495 -0.2708  0.1280  0.2477
  493DPPI   C2A 7706   9.456   5.720  10.044 -0.0411 -0.0535 -0.0096
  493DPPI   C3A 7707   9.598   5.639   9.652 -0.1180  0.1301 -0.1467
  493DPPI   C4A 7708   9.598   5.695   9.251  0.1735 -0.0651 -0.2742
  493DPPI   C1B 7709  10.211   5.272  10.800  0.0141  0.0973 -0.1161
  493DPPI   C2B 7710  10.373   5.085  10.424 -0.0183 -0.0339 -0.0359
  493DPPI   C3B 7711  10.332   4.976  10.066 -0.0857  0.0520 -0.0791
  493DPPI   C4B 7712  10.382   4.963   9.647 -0.2309 -0.1283 -0.0769
  494DPPI    C1 7713  12.944  13.754  11.400  0.0779 -0.0502  0.3752
  494DPPI    C2 7714  12.626  13.758  11.643 -0.1148 -0.2874  0.1325
  494DPPI    C3 7715  12.673  13.461  11.379  0.2626 -0.2057  0.1018
  494DPPI   PO4 7716  13.067  14.073  11.245 -0.0043 -0.1699 -0.1405
  494DPPI   GL1 7717  13.096  14.266  10.928  0.0753  0.3014  0.0456
  494DPPI   GL2 7718  13.418  14.344  11.018  0.1562  0.1297 -0.0403
  494DPPI   C1A 7719  13.057  14.043  10.582  0.0566 -0.2713  0.1574
  494DPPI   C2A 7720  13.030  13.997  10.142 -0.0538 -0.2923 -0.0620
  494DPPI   C3A 7721  13.029  13.995   9.734 -0.0997 -0.0493 -0.0737
  494DPPI   C4A 7722  13.143  14.002   9.327 -0.0080 -0.0392  0.1084
  494DPPI   C1B 7723  13.489  14.290  10.634 -0.3754 -0.0208 -0.1715
  494DPPI   C2B 7724  13.748  14.324  10.295  0.0142 -0.4485 -0.1837
  494DPPI   C3B 7725  13.698  14.263   9.992 -0.0187 -0.1265 -0.0216
  494DPPI   C4B 7726  13.614  14.178   9.626  0.1705 -0.0906  0.0557
  495DPPI    C1 7727   5.045   3.064  11.914  0.0348 -0.0104  0.0239
  495DPPI    C2 7728   5.348   3.240  12.107  0.0069 -0.0274  0.0837
  495DPPI    C3 7729   5.101   2.996  12.305 -0.0186 -0.0494  0.0250
  495DPPI   PO4 7730   4.987   3.185  11.782 -0.0099  0.0783 -0.0896
  495DPPI   GL1 7731   4.917   3.217  11.416 -0.2917  0.0057 -0.3166
  495DPPI   GL2 7732   5.106   3.503  11.395 -0.0616  0.1046  0.0988
  495DPPI   C1A 7733   4.885   3.294  11.005 -0.0543 -0.1596  0.0480
  495DPPI   C2A 7734   4.784   3.068  10.586  0.1412  0.3568 -0.3213
  495DPPI   C3A 7735   4.818   3.184  10.147 -0.0066 -0.1469 -0.1446
  495DPPI   C4A 7736   4.767   3.107   9.676 -0.1858 -0.2124 -0.1193
  495DPPI   C1B 7737   4.965   3.839  11.077 -0.0879 -0.1040 -0.0444
  495DPPI   C2B 7738   4.925   3.807  10.675  0.1811  0.0820 -0.0091
  495DPPI   C3B 7739   4.829   3.709  10.244 -0.1296  0.2610 -0.0588
  495DPPI   C4B 7740   4.856   3.607   9.821  0.0233 -0.1330 -0.2157
  496DPPI    C1 7741   8.500   7.245  11.474  0.0815 -0.0692 -0.1207
  496DPPI    C2 7742   8.521   7.554  11.727  0.0391 -0.2588  0.1174
  496DPPI    C3 7743   8.209   7.304  11.742 -0.0737 -0.1481 -0.2694
  496DPPI   PO4 7744   8.650   7.345  11.284 -0.0503 -0.1458  0.0592
  496DPPI   GL1 7745   8.679   7.361  10.858  0.1833 -0.0850 -0.3971
  496DPPI   GL2 7746   8.362   7.469  10.854  0.1574 -0.2154 -0.0660
  496DPPI   C1A 7747   8.899   7.470  10.459  0.0473  0.0935 -0.2921
  496DPPI   C2A 7748   8.880   7.373   9.992 -0.2825  0.3330 -0.5032
  496DPPI   C3A 7749   8.878   7.365   9.543 -0.0781  0.1469 -0.1809
  496DPPI   C4A 7750   8.793   7.218   9.034  0.1960  0.0413  0.3667
  496DPPI   C1B 7751   8.285   7.227  10.489 -0.3927  0.2402  0.0381
  496DPPI   C2B 7752   8.302   7.168   9.996 -0.3658  0.1785  0.1580
  496DPPI   C3B 7753   8.281   7.207   9.649 -0.0569  0.0153  0.0933
  496DPPI   C4B 7754   8.373   7.164   9.275 -0.0241 -0.1055  0.1748
  497DPPI    C1 7755   5.565   6.778  11.568  0.0312 -0.0546  0.1159
  497DPPI    C2 7756   5.882   6.617  11.752  0.0617  0.0304  0.1384
  497DPPI    C3 7757   5.663   6.894  11.938 -0.0002  0.0033  0.1060
  497DPPI   PO4 7758   5.614   6.758  11.284  0.0994 -0.0519 -0.3099
  497DPPI   GL1 7759   5.371   6.779  10.942 -0.1347  0.1502  0.0567
  497DPPI   GL2 7760   5.113   6.666  10.998 -0.3194  0.0515 -0.0772
  497DPPI   C1A 7761   5.436   6.721  10.430 -0.0373 -0.0738 -0.0163
  497DPPI   C2A 7762   5.367   6.734  10.000  0.1419 -0.2099  0.1781
  497DPPI   C3A 7763   5.452   6.663   9.557  0.1211  0.0471  0.2552
  497DPPI   C4A 7764   5.442   6.612   9.111  0.4704  0.5141 -0.0004
  497DPPI   C1B 7765   4.968   6.622  10.591 -0.1397  0.1519  0.1189
  497DPPI   C2B 7766   4.890   6.569  10.135 -0.1308 -0.1397  0.2311
  497DPPI   C3B 7767   4.937   6.483   9.672  0.0875 -0.0836 -0.3328
  497DPPI   C4B 7768   4.817   6.659   9.312 -0.0435 -0.0880 -0.1360
  498DPPI    C1 7769   1.497   3.666  11.906  0.0151  0.0923 -0.3082
  498DPPI    C2 7770   1.290   3.968  12.067 -0.1361 -0.1575 -0.0253
  498DPPI    C3 7771   1.662   3.889  12.194 -0.0998 -0.0961 -0.0932
  498DPPI   PO4 7772   1.455   3.713  11.674 -0.2925  0.0885  0.1078
  498DPPI   GL1 7773   1.526   3.754  11.271 -0.0830 -0.0447 -0.0993
  498DPPI   GL2 7774   1.707   3.474  11.120 -0.0197 -0.0420 -0.1122
  498DPPI   C1A 7775   1.226   3.754  11.027 -0.0776  0.1959 -0.1020
  498DPPI   C2A 7776   1.186   3.719  10.483  0.0271  0.1937 -0.2850
  498DPPI   C3A 7777   1.238   3.687   9.996 -0.1167 -0.3103  0.0834
  498DPPI   C4A 7778   1.230   3.693   9.525  0.1473 -0.1221 -0.0095
  498DPPI   C1B 7779   1.532   3.491  10.758 -0.3598  0.2367  0.0519
  498DPPI   C2B 7780   1.584   3.458  10.293  0.2658 -0.1051 -0.0588
  498DPPI   C3B 7781   1.732   3.392   9.846  0.1752  0.1074 -0.0749
  498DPPI   C4B 7782   1.652   3.222   9.356 -0.3209 -0.0926  0.1244
  499DPPI    C1 7783   2.328   5.641  12.009 -0.0501  0.1300 -0.1061
  499DPPI    C2 7784   2.126   5.812  12.309  0.0491 -0.0304  0.0547
  499DPPI    C3 7785   2.272   5.442  12.352  0.0403 -0.0655 -0.2029
  499DPPI   PO4 7786   2.185   5.568  11.802  0.2037 -0.0801 -0.0097
  499DPPI   GL1 7787   2.176   5.619  11.372 -0.0133 -0.1624 -0.0267
  499DPPI   GL2 7788   2.297   5.346  11.312  0.1420 -0.0135 -0.0192
  499DPPI   C1A 7789   2.057   5.581  10.862  0.1503  0.0514 -0.1975
  499DPPI   C2A 7790   2.069   5.418  10.441  0.1141  0.1825  0.2654
  499DPPI   C3A 7791   1.978   5.447  10.056  0.2574 -0.1364  0.3864
  499DPPI   C4A 7792   1.762   5.533   9.673  0.2335  0.0390  0.2082
  499DPPI   C1B 7793   2.475   5.239  10.909  0.0059 -0.0410  0.0248
  499DPPI   C2B 7794   2.451   5.134  10.430  0.0655 -0.1728 -0.0078
  499DPPI   C3B 7795   2.460   5.175  10.001 -0.2731 -0.1832  0.0769
  499DPPI   C4B 7796   2.265   5.302   9.612 -0.1502 -0.1544 -0.1950
  500DPPI    C1 7797  11.314   6.058  11.618  0.2284  0.1046  0.2997
  500DPPI    C2 7798  11.132   6.051  11.973 -0.2014 -0.3467  0.0821
  500DPPI    C3 7799  10.969   6.253  11.669  0.1373 -0.0061  0.1197
  500DPPI   PO4 7800  11.412   5.836  11.576  0.1421 -0.0827  0.1317
  500DPPI   GL1 7801  11.530   5.609  11.189 -0.0205  0.1192  0.2581
  500DPPI   GL2 7802  11.767   5.557  11.165 -0.2654  0.0437 -0.0111
  500DPPI   C1A 7803  11.277   5.509  10.842 -0.0071 -0.0727 -0.2229
  500DPPI   C2A 7804  11.389   5.378  10.499 -0.0848  0.2561  0.0058
  500DPPI   C3A 7805  11.311   5.351  10.133 -0.3789  0.4013  0.0136
  500DPPI   C4A 7806  11.309   5.259   9.701  0.1140 -0.5939  0.1685
  500DPPI   C1B 7807  11.788   5.589  10.624  0.0493 -0.0483  0.0713
  500DPPI   C2B 7808  11.826   5.547  10.130  0.3162  0.0725 -0.1342
  500DPPI   C3B 7809  11.794   5.450   9.694 -0.1935 -0.3300 -0.1847
  500DPPI   C4B 7810  11.753   5.359   9.215  0.2514 -0.0337 -0.0331
  501DPPI    C1 7811   2.590   0.712  11.893  0.0810  0.0083 -0.1722
  501DPPI    C2 7812   2.277   0.884  11.711  0.0016 -0.1536 -0.1910
  501DPPI    C3 7813   2.217   0.609  11.995  0.1258  0.0236  0.0104
  501DPPI   PO4 7814   2.743   0.709  11.689 -0.2000  0.0881  0.0791
  501DPPI   GL1 7815   2.737   0.708  11.285  0.0152 -0.1167 -0.1592
  501DPPI   GL2 7816   3.011   0.916  11.238 -0.1079 -0.0685  0.1303
  501DPPI   C1A 7817   2.661   0.831  10.820 -0.0225 -0.3666  0.0026
  501DPPI   C2A 7818   2.623   0.922  10.421  0.0277  0.0762 -0.3675
  501DPPI   C3A 7819   2.455   0.873  10.035  0.4616 -0.2921 -0.0950
  501DPPI   C4A 7820   2.688   0.846   9.721 -0.3026 -0.0792 -0.2155
  501DPPI   C1B 7821   3.071   1.082  10.795 -0.1238  0.0361 -0.0281
  501DPPI   C2B 7822   3.056   1.195  10.462 -0.0119  0.0308 -0.0166
  501DPPI   C3B 7823   3.000   1.134  10.079  0.0138 -0.0859  0.3218
  501DPPI   C4B 7824   3.163   0.978   9.741 -0.0569 -0.1374  0.0477
  502DPPI    C1 7825  13.276  12.898  11.455  0.1736 -0.0761  0.0200
  502DPPI    C2 7826  13.548  13.055  11.703  0.0758  0.0331  0.0594
  502DPPI    C3 7827  13.222  12.876  11.851 -0.1548  0.4035  0.0106
  502DPPI   PO4 7828  13.398  12.896  11.241  0.1253 -0.3648 -0.0181
  502DPPI   GL1 7829  13.689  12.663  10.998 -0.1000 -0.0444  0.5280
  502DPPI   GL2 7830  13.553  12.397  11.087 -0.0283  0.2294 -0.2865
  502DPPI   C1A 7831  13.569  12.634  10.505 -0.1080  0.4005 -0.1445
  502DPPI   C2A 7832  13.469  12.682  10.077  0.0106  0.1948  0.1199
  502DPPI   C3A 7833  13.367  12.632   9.653 -0.1977  0.0368  0.2575
  502DPPI   C4A 7834  13.340  12.673   9.178 -0.2540  0.1225  0.0152
  502DPPI   C1B 7835  13.638  12.129  10.761  0.2248  0.1810 -0.1319
  502DPPI   C2B 7836  13.719  12.132  10.352  0.0591  0.0390  0.3264
  502DPPI   C3B 7837  13.718  12.297   9.932 -0.0593  0.0555 -0.2063
  502DPPI   C4B 7838  13.735  12.292   9.560  0.1061 -0.0059 -0.1928
  503DPPI    C1 7839   0.491   3.421  12.052 -0.1768 -0.4529 -0.2454
  503DPPI    C2 7840   0.108   3.487  12.147 -0.0493  0.0432 -0.0425
  503DPPI    C3 7841   0.361   3.344  12.423 -0.0550 -0.1537 -0.1374
  503DPPI   PO4 7842   0.546   3.629  11.830  0.0053  0.2922  0.2236
  503DPPI   GL1 7843   0.560   3.552  11.437 -0.0096 -0.0080  0.1491
  503DPPI   GL2 7844   0.260   3.479  11.258  0.0258  0.1030 -0.2173
  503DPPI   C1A 7845   0.706   3.659  10.984 -0.0405  0.1723 -0.0741
  503DPPI   C2A 7846   0.716   3.598  10.538 -0.0137 -0.0398  0.1717
  503DPPI   C3A 7847   0.728   3.541  10.062 -0.0208  0.0263 -0.2237
  503DPPI   C4A 7848   0.764   3.547   9.644 -0.1618 -0.2490  0.0954
  503DPPI   C1B 7849   0.253   3.400  10.823 -0.0583  0.1219 -0.4126
  503DPPI   C2B 7850   0.231   3.415  10.406 -0.0040 -0.0405 -0.0510
  503DPPI   C3B 7851   0.219   3.322   9.956 -0.1574  0.2927  0.0428
  503DPPI   C4B 7852   0.261   3.240   9.559  0.2254  0.0990 -0.1263
  504DPPI    C1 7853  10.124  16.318  11.134  0.1747 -0.0467 -0.0399
  504DPPI    C2 7854  10.171  16.192  11.511  0.2769  0.1579  0.0173
  504DPPI    C3 7855  10.198  16.582  11.426  0.1338  0.1257 -0.1836
  504DPPI   PO4 7856  10.297  16.206  10.990 -0.2405 -0.0749  0.0624
  504DPPI   GL1 7857  10.281  16.274  10.593 -0.2382 -0.1197 -0.0746
  504DPPI   GL2 7858  10.605  16.111  10.551  0.0807 -0.3436 -0.2010
  504DPPI   C1A 7859  10.338  16.363  10.150  0.0335 -0.2315  0.0997
  504DPPI   C2A 7860  10.345  16.274   9.752  0.2419  0.2309 -0.0412
  504DPPI   C3A 7861  10.463  16.293   9.303  0.1766 -0.0568  0.0155
  504DPPI   C4A 7862  10.358  16.206   8.911 -0.1167 -0.0327  0.1557
  504DPPI   C1B 7863  10.646  16.013  10.055  0.1660 -0.0193 -0.0011
  504DPPI   C2B 7864  10.660  15.919   9.588 -0.2359  0.1394  0.1663
  504DPPI   C3B 7865  10.714  15.789   9.154 -0.1143 -0.0576 -0.1635
  504DPPI   C4B 7866  10.920  15.624   8.827  0.2873 -0.1036  0.2676
  505DPPI    C1 7867  15.094   0.069  11.872  0.0005 -0.1151  0.1101
  505DPPI    C2 7868  14.886  -0.193  12.093 -0.1760  0.0416  0.1325
  505DPPI    C3 7869  15.070   0.116  12.268 -0.4850  0.2813  0.0437
  505DPPI   PO4 7870  14.951   0.150  11.649  0.0711 -0.0374 -0.0195
  505DPPI   GL1 7871  14.838   0.010  11.248  0.1787 -0.0557  0.0922
  505DPPI   GL2 7872  14.547   0.021  11.319 -0.0123 -0.2793 -0.0810
  505DPPI   C1A 7873  14.945   0.026  10.767  0.1330 -0.0268 -0.0305
  505DPPI   C2A 7874  15.102   0.071  10.334 -0.0192 -0.1243  0.0055
  505DPPI   C3A 7875  15.024   0.036   9.964  0.0432 -0.0016 -0.1105
  505DPPI   C4A 7876  15.099  -0.171   9.527 -0.0653 -0.2157  0.0210
  505DPPI   C1B 7877  14.493  -0.019  10.923 -0.3949 -0.0593  0.0980
  505DPPI   C2B 7878  14.567  -0.242  10.552 -0.0068 -0.0542 -0.3394
  505DPPI   C3B 7879  14.660  -0.252  10.216 -0.0504  0.1769 -0.1252
  505DPPI   C4B 7880  14.651  -0.194   9.689  0.0661 -0.1786 -0.2330
  506DPPI    C1 7881   5.276  12.955  11.712  0.1127 -0.1204  0.0308
  506DPPI    C2 7882   4.996  13.055  11.980  0.0119 -0.3073 -0.0034
  506DPPI    C3 7883   5.118  12.675  11.951  0.1315 -0.2607 -0.1195
  506DPPI   PO4 7884   5.184  13.066  11.525 -0.1852 -0.1623 -0.4830
  506DPPI   GL1 7885   4.990  12.960  11.144  0.1099  0.3238 -0.1211
  506DPPI   GL2 7886   4.836  13.083  11.048 -0.1044  0.0552 -0.0963
  506DPPI   C1A 7887   4.981  12.620  10.836 -0.0792  0.2454  0.1897
  506DPPI   C2A 7888   4.988  12.561  10.404  0.1839 -0.0841  0.1084
  506DPPI   C3A 7889   4.831  12.546  10.062  0.0890 -0.1795 -0.0702
  506DPPI   C4A 7890   4.809  12.506   9.548  0.2411  0.1830 -0.1254
  506DPPI   C1B 7891   4.932  13.080  10.585  0.1039 -0.0108  0.2230
  506DPPI   C2B 7892   4.984  13.062  10.205  0.0715 -0.2219 -0.1029
  506DPPI   C3B 7893   4.897  13.089   9.712 -0.1562  0.1257  0.0813
  506DPPI   C4B 7894   4.839  12.887   9.242 -0.0614 -0.0740  0.2180
  507DPPI    C1 7895   0.715   1.754  11.871  0.0145 -0.0417  0.2775
  507DPPI    C2 7896   1.114   1.727  11.862  0.0200  0.1003 -0.0868
  507DPPI    C3 7897   0.935   1.956  12.136  0.1878  0.0489  0.0679
  507DPPI   PO4 7898   0.666   1.683  11.635 -0.1169 -0.0433 -0.0523
  507DPPI   GL1 7899   0.340   1.699  11.375  0.1327  0.2522  0.0473
  507DPPI   GL2 7900   0.086   1.834  11.183  0.1178  0.1791  0.1544
  507DPPI   C1A 7901   0.387   1.515  10.973  0.2929 -0.0614  0.1408
  507DPPI   C2A 7902   0.462   1.421  10.570 -0.1125  0.1284 -0.1385
  507DPPI   C3A 7903   0.368   1.533  10.136 -0.0066 -0.0731  0.1595
  507DPPI   C4A 7904   0.275   1.452   9.678  0.0957  0.0707 -0.0956
  507DPPI   C1B 7905  -0.046   1.822  10.773  0.3914  0.1619 -0.1864
  507DPPI   C2B 7906   0.006   1.711  10.440  0.0294 -0.0773 -0.3570
  507DPPI   C3B 7907  -0.105   1.825  10.095  0.3406 -0.3299  0.0947
  507DPPI   C4B 7908  -0.148   1.894   9.666 -0.0398 -0.1307 -0.4993
  508DPPI    C1 7909   1.538  13.818  11.860 -0.2502  0.1096  0.0747
  508DPPI    C2 7910   1.649  14.155  12.043  0.1797 -0.1095  0.2326
  508DPPI    C3 7911   1.498  13.853  12.256 -0.0970 -0.0631  0.1069
  508DPPI   PO4 7912   1.388  13.900  11.663  0.1366  0.1081 -0.3301
  508DPPI   GL1 7913   1.377  14.021  11.335 -0.0209  0.1423 -0.0941
  508DPPI   GL2 7914   1.430  13.716  11.184 -0.1403 -0.2363 -0.3254
  508DPPI   C1A 7915   1.468  14.087  10.861 -0.0847 -0.2143  0.0617
  508DPPI   C2A 7916   1.579  14.233  10.444  0.1890  0.1107 -0.1976
  508DPPI   C3A 7917   1.446  14.152  10.151 -0.0375  0.3621  0.0041
  508DPPI   C4A 7918   1.411  14.286   9.753 -0.1045 -0.0667 -0.0039
  508DPPI   C1B 7919   1.317  13.610  10.768  0.1267  0.0254 -0.1746
  508DPPI   C2B 7920   1.424  13.611  10.338  0.1140  0.1017 -0.0766
  508DPPI   C3B 7921   1.348  13.731   9.856 -0.0148 -0.2125 -0.4528
  508DPPI   C4B 7922   1.260  13.710   9.498 -0.2784  0.1593 -0.2298
  509DPPI    C1 7923  11.218   9.471  11.365  0.1630 -0.1711  0.1416
  509DPPI    C2 7924  11.444   9.382  11.683  0.2723 -0.2901  0.0319
  509DPPI    C3 7925  11.068   9.508  11.734  0.3262 -0.1985  0.2117
  509DPPI   PO4 7926  11.365   9.591  11.200 -0.0497 -0.0425  0.1174
  509DPPI   GL1 7927  11.356   9.704  10.795  0.0188 -0.1901  0.2694
  509DPPI   GL2 7928  11.062   9.738  10.552 -0.0749  0.0278  0.1046
  509DPPI   C1A 7929  11.359   9.395  10.307 -0.0086 -0.0849  0.1839
  509DPPI   C2A 7930  11.428   9.291   9.870 -0.1218 -0.1897 -0.2406
  509DPPI   C3A 7931  11.424   9.224   9.397  0.1205  0.1203  0.0353
  509DPPI   C4A 7932  11.503   9.308   8.960  0.3293 -0.0760 -0.1959
  509DPPI   C1B 7933  11.065   9.630  10.039  0.0396  0.1976  0.1549
  509DPPI   C2B 7934  11.040   9.510   9.606 -0.0535 -0.2568  0.0601
  509DPPI   C3B 7935  11.061   9.722   9.240 -0.0023  0.3176  0.3902
  509DPPI   C4B 7936  11.025   9.513   8.856 -0.1763  0.3508 -0.2106
  510DPPI    C1 7937   0.600  14.518  12.117  0.0282  0.1639 -0.3004
  510DPPI    C2 7938   0.262  14.727  12.078 -0.0213  0.1293 -0.0722
  510DPPI    C3 7939   0.484  14.766  12.409 -0.1538 -0.3516  0.0814
  510DPPI   PO4 7940   0.614  14.423  11.900 -0.1235 -0.2104  0.1330
  510DPPI   GL1 7941   0.500  14.340  11.421 -0.2224  0.2080 -0.1366
  510DPPI   GL2 7942   0.657  14.487  11.375  0.4102  0.1086  0.2328
  510DPPI   C1A 7943   0.151  14.187  11.095  0.0947 -0.0020 -0.2739
  510DPPI   C2A 7944   0.087  13.962  10.623 -0.1158 -0.1539  0.0962
  510DPPI   C3A 7945   0.075  14.150  10.202 -0.0311 -0.2190  0.2683
  510DPPI   C4A 7946   0.119  14.163   9.743  0.1881  0.0112 -0.1549
  510DPPI   C1B 7947   0.722  14.827  11.036 -0.0125 -0.0331  0.0884
  510DPPI   C2B 7948   0.693  14.896  10.569  0.2479  0.1766 -0.3187
  510DPPI   C3B 7949   0.660  14.863  10.123  0.2378 -0.1769  0.0750
  510DPPI   C4B 7950   0.537  14.845   9.645 -0.2299  0.0676  0.1727
  511DPPI    C1 7951  16.447  17.012  11.788  0.1136  0.0931  0.2403
  511DPPI    C2 7952  16.365  16.826  12.132 -0.0798 -0.1107  0.0859
  511DPPI    C3 7953  16.140  17.134  12.013  0.0911  0.0692  0.2222
  511DPPI   PO4 7954  16.671  16.966  11.698  0.2166  0.2044 -0.1007
  511DPPI   GL1 7955  16.769  16.711  11.434  0.0145  0.3553  0.2704
  511DPPI   GL2 7956  16.378  16.822  11.217 -0.1028 -0.0557 -0.4451
  511DPPI   C1A 7957  16.814  16.890  10.986  0.2706  0.0363  0.0192
  511DPPI   C2A 7958  16.848  16.947  10.447 -0.3441  0.1009  0.0379
  511DPPI   C3A 7959  16.783  16.988  10.024 -0.1049 -0.0105  0.0199
  511DPPI   C4A 7960  16.799  17.000   9.666  0.0455 -0.1411 -0.1488
  511DPPI   C1B 7961  16.295  16.802  10.810 -0.2757 -0.0806  0.2308
  511DPPI   C2B 7962  16.314  16.819  10.388  0.1248  0.0838  0.1744
  511DPPI   C3B 7963  16.363  16.779   9.959  0.3650  0.1435  0.0405
  511DPPI   C4B 7964  16.376  16.669   9.520 -0.3231  0.1037 -0.0038
  512DPPI    C1 7965   6.373   1.090  11.484  0.2105  0.3631  0.0334
  512DPPI    C2 7966   6.354   1.431  11.692 -0.1805  0.3470  0.0317
  512DPPI    C3 7967   6.202   1.094  11.845  0.2885  0.1468  0.0743
  512DPPI   PO4 7968   6.425   1.215  11.245  0.1202  0.1855 -0.1022
  512DPPI   GL1 7969   6.438   1.206  10.925 -0.1322 -0.2511  0.1487
  512DPPI   GL2 7970   6.589   0.882  10.860 -0.1467 -0.0631  0.0633
  512DPPI   C1A 7971   6.373   1.364  10.527 -0.0687  0.1204 -0.2003
  512DPPI   C2A 7972   6.359   1.280  10.106 -0.1388  0.0956  0.1525
  512DPPI   C3A 7973   6.248   1.213   9.712 -0.0463 -0.3545  0.1156
  512DPPI   C4A 7974   6.223   1.181   9.259 -0.1557  0.0894  0.3137
  512DPPI   C1B 7975   6.477   0.866  10.415 -0.1099 -0.1608  0.0467
  512DPPI   C2B 7976   6.776   0.952  10.063 -0.0214  0.0417  0.0491
  512DPPI   C3B 7977   6.664   0.882   9.585  0.2063  0.0272 -0.2875
  512DPPI   C4B 7978   6.637   0.940   9.198 -0.1126 -0.2501 -0.3132
  513PYPI    C1 7979  12.069  11.433  11.707  0.1339  0.1703  0.1458
  513PYPI    C2 7980  12.123  11.041  11.768  0.2508  0.1771  0.0912
  513PYPI    C3 7981  11.876  11.249  12.005 -0.2739 -0.0471 -0.2410
  513PYPI   PO4 7982  12.073  11.455  11.391  0.2394  0.0379 -0.0348
  513PYPI   GL1 7983  12.239  11.505  11.007  0.0442  0.3005 -0.1069
  513PYPI   GL2 7984  12.067  11.263  10.845 -0.4984  0.1829 -0.3255
  513PYPI   C1A 7985  12.475  11.438  10.596 -0.1711  0.0077  0.1596
  513PYPI   C2A 7986  12.456  11.428  10.177  0.1816  0.0917 -0.1158
  513PYPI   D3A 7987  12.658  11.394   9.711  0.0454  0.1618  0.1974
  513PYPI   C4A 7988  12.474  11.537   9.353  0.0267 -0.0676 -0.0814
  513PYPI   C1B 7989  11.980  11.230  10.525  0.0587  0.1040 -0.3971
  513PYPI   C2B 7990  12.038  11.198  10.039  0.0622  0.0632 -0.1025
  513PYPI   C3B 7991  12.037  11.185   9.649 -0.4872  0.1199 -0.1368
  513PYPI   C4B 7992  12.144  11.223   9.176 -0.2881  0.1695  0.3251
  514PYPI    C1 7993  14.474   8.199  11.582  0.1457 -0.2532 -0.0395
  514PYPI    C2 7994  14.375   8.214  11.969  0.1052  0.2009 -0.0617
  514PYPI    C3 7995  14.238   7.917  11.739 -0.1224  0.0968  0.2029
  514PYPI   PO4 7996  14.465   8.421  11.556  0.0565 -0.1069  0.3127
  514PYPI   GL1 7997  14.459   8.420  11.087  0.0690  0.0533  0.4143
  514PYPI   GL2 7998  14.715   8.220  11.052 -0.2457 -0.3085  0.0680
  514PYPI   C1A 7999  14.619   8.683  10.717  0.1955 -0.2252  0.1300
  514PYPI   C2A 8000  14.622   8.665  10.272 -0.0167  0.0409 -0.0572
  514PYPI   D3A 8001  14.568   8.718   9.778  0.1066  0.2039 -0.1139
  514PYPI   C4A 8002  14.636   8.472   9.407  0.2931 -0.2495 -0.0846
  514PYPI   C1B 8003  14.767   8.216  10.580 -0.0580 -0.2344  0.0552
  514PYPI   C2B 8004  14.851   8.255  10.127  0.2762  0.1077 -0.0805
  514PYPI   C3B 8005  14.967   8.198   9.680  0.1260  0.0154 -0.2794
  514PYPI   C4B 8006  15.049   8.137   9.322  0.0538  0.3126 -0.1648
  515PYPI    C1 8007  14.964   6.786  11.719 -0.1609  0.0737 -0.0487
  515PYPI    C2 8008  15.242   6.530  11.851 -0.0714  0.1832 -0.0229
  515PYPI    C3 8009  15.003   6.718  12.112  0.0167  0.2991 -0.0250
  515PYPI   PO4 8010  15.114   6.888  11.482 -0.0115  0.2071 -0.1528
  515PYPI   GL1 8011  15.302   7.189  11.096 -0.0830 -0.0593  0.1080
  515PYPI   GL2 8012  15.625   7.169  11.042 -0.4262  0.2233  0.1780
  515PYPI   C1A 8013  15.215   7.007  10.743 -0.0604 -0.1506 -0.2298
  515PYPI   C2A 8014  15.151   6.873  10.415 -0.0433  0.0060 -0.0613
  515PYPI   D3A 8015  15.231   6.861  10.077  0.1534 -0.1551  0.1685
  515PYPI   C4A 8016  15.301   6.879   9.685 -0.0395 -0.1026 -0.0320
  515PYPI   C1B 8017  15.660   7.172  10.649  0.0995 -0.2044  0.1814
  515PYPI   C2B 8018  15.647   7.101  10.227 -0.0980 -0.1200 -0.2332
  515PYPI   C3B 8019  15.758   7.080   9.829 -0.0230  0.1335 -0.1109
  515PYPI   C4B 8020  15.717   7.051   9.443  0.0866  0.1593 -0.1734
  516PYPI    C1 8021  13.128   5.871  11.802  0.0976  0.0441  0.0457
  516PYPI    C2 8022  13.449   5.635  11.840 -0.0841 -0.1747  0.2435
  516PYPI    C3 8023  13.392   5.937  12.095  0.1895  0.1387 -0.0571
  516PYPI   PO4 8024  13.091   5.962  11.552  0.2484 -0.1181  0.1929
  516PYPI   GL1 8025  13.086   5.878  11.119  0.1332  0.1449  0.1569
  516PYPI   GL2 8026  12.835   6.073  10.939  0.0467  0.0568 -0.0594
  516PYPI   C1A 8027  13.103   5.682  10.663 -0.0602 -0.1286  0.2498
  516PYPI   C2A 8028  13.154   5.643  10.233 -0.1917  0.2072 -0.0028
  516PYPI   D3A 8029  13.230   5.608   9.758 -0.0391 -0.3423 -0.0993
  516PYPI   C4A 8030  13.230   5.540   9.353  0.1293  0.2482 -0.0240
  516PYPI   C1B 8031  12.655   6.054  10.513 -0.1900  0.0065  0.1690
  516PYPI   C2B 8032  12.761   5.909  10.065  0.1638 -0.0853  0.0156
  516PYPI   C3B 8033  12.778   5.869   9.651  0.2261 -0.0906  0.0044
  516PYPI   C4B 8034  12.730   5.807   9.254 -0.3037 -0.0274 -0.2541
  517PYPI    C1 8035  11.895   9.253  11.052  0.0862 -0.1620  0.0035
  517PYPI    C2 8036  11.890   9.530  11.341 -0.1900 -0.2103  0.0475
  517PYPI    C3 8037  12.161   9.237  11.350  0.2133  0.1481 -0.0884
  517PYPI   PO4 8038  11.892   9.341  10.871  0.2840  0.1702  0.0591
  517PYPI   GL1 8039  11.877   9.404  10.514 -0.1017 -0.2663  0.1009
  517PYPI   GL2 8040  11.789   9.685  10.471 -0.0138  0.0299 -0.1456
  517PYPI   C1A 8041  11.806   9.191  10.164  0.1594 -0.0906  0.3035
  517PYPI   C2A 8042  11.814   8.977   9.762 -0.1651 -0.2531  0.1068
  517PYPI   D3A 8043  11.843   8.950   9.372  0.2646 -0.2374  0.2042
  517PYPI   C4A 8044  11.927   9.334   9.223  0.1910  0.1282 -0.0363
  517PYPI   C1B 8045  11.687   9.701  10.038 -0.1738 -0.0290 -0.0406
  517PYPI   C2B 8046  11.768   9.587   9.644 -0.1011  0.2425  0.3913
  517PYPI   C3B 8047  11.555   9.732   9.273  0.1867  0.0368 -0.3792
  517PYPI   C4B 8048  11.448   9.774   8.832 -0.0436  0.2193  0.0036
  518PYPI    C1 8049  16.536  16.499  11.832 -0.2679 -0.2087  0.1060
  518PYPI    C2 8050  16.662  16.126  11.903  0.2063 -0.0410  0.1847
  518PYPI    C3 8051  16.660  16.396  12.198 -0.0214  0.0525  0.1000
  518PYPI   PO4 8052  16.416  16.419  11.534  0.0149  0.1718  0.0617
  518PYPI   GL1 8053  16.197  16.360  11.149  0.0285 -0.0825  0.0107
  518PYPI   GL2 8054  16.536  16.357  11.028 -0.2599 -0.1235  0.0655
  518PYPI   C1A 8055  16.189  16.186  10.739 -0.0960  0.0618  0.2925
  518PYPI   C2A 8056  16.256  16.234  10.318  0.4488 -0.2065 -0.1864
  518PYPI   D3A 8057  16.302  16.273   9.856 -0.0225 -0.0399 -0.0552
  518PYPI   C4A 8058  16.229  16.158   9.411 -0.0587  0.0516  0.1370
  518PYPI   C1B 8059  16.621  16.400  10.588  0.3934 -0.1997  0.0211
  518PYPI   C2B 8060  16.680  16.429  10.142 -0.0855  0.0669  0.0448
  518PYPI   C3B 8061  16.780  16.380   9.733 -0.0350 -0.0615  0.0584
  518PYPI   C4B 8062  16.914  16.586   9.374 -0.0666  0.0941  0.1160
  519PYPI    C1 8063  12.398   6.664  11.606  0.1103  0.1236  0.1333
  519PYPI    C2 8064  12.335   7.059  11.608 -0.1502  0.0857 -0.0503
  519PYPI    C3 8065  12.519   6.885  11.917 -0.0954  0.3398  0.0632
  519PYPI   PO4 8066  12.398   6.662  11.346 -0.2080  0.0563 -0.1494
  519PYPI   GL1 8067  12.215   6.854  11.021  0.0856  0.0793  0.1058
  519PYPI   GL2 8068  12.004   6.730  10.904 -0.2402 -0.1880 -0.0550
  519PYPI   C1A 8069  12.393   6.908  10.578  0.0201 -0.1768 -0.2791
  519PYPI   C2A 8070  12.388   6.773  10.127 -0.0142  0.0141 -0.0506
  519PYPI   D3A 8071  12.406   6.753   9.744 -0.0479 -0.0598 -0.1701
  519PYPI   C4A 8072  12.515   6.640   9.340  0.0486 -0.0607 -0.3468
  519PYPI   C1B 8073  11.897   6.624  10.545  0.0482  0.1358  0.0978
  519PYPI   C2B 8074  11.862   6.545  10.117 -0.3116  0.2386 -0.3211
  519PYPI   C3B 8075  11.924   6.470   9.733 -0.3891 -0.0741 -0.0331
  519PYPI   C4B 8076  11.964   6.377   9.231  0.2241  0.3461  0.1100
  520PYPI    C1 8077   6.357   0.536  11.708  0.1400 -0.0183  0.0237
  520PYPI    C2 8078   6.163   0.395  12.028 -0.1600 -0.2509 -0.2539
  520PYPI    C3 8079   6.421   0.161  11.832  0.0604 -0.0926 -0.1576
  520PYPI   PO4 8080   6.120   0.668  11.594 -0.3000  0.2236  0.0450
  520PYPI   GL1 8081   5.858   0.531  11.248 -0.0064  0.2259  0.0806
  520PYPI   GL2 8082   6.164   0.708  11.112 -0.2632  0.1296  0.0374
  520PYPI   C1A 8083   5.794   0.547  10.728  0.0628  0.1205 -0.0681
  520PYPI   C2A 8084   5.694   0.480  10.282 -0.0031 -0.1319  0.2705
  520PYPI   D3A 8085   5.838   0.569   9.872  0.1802 -0.0513 -0.2280
  520PYPI   C4A 8086   5.687   0.478   9.444  0.4040  0.0872 -0.0124
  520PYPI   C1B 8087   6.082   0.936  10.724  0.0990 -0.0748  0.1660
  520PYPI   C2B 8088   6.017   0.918  10.304 -0.0829 -0.2781  0.2717
  520PYPI   C3B 8089   5.890   1.093  10.015  0.1122 -0.0162  0.0249
  520PYPI   C4B 8090   5.754   1.011   9.613  0.0560 -0.1241  0.1031
  521PYPI    C1 8091  16.671  11.264  11.750 -0.1037  0.0036  0.1484
  521PYPI    C2 8092  16.552  11.143  12.112 -0.2563  0.3194  0.2073
  521PYPI    C3 8093  16.897  11.341  12.070 -0.0850  0.0121  0.1332
  521PYPI   PO4 8094  16.768  11.058  11.565 -0.1229  0.2105 -0.0054
  521PYPI   GL1 8095  16.759  10.684  11.285 -0.1614 -0.1153 -0.0925
  521PYPI   GL2 8096  16.608  10.425  11.041  0.0368 -0.1326 -0.1311
  521PYPI   C1A 8097  16.755  10.893  10.916  0.0940  0.0823  0.2674
  521PYPI   C2A 8098  16.797  11.032  10.515  0.1545 -0.1796  0.1877
  521PYPI   D3A 8099  16.850  11.083  10.118  0.2039 -0.0558  0.2860
  521PYPI   C4A 8100  16.777  11.076   9.757  0.1622  0.2165  0.2033
  521PYPI   C1B 8101  16.704  10.483  10.629 -0.1242 -0.2811 -0.0284
  521PYPI   C2B 8102  16.751  10.578  10.212  0.0231 -0.2563 -0.1380
  521PYPI   C3B 8103  16.702  10.577   9.871  0.2141 -0.0608  0.1009
  521PYPI   C4B 8104  16.736  10.715   9.391 -0.0482  0.0268  0.2992
  522PYPI    C1 8105  10.410  14.998  11.394  0.0682 -0.0128  0.1821
  522PYPI    C2 8106  10.761  14.872  11.250  0.0181  0.0764 -0.0204
  522PYPI    C3 8107  10.694  14.866  11.644  0.2007 -0.0571  0.0102
  522PYPI   PO4 8108  10.227  14.892  11.200  0.4178  0.1611  0.0774
  522PYPI   GL1 8109  10.006  14.669  10.912  0.0006  0.0812 -0.1636
  522PYPI   GL2 8110  10.271  14.686  10.743  0.1417 -0.3324  0.1490
  522PYPI   C1A 8111   9.922  14.911  10.502 -0.0087 -0.3490 -0.0297
  522PYPI   C2A 8112   9.942  14.872  10.147 -0.1133 -0.1423  0.1763
  522PYPI   D3A 8113   9.859  14.873   9.732 -0.0538 -0.0931  0.3230
  522PYPI   C4A 8114  10.008  14.827   9.362  0.0469 -0.3006  0.0555
  522PYPI   C1B 8115  10.342  14.656  10.280  0.0877  0.1322  0.0014
  522PYPI   C2B 8116  10.285  14.619   9.865 -0.1085  0.0251  0.0444
  522PYPI   C3B 8117  10.320  14.412   9.522 -0.1157 -0.2637 -0.1420
  522PYPI   C4B 8118  10.241  14.354   9.102 -0.1755 -0.1618  0.0791
  523PYPI    C1 8119  12.986   6.847  11.696  0.2267  0.0112 -0.0942
  523PYPI    C2 8120  13.208   7.153  11.828 -0.0428  0.0651  0.2484
  523PYPI    C3 8121  12.991   6.937  12.086 -0.2703 -0.0829 -0.0597
  523PYPI   PO4 8122  12.830   6.931  11.443 -0.1122 -0.1051 -0.1439
  523PYPI   GL1 8123  13.038   6.680  11.123  0.0771  0.1757 -0.2135
  523PYPI   GL2 8124  12.802   6.622  10.978 -0.5160 -0.1860 -0.0010
  523PYPI   C1A 8125  13.339   6.748  10.796  0.0203  0.2554 -0.0208
  523PYPI   C2A 8126  13.412   6.575  10.444 -0.0892 -0.0030 -0.0880
  523PYPI   D3A 8127  13.305   6.584  10.032  0.0052 -0.0042 -0.0585
  523PYPI   C4A 8128  13.310   6.498   9.626 -0.1899 -0.0850 -0.0585
  523PYPI   C1B 8129  12.856   6.577  10.583  0.1126  0.1114 -0.3367
  523PYPI   C2B 8130  12.749   6.424  10.171  0.0209 -0.1358  0.1942
  523PYPI   C3B 8131  12.795   6.368   9.697  0.4982 -0.0510  0.2213
  523PYPI   C4B 8132  12.904   6.312   9.366  0.0385 -0.0711 -0.0558
  524PYPI    C1 8133   7.563  15.239  11.495 -0.0512  0.2524 -0.2405
  524PYPI    C2 8134   7.487  15.081  11.854  0.3496 -0.2453 -0.3627
  524PYPI    C3 8135   7.419  15.469  11.788 -0.0093 -0.2098  0.1559
  524PYPI   PO4 8136   7.492  15.176  11.282 -0.1607  0.2189  0.1712
  524PYPI   GL1 8137   7.521  15.334  10.945 -0.2960  0.0373  0.0439
  524PYPI   GL2 8138   7.219  15.363  10.827 -0.2803 -0.3124 -0.0878
  524PYPI   C1A 8139   7.615  15.189  10.562 -0.0382  0.1230  0.3825
  524PYPI   C2A 8140   7.643  15.156  10.143  0.0130 -0.2003  0.0894
  524PYPI   D3A 8141   7.656  15.024   9.664 -0.0168 -0.0426  0.0495
  524PYPI   C4A 8142   7.582  14.616   9.559 -0.1943  0.1643 -0.2683
  524PYPI   C1B 8143   7.148  15.312  10.378 -0.0040 -0.0419 -0.3063
  524PYPI   C2B 8144   7.144  15.307   9.897 -0.2693  0.2292  0.2003
  524PYPI   C3B 8145   7.208  15.304   9.536  0.2315 -0.0668  0.1798
  524PYPI   C4B 8146   7.228  15.334   9.130 -0.2790  0.3700  0.2810
  525PYPI    C1 8147  10.745   0.104  11.210 -0.0433  0.0603  0.1290
  525PYPI    C2 8148  10.957  -0.014  11.528 -0.0902 -0.1193  0.0950
  525PYPI    C3 8149  10.665   0.256  11.571 -0.0832 -0.1279  0.2007
  525PYPI   PO4 8150  10.855  -0.100  11.030 -0.1790 -0.2052 -0.4005
  525PYPI   GL1 8151  10.846  -0.162  10.556  0.1189  0.1784 -0.3341
  525PYPI   GL2 8152  11.187  -0.217  10.707  0.0449 -0.0353  0.0977
  525PYPI   C1A 8153  10.746  -0.145  10.052 -0.3148 -0.0136  0.0324
  525PYPI   C2A 8154  10.881   0.045   9.607  0.3000 -0.1476  0.1588
  525PYPI   D3A 8155  10.740   0.257   9.222  0.1316 -0.1720  0.2882
  525PYPI   C4A 8156  10.764   0.643   9.042 -0.0026  0.1247 -0.0565
  525PYPI   C1B 8157  11.218  -0.381  10.321 -0.0117  0.0886  0.0392
  525PYPI   C2B 8158  11.162  -0.335   9.806 -0.0236 -0.0626  0.0680
  525PYPI   C3B 8159  11.240  -0.205   9.397  0.0150 -0.1522  0.0365
  525PYPI   C4B 8160  11.373  -0.339   9.070  0.0860  0.1435 -0.0199
  526PYPI    C1 8161  10.085   7.782  11.803 -0.0074 -0.0503  0.0906
  526PYPI    C2 8162  10.432   7.685  11.976  0.0506  0.0300  0.0203
  526PYPI    C3 8163  10.202   7.969  12.137  0.0211 -0.0175  0.0623
  526PYPI   PO4 8164  10.175   7.860  11.537  0.1194  0.0427  0.3421
  526PYPI   GL1 8165  10.121   7.869  11.069 -0.0489  0.0207 -0.0102
  526PYPI   GL2 8166   9.942   7.729  10.900  0.1437 -0.1209 -0.0537
  526PYPI   C1A 8167  10.389   7.944  10.666 -0.1214  0.1503  0.0409
  526PYPI   C2A 8168  10.307   7.877  10.285  0.0562 -0.2069 -0.0952
  526PYPI   D3A 8169  10.379   7.954   9.955  0.0531  0.0632  0.0086
  526PYPI   C4A 8170  10.303   7.876   9.519 -0.1350 -0.0064 -0.2375
  526PYPI   C1B 8171   9.822   7.728  10.386 -0.0160 -0.3062 -0.2485
  526PYPI   C2B 8172   9.912   7.695   9.992  0.0599 -0.1360  0.1473
  526PYPI   C3B 8173   9.779   7.661   9.661 -0.4172 -0.0255  0.2839
  526PYPI   C4B 8174   9.772   7.710   9.122 -0.1359 -0.1785 -0.1206
  527PYPI    C1 8175   1.452  16.028  11.876 -0.2984  0.0015 -0.1465
  527PYPI    C2 8176   1.285  16.386  11.940 -0.1879  0.0282 -0.0017
  527PYPI    C3 8177   1.660  16.362  11.803 -0.1333 -0.0314  0.1556
  527PYPI   PO4 8178   1.308  15.923  11.759  0.1526 -0.2823 -0.0040
  527PYPI   GL1 8179   1.224  16.160  11.388 -0.0251  0.2362  0.0783
  527PYPI   GL2 8180   1.360  16.466  11.347 -0.1037 -0.2872  0.0518
  527PYPI   C1A 8181   1.304  16.156  10.974  0.0547 -0.2638  0.0049
  527PYPI   C2A 8182   1.281  16.027  10.553 -0.1093  0.0641  0.1374
  527PYPI   D3A 8183   1.303  16.089  10.098 -0.2921 -0.0663 -0.1013
  527PYPI   C4A 8184   1.230  16.094   9.612 -0.1879 -0.0712 -0.3467
  527PYPI   C1B 8185   1.469  16.713  10.914 -0.1283 -0.1040  0.3144
  527PYPI   C2B 8186   1.458  16.617  10.495  0.2539  0.5398  0.1398
  527PYPI   C3B 8187   1.334  16.549  10.069 -0.1718  0.0657  0.0700
  527PYPI   C4B 8188   1.400  16.577   9.668  0.0483 -0.3357  0.2179
  528PYPI    C1 8189  13.523   7.484  11.647  0.1373 -0.0787 -0.0165
  528PYPI    C2 8190  13.910   7.492  11.748  0.0396 -0.0294  0.3699
  528PYPI    C3 8191  13.629   7.523  12.031 -0.2488 -0.0554  0.0917
  528PYPI   PO4 8192  13.584   7.392  11.302  0.0021  0.1592 -0.1502
  528PYPI   GL1 8193  13.858   7.177  11.062 -0.2197  0.0647 -0.0746
  528PYPI   GL2 8194  13.734   6.871  11.024 -0.1968  0.2089 -0.0301
  528PYPI   C1A 8195  13.878   7.254  10.680  0.1567  0.4141 -0.2949
  528PYPI   C2A 8196  13.881   7.225  10.229  0.1869 -0.0645 -0.1946
  528PYPI   D3A 8197  13.910   7.303   9.841  0.0601  0.0361 -0.1347
  528PYPI   C4A 8198  13.899   7.271   9.361  0.2455  0.1876  0.1443
  528PYPI   C1B 8199  13.889   6.793  10.582 -0.2493  0.0941 -0.1476
  528PYPI   C2B 8200  13.902   6.683  10.099  0.1465  0.2382 -0.2274
  528PYPI   C3B 8201  13.715   6.792   9.735 -0.3807  0.1698  0.2992
  528PYPI   C4B 8202  13.734   6.719   9.334 -0.1603 -0.0276 -0.1988
  529PYPI    C1 8203  12.879  11.033  11.323 -0.0419 -0.1109 -0.2084
  529PYPI    C2 8204  12.694  11.301  11.092 -0.0904  0.3030  0.2915
  529PYPI    C3 8205  13.077  11.356  11.195  0.0200 -0.0329  0.0763
  529PYPI   PO4 8206  12.797  10.820  11.153  0.0144  0.1697  0.0681
  529PYPI   GL1 8207  12.505  10.915  10.820  0.2097  0.0778 -0.0405
  529PYPI   GL2 8208  12.515  10.516  10.740  0.0808  0.0518  0.1656
  529PYPI   C1A 8209  12.388  11.004  10.368 -0.0463  0.0531  0.0280
  529PYPI   C2A 8210  12.384  10.868   9.964 -0.0572  0.1353  0.1326
  529PYPI   D3A 8211  12.379  10.753   9.525 -0.0761  0.0446  0.3458
  529PYPI   C4A 8212  12.701  11.064   9.284 -0.2455  0.0720 -0.0258
  529PYPI   C1B 8213  12.510  10.479  10.387  0.0345  0.1046 -0.0856
  529PYPI   C2B 8214  12.350  10.359   9.907 -0.0801 -0.1196  0.0821
  529PYPI   C3B 8215  12.229  10.292   9.510  0.0239 -0.1686 -0.0479
  529PYPI   C4B 8216  12.307  10.244   9.170 -0.0613 -0.0687 -0.0467
  530PYPI    C1 8217   7.605  11.893  11.520 -0.2065  0.0858  0.0063
  530PYPI    C2 8218   7.803  12.228  11.429  0.1388 -0.0709  0.1599
  530PYPI    C3 8219   7.635  12.187  11.789  0.0231 -0.0309  0.1111
  530PYPI   PO4 8220   7.515  11.842  11.311  0.0240 -0.1718 -0.1057
  530PYPI   GL1 8221   7.321  11.998  11.028  0.2139  0.0369  0.0529
  530PYPI   GL2 8222   7.463  12.266  10.979  0.1703 -0.0115  0.0463
  530PYPI   C1A 8223   7.183  11.883  10.664 -0.4511 -0.0945 -0.0259
  530PYPI   C2A 8224   7.230  11.867  10.207  0.2706 -0.3112  0.1061
  530PYPI   D3A 8225   7.166  11.821   9.851  0.0174 -0.2032  0.1010
  530PYPI   C4A 8226   7.335  11.629   9.604  0.1944  0.1112 -0.0256
  530PYPI   C1B 8227   7.558  12.229  10.529 -0.0325 -0.0861  0.1774
  530PYPI   C2B 8228   7.563  12.223  10.047 -0.0998  0.1458 -0.0454
  530PYPI   C3B 8229   7.463  12.198   9.632  0.2209  0.2874 -0.1040
  530PYPI   C4B 8230   7.322  12.177   9.264 -0.2722  0.0537 -0.0977
  531PYPI    C1 8231   3.303  12.465  11.899 -0.0652  0.2104 -0.1171
  531PYPI    C2 8232   2.967  12.374  12.096  0.1816  0.0063  0.2206
  531PYPI    C3 8233   3.117  12.744  12.116 -0.0111  0.0934  0.0824
  531PYPI   PO4 8234   3.316  12.534  11.579  0.3234  0.0053  0.0220
  531PYPI   GL1 8235   3.200  12.829  11.280  0.1469  0.0521  0.0809
  531PYPI   GL2 8236   3.224  13.170  11.200 -0.1107 -0.5030 -0.2447
  531PYPI   C1A 8237   3.142  12.729  10.892  0.0282 -0.0753  0.0596
  531PYPI   C2A 8238   3.140  12.765  10.444  0.1554  0.0969 -0.1003
  531PYPI   D3A 8239   3.185  12.888  10.086 -0.0605 -0.1687 -0.0120
  531PYPI   C4A 8240   2.902  12.939   9.806  0.0057  0.1780  0.1846
  531PYPI   C1B 8241   3.209  13.246  10.772  0.1379  0.1600 -0.0692
  531PYPI   C2B 8242   3.253  13.415  10.331 -0.1883  0.1815 -0.2378
  531PYPI   C3B 8243   3.126  13.353   9.988 -0.0445 -0.1885  0.3136
  531PYPI   C4B 8244   3.148  13.413   9.551  0.1223  0.2966  0.0690
  532PYPI    C1 8245  11.781  16.903  11.521  0.0934 -0.0334 -0.0884
  532PYPI    C2 8246  11.890  16.565  11.705 -0.1299  0.0538  0.2122
  532PYPI    C3 8247  11.712  16.857  11.912 -0.2667  0.2107 -0.1186
  532PYPI   PO4 8248  11.844  16.820  11.203 -0.0809 -0.0815  0.1666
  532PYPI   GL1 8249  11.631  16.693  10.936  0.0825  0.2231  0.2267
  532PYPI   GL2 8250  11.643  16.387  10.870  0.2022  0.3849  0.0937
  532PYPI   C1A 8251  11.641  16.846  10.519  0.1650  0.2507 -0.1327
  532PYPI   C2A 8252  11.635  16.866  10.060 -0.3242  0.0665 -0.1133
  532PYPI   D3A 8253  11.692  16.904   9.651  0.1014  0.0617  0.1547
  532PYPI   C4A 8254  12.092  16.964   9.611  0.0292 -0.2152 -0.0631
  532PYPI   C1B 8255  11.522  16.337  10.475  0.0488  0.0244 -0.5313
  532PYPI   C2B 8256  11.431  16.361  10.019  0.1780 -0.0895  0.0218
  532PYPI   C3B 8257  11.662  16.441   9.616  0.1044  0.0775  0.1310
  532PYPI   C4B 8258  11.810  16.663   9.253 -0.0398 -0.1607  0.0768
  533PYPI    C1 8259  11.692   0.312  11.467  0.2927 -0.2332  0.0520
  533PYPI    C2 8260  11.426   0.112  11.689  0.0156 -0.1596 -0.2078
  533PYPI    C3 8261  11.760   0.254  11.857 -0.2444  0.0001  0.1901
  533PYPI   PO4 8262  11.646   0.304  11.223 -0.1830  0.0412  0.1527
  533PYPI   GL1 8263  11.678   0.058  10.895  0.3057 -0.1748 -0.0247
  533PYPI   GL2 8264  11.956  -0.019  10.860  0.5491 -0.1283 -0.1118
  533PYPI   C1A 8265  11.795   0.291  10.510 -0.0955 -0.0545 -0.0783
  533PYPI   C2A 8266  11.897   0.368  10.103  0.1247  0.0691  0.0067
  533PYPI   D3A 8267  11.942   0.277   9.675  0.1147  0.1762  0.1285
  533PYPI   C4A 8268  12.085   0.480   9.321  0.0999  0.1342 -0.0586
  533PYPI   C1B 8269  12.087  -0.142  10.491 -0.3721 -0.0173 -0.2142
  533PYPI   C2B 8270  12.101  -0.105  10.100  0.1527 -0.0360  0.1166
  533PYPI   C3B 8271  12.459  -0.095   9.891  0.2014  0.1016  0.1835
  533PYPI   C4B 8272  12.465  -0.010   9.423 -0.0302  0.1659  0.3067
  534PYPI    C1 8273   3.673   7.750  11.740 -0.2563 -0.0610 -0.0444
  534PYPI    C2 8274   3.814   8.060  11.951 -0.1149 -0.1356 -0.0279
  534PYPI    C3 8275   3.564   7.798  12.122 -0.3573  0.0531 -0.0867
  534PYPI   PO4 8276   3.540   7.870  11.570 -0.2157 -0.1477  0.0548
  534PYPI   GL1 8277   3.548   7.813  11.089 -0.2405  0.3215  0.2180
  534PYPI   GL2 8278   3.475   8.089  10.910 -0.0032 -0.1022  0.1693
  534PYPI   C1A 8279   3.742   7.680  10.655 -0.1209  0.0233  0.2549
  534PYPI   C2A 8280   3.766   7.714  10.293 -0.2821  0.0321  0.3031
  534PYPI   D3A 8281   3.772   7.598   9.859  0.0334 -0.0312 -0.1583
  534PYPI   C4A 8282   3.794   7.762   9.427  0.2585 -0.2863  0.3101
  534PYPI   C1B 8283   3.305   7.999  10.524 -0.2035  0.0494 -0.0778
  534PYPI   C2B 8284   3.313   7.978  10.081 -0.2282 -0.0896  0.0796
  534PYPI   C3B 8285   3.366   7.866   9.691  0.0784  0.1610 -0.0378
  534PYPI   C4B 8286   3.312   7.753   9.244  0.1266 -0.0461  0.0375
  535PYPI    C1 8287   7.077  15.096  11.626  0.0011 -0.4136 -0.3744
  535PYPI    C2 8288   6.728  15.025  11.810  0.0278  0.1908 -0.0623
  535PYPI    C3 8289   7.048  14.800  11.893 -0.2086 -0.1803 -0.1317
  535PYPI   PO4 8290   6.998  15.104  11.369 -0.2481 -0.3882 -0.1285
  535PYPI   GL1 8291   7.206  14.926  10.986  0.0145  0.4810 -0.1272
  535PYPI   GL2 8292   6.958  14.745  11.013  0.3061  0.1563 -0.1539
  535PYPI   C1A 8293   7.293  14.809  10.490 -0.0391 -0.0472 -0.0990
  535PYPI   C2A 8294   7.280  14.793  10.043 -0.0022 -0.2600  0.2144
  535PYPI   D3A 8295   7.046  14.868   9.607  0.2070 -0.0962  0.1045
  535PYPI   C4A 8296   7.218  14.799   9.189  0.1540 -0.0876  0.0994
  535PYPI   C1B 8297   6.950  14.423  10.714  0.2164 -0.1906 -0.5513
  535PYPI   C2B 8298   6.928  14.429  10.290  0.1512  0.0720  0.3948
  535PYPI   C3B 8299   6.920  14.459   9.897 -0.0297  0.0425  0.0065
  535PYPI   C4B 8300   7.006  14.357   9.553 -0.3160 -0.0223  0.1188
  536PYPI    C1 8301  16.818   3.845  12.194 -0.0055 -0.2507 -0.1681
  536PYPI    C2 8302  16.463   4.005  12.288  0.2488  0.2067  0.0483
  536PYPI    C3 8303  16.690   3.839  12.572  0.2364 -0.0350 -0.0798
  536PYPI   PO4 8304  16.779   3.718  12.014  0.0253  0.1289  0.0754
  536PYPI   GL1 8305  16.570   3.392  11.647  0.0869 -0.4119  0.2406
  536PYPI   GL2 8306  16.689   3.611  11.426 -0.1563 -0.2901  0.3042
  536PYPI   C1A 8307  16.496   3.153  11.318  0.3452 -0.0821  0.2101
  536PYPI   C2A 8308  16.439   3.078  10.847 -0.0077 -0.1343  0.2429
  536PYPI   D3A 8309  16.405   3.006  10.292 -0.1208  0.1791  0.0265
  536PYPI   C4A 8310  16.407   3.147   9.904  0.1833 -0.0422  0.3293
  536PYPI   C1B 8311  16.497   3.547  10.992  0.1087 -0.2554  0.2504
  536PYPI   C2B 8312  16.540   3.457  10.492  0.1776 -0.1283 -0.2944
  536PYPI   C3B 8313  16.570   3.548  10.046  0.1886 -0.2632  0.1696
  536PYPI   C4B 8314  16.487   3.514   9.600 -0.0167  0.1465  0.1208
  537PYPI    C1 8315   0.816  15.161  12.083  0.0110  0.0423 -0.0544
  537PYPI    C2 8316   0.979  14.815  12.197 -0.0612  0.0864  0.1890
  537PYPI    C3 8317   0.849  15.075  12.472 -0.1289  0.2490  0.0054
  537PYPI   PO4 8318   0.959  15.193  11.881  0.0727  0.0539  0.1815
  537PYPI   GL1 8319   1.136  15.024  11.501 -0.2753  0.1140 -0.0460
  537PYPI   GL2 8320   0.806  15.161  11.394 -0.2791 -0.1139  0.1459
  537PYPI   C1A 8321   1.236  15.113  11.101  0.1437  0.1409  0.0796
  537PYPI   C2A 8322   1.172  15.019  10.666  0.3740  0.1712 -0.0567
  537PYPI   D3A 8323   1.184  15.049  10.328 -0.3801 -0.2230 -0.1465
  537PYPI   C4A 8324   1.132  15.140  10.042  0.2600 -0.6014 -0.0129
  537PYPI   C1B 8325   0.751  15.302  10.880 -0.1817 -0.0925 -0.0626
  537PYPI   C2B 8326   0.717  15.428  10.505  0.2313  0.2012  0.0959
  537PYPI   C3B 8327   0.755  15.451  10.006  0.0746  0.0215 -0.0532
  537PYPI   C4B 8328   0.877  15.279   9.595 -0.0645  0.1818 -0.2731
  538PYPI    C1 8329  16.445   0.379  12.000  0.1009 -0.1224  0.2203
  538PYPI    C2 8330  16.399   0.360  12.397 -0.1951 -0.2249  0.1836
  538PYPI    C3 8331  16.614   0.081  12.207 -0.0138 -0.1496  0.2756
  538PYPI   PO4 8332  16.557   0.560  11.844  0.1310 -0.2271 -0.1102
  538PYPI   GL1 8333  16.612   0.634  11.431  0.0624 -0.0357 -0.0030
  538PYPI   GL2 8334  16.840   0.479  11.366 -0.3545  0.1488  0.0877
  538PYPI   C1A 8335  16.580   0.618  10.847 -0.4367 -0.0238 -0.2722
  538PYPI   C2A 8336  16.515   0.708  10.408  0.0972 -0.1018 -0.1173
  538PYPI   D3A 8337  16.494   0.667   9.940  0.2824  0.1917  0.0656
  538PYPI   C4A 8338  16.524   0.499   9.590  0.2944  0.0463 -0.0267
  538PYPI   C1B 8339  16.984   0.342  10.905 -0.0177 -0.0831  0.0106
  538PYPI   C2B 8340  16.874   0.285  10.447  0.2746 -0.2604 -0.1286
  538PYPI   C3B 8341  16.870   0.371  10.100 -0.3761 -0.2223 -0.1394
  538PYPI   C4B 8342  16.978   0.336   9.676 -0.0522 -0.3031  0.2666
  539PYPI    C1 8343  11.869   4.655  11.745 -0.1701  0.0665  0.0055
  539PYPI    C2 8344  12.142   4.383  11.853 -0.2073 -0.0398 -0.1647
  539PYPI    C3 8345  11.989   4.631  12.126 -0.0425 -0.0714 -0.0419
  539PYPI   PO4 8346  11.908   4.662  11.474  0.0090 -0.1094  0.0537
  539PYPI   GL1 8347  12.181   4.717  11.108 -0.3685 -0.2228 -0.0353
  539PYPI   GL2 8348  12.464   4.501  11.130  0.1843  0.0345  0.0706
  539PYPI   C1A 8349  12.101   4.764  10.720  0.3292  0.4415  0.3507
  539PYPI   C2A 8350  12.146   4.800  10.189  0.1591 -0.2521  0.2969
  539PYPI   D3A 8351  12.163   4.664   9.768  0.0384  0.0658 -0.2111
  539PYPI   C4A 8352  12.168   4.632   9.373 -0.0439 -0.2515  0.1476
  539PYPI   C1B 8353  12.504   4.459  10.718  0.4556  0.0611  0.3324
  539PYPI   C2B 8354  12.469   4.479  10.331 -0.1758  0.0913  0.2165
  539PYPI   C3B 8355  12.550   4.386   9.837  0.0348  0.2050  0.0704
  539PYPI   C4B 8356  12.627   4.391   9.415  0.0987  0.2587 -0.0589
  540ERGO   ROH 8357   5.276  11.647  10.984 -0.2125  0.0625 -0.0050
  540ERGO    R1 8358   5.341  11.740  10.725 -0.1786  0.1064  0.0188
  540ERGO    R2 8359   5.443  11.574  10.528  0.0942  0.1909  0.0825
  540ERGO    R3 8360   5.234  11.670  10.384  0.0626 -0.0398 -0.0289
  540ERGO    R4 8361   5.424  11.576  10.183  0.2251  0.0759  0.0739
  540ERGO    R5 8362   5.334  11.774  10.194  0.0414 -0.0030 -0.0179
  540ERGO    C1 8363   5.216  11.667   9.847  0.2715 -0.2078 -0.0358
  540ERGO    C2 8364   5.081  11.783   9.514  0.2664  0.1164 -0.0635
  541ERGO   ROH 8365   5.760  14.699  10.945 -0.1192  0.0957  0.0434
  541ERGO    R1 8366   5.677  14.824  10.706 -0.0412  0.1373  0.0378
  541ERGO    R2 8367   5.855  14.906  10.511  0.0137  0.0573  0.0534
  541ERGO    R3 8368   5.698  14.754  10.349 -0.0437  0.1311  0.0390
  541ERGO    R4 8369   5.825  14.948  10.169  0.0542  0.0765  0.0520
  541ERGO    R5 8370   5.611  14.909  10.188  0.0362  0.1722  0.0364
  541ERGO    C1 8371   5.661  14.830   9.818  0.0240  0.1570  0.0379
  541ERGO    C2 8372   5.621  14.727   9.430 -0.3689  0.1673  0.1458
  542ERGO   ROH 8373   8.897   4.134  10.806 -0.1681 -0.0439 -0.0264
  542ERGO    R1 8374   9.033   4.204  10.568 -0.1118  0.1088  0.0490
  542ERGO    R2 8375   8.986   4.077  10.327  0.1289  0.0883  0.0108
  542ERGO    R3 8376   8.942   4.330  10.238 -0.0646  0.0578  0.0160
  542ERGO    R4 8377   8.975   4.169   9.994  0.4926  0.1523  0.0126
  542ERGO    R5 8378   9.085   4.351  10.047  0.1923  0.2836  0.2224
  542ERGO    C1 8379   8.927   4.461   9.717  0.5228  0.1610  0.0185
  542ERGO    C2 8380   8.685   4.370   9.555  0.0422 -0.0395 -0.0104
  543ERGO   ROH 8381   1.835   7.526  11.032  0.0662  0.1141  0.0377
  543ERGO    R1 8382   1.793   7.398  10.783 -0.0534  0.1777  0.0236
  543ERGO    R2 8383   1.701   7.533  10.560  0.1936  0.3179 -0.0018
  543ERGO    R3 8384   1.923   7.427  10.444  0.0797  0.0019  0.0591
  543ERGO    R4 8385   1.747   7.495  10.220  0.2552  0.2961  0.0098
  543ERGO    R5 8386   1.840   7.301  10.259 -0.0450  0.1514  0.0141
  543ERGO    C1 8387   1.983   7.373   9.913  0.1842 -0.0131  0.0737
  543ERGO    C2 8388   2.133   7.327   9.649 -0.0844 -0.0002 -0.1161
  544ERGO   ROH 8389  13.860  11.574  10.770  0.0054 -0.1771 -0.0285
  544ERGO    R1 8390  13.964  11.625  10.511 -0.1189  0.1024 -0.0276
  544ERGO    R2 8391  14.099  11.433  10.365  0.2445  0.4010 -0.1005
  544ERGO    R3 8392  13.913  11.493  10.176  0.0979  0.0954 -0.0587
  544ERGO    R4 8393  14.140  11.389  10.024  0.1531  0.2630 -0.0938
  544ERGO    R5 8394  14.040  11.579   9.992 -0.0706  0.1372 -0.1572
  544ERGO    C1 8395  13.990  11.419   9.649 -0.0377 -0.1042 -0.0508
  544ERGO    C2 8396  13.997  11.461   9.304 -0.2904 -0.1759 -0.0085
  545ERGO   ROH 8397  13.143  12.110  10.735  0.0357  0.0495  0.0061
  545ERGO    R1 8398  13.066  12.108  10.463 -0.0695  0.0490  0.0361
  545ERGO    R2 8399  13.143  12.305  10.285 -0.1146  0.0321  0.0018
  545ERGO    R3 8400  13.235  12.093  10.141 -0.1959  0.0167 -0.0300
  545ERGO    R4 8401  13.164  12.295   9.940  0.0854  0.1595  0.0077
  545ERGO    R5 8402  13.095  12.088   9.947 -0.0854  0.2091 -0.1190
  545ERGO    C1 8403  13.262  12.090   9.604  0.1256  0.2193 -0.0189
  545ERGO    C2 8404  13.319  12.152   9.212  0.1317 -0.2021 -0.0520
  546ERGO   ROH 8405   7.344   5.953  10.774 -0.1337 -0.0992 -0.1049
  546ERGO    R1 8406   7.293   5.856  10.513 -0.0975 -0.0606 -0.1284
  546ERGO    R2 8407   7.087   5.954  10.356 -0.0988 -0.0542 -0.1377
  546ERGO    R3 8408   7.288   5.994  10.177 -0.0795  0.0015 -0.1006
  546ERGO    R4 8409   7.052   5.943  10.012 -0.0624  0.1442 -0.1472
  546ERGO    R5 8410   7.243   5.840  10.000 -0.0908  0.1152 -0.1893
  546ERGO    C1 8411   7.219   5.975   9.644 -0.0232  0.3120 -0.1180
  546ERGO    C2 8412   7.258   5.847   9.358  0.3499 -0.1367 -0.1080
  547ERGO   ROH 8413   1.630  13.202  11.178 -0.1900  0.1186  0.0017
  547ERGO    R1 8414   1.767  13.317  10.958 -0.1364  0.1426  0.0478
  547ERGO    R2 8415   1.886  13.164  10.761 -0.0732  0.1648  0.0718
  547ERGO    R3 8416   1.732  13.315  10.596 -0.0351  0.1671  0.0372
  547ERGO    R4 8417   1.888  13.144  10.416 -0.1188  0.0423  0.0776
  547ERGO    R5 8418   1.874  13.361  10.409 -0.0365  0.0477  0.0041
  547ERGO    C1 8419   1.745  13.275  10.060 -0.1095 -0.0268  0.0484
  547ERGO    C2 8420   1.690  13.386   9.665  0.0093  0.1775 -0.1850
  548ERGO   ROH 8421  14.119   9.444  10.626  0.1785 -0.0284  0.0188
  548ERGO    R1 8422  14.043   9.493  10.358  0.1161  0.0306  0.0465
  548ERGO    R2 8423  14.195   9.646  10.186  0.0754  0.0733  0.0438
  548ERGO    R3 8424  14.179   9.425  10.028  0.0432  0.1065  0.0013
  548ERGO    R4 8425  14.266   9.639   9.847  0.0140  0.1363  0.0298
  548ERGO    R5 8426  14.095   9.507   9.819  0.0088  0.1472  0.0335
  548ERGO    C1 8427  14.292   9.428   9.502 -0.0520  0.2042 -0.0182
  548ERGO    C2 8428  14.393   9.406   9.146 -0.0979  0.1377  0.1202
  549ERGO   ROH 8429  16.095  10.252  10.984 -0.1071 -0.0316 -0.0763
  549ERGO    R1 8430  16.235  10.286  10.740 -0.0599  0.0630 -0.0364
  549ERGO    R2 8431  16.220  10.104  10.533  0.0536  0.0965 -0.0751
  549ERGO    R3 8432  16.150  10.323  10.388  0.0122  0.0992 -0.0504
  549ERGO    R4 8433  16.228  10.125  10.188 -0.0845  0.0885 -0.0792
  549ERGO    R5 8434  16.305  10.328  10.207 -0.0608  0.0831 -0.1140
  549ERGO    C1 8435  16.167  10.343   9.852 -0.2041  0.0865 -0.0583
  549ERGO    C2 8436  16.266  10.426   9.556 -0.2624  0.3682 -0.1136
  550ERGO   ROH 8437  16.302  15.215   8.769  0.0721  0.0977 -0.1865
  550ERGO    R1 8438  16.517  15.042   8.832 -0.0892  0.0547  0.2829
  550ERGO    R2 8439  16.752  15.038   8.687 -0.1459 -0.6670  0.1773
  550ERGO    R3 8440  16.865  15.079   8.930 -0.0079  0.0075  0.0185
  550ERGO    R4 8441  17.078  14.957   8.770 -0.1479 -0.5870  0.2652
  550ERGO    R5 8442  17.006  14.889   8.964 -0.0926  0.0223  0.5205
  550ERGO    C1 8443  17.373  14.950   9.047 -0.0198  0.0926  0.1672
  550ERGO    C2 8444  17.788  15.173   9.130  0.3242 -0.2739  0.3670
  551ERGO   ROH 8445  16.269   2.574  11.477 -0.1678 -0.1785 -0.1666
  551ERGO    R1 8446  16.370   2.620  11.217 -0.2889  0.1515 -0.1641
  551ERGO    R2 8447  16.433   2.414  11.044  0.5057  0.3114 -0.1271
  551ERGO    R3 8448  16.266   2.548  10.876  0.0007 -0.3189 -0.1577
  551ERGO    R4 8449  16.453   2.408  10.699  0.6277  0.4484 -0.1208
  551ERGO    R5 8450  16.407   2.621  10.697 -0.2315  0.2846 -0.1031
  551ERGO    C1 8451  16.308   2.529  10.340  0.2247 -0.0635 -0.1459
  551ERGO    C2 8452  16.227   2.454   9.955 -0.0883 -0.1966  0.1430
  552ERGO   ROH 8453   1.964   8.452  10.858  0.0061  0.0557 -0.0077
  552ERGO    R1 8454   2.011   8.370  10.591 -0.0695 -0.0102  0.0001
  552ERGO    R2 8455   1.811   8.361  10.400 -0.0528  0.2779 -0.0251
  552ERGO    R3 8456   1.983   8.519  10.260  0.1949  0.0341 -0.0073
  552ERGO    R4 8457   1.870   8.335  10.060 -0.3483  0.4134 -0.0904
  552ERGO    R5 8458   2.082   8.370  10.099 -0.2277 -0.0671 -0.1971
  552ERGO    C1 8459   2.065   8.468   9.731 -0.2878  0.2633 -0.1116
  552ERGO    C2 8460   2.003   8.427   9.434  0.2339 -0.3042 -0.0643
  553ERGO   ROH 8461  15.645   9.491  11.030  0.0168 -0.0901 -0.1811
  553ERGO    R1 8462  15.489   9.473  10.794  0.0149 -0.1140 -0.1781
  553ERGO    R2 8463  15.486   9.672  10.603 -0.0583 -0.0920 -0.1535
  553ERGO    R3 8464  15.552   9.468  10.436  0.0045 -0.0498 -0.1811
  553ERGO    R4 8465  15.506   9.696  10.258 -0.2157 -0.0744 -0.1622
  553ERGO    R5 8466  15.412   9.500  10.244 -0.0971 -0.1363 -0.1241
  553ERGO    C1 8467  15.579   9.519   9.901 -0.2483 -0.0245 -0.1932
  553ERGO    C2 8468  15.781   9.644   9.559  0.0032  0.0646  0.0791
  554ERGO   ROH 8469  16.596   7.561  10.899 -0.1038 -0.1697  0.0267
  554ERGO    R1 8470  16.686   7.628  10.639 -0.4405  0.2128 -0.0022
  554ERGO    R2 8471  16.800   7.443  10.468  0.1770  0.6291 -0.0834
  554ERGO    R3 8472  16.607   7.529  10.298 -0.2336 -0.0262  0.0178
  554ERGO    R4 8473  16.835   7.462  10.125 -0.0411  0.8386 -0.0950
  554ERGO    R5 8474  16.726   7.651  10.130 -0.7421  0.4625 -0.0108
  554ERGO    C1 8475  16.673   7.554   9.765 -0.5533  0.3454 -0.0068
  554ERGO    C2 8476  16.656   7.363   9.514 -0.1394  0.1461 -0.0017
  555ERGO   ROH 8477  16.502   9.333  11.116  0.2003  0.0041  0.0444
  555ERGO    R1 8478  16.423   9.385  10.849  0.0222 -0.0670  0.0822
  555ERGO    R2 8479  16.561   9.557  10.684 -0.2044  0.0473  0.0083
  555ERGO    R3 8480  16.566   9.342  10.517 -0.1071  0.0474  0.0100
  555ERGO    R4 8481  16.502   9.569  10.343 -0.0962  0.0346 -0.0118
  555ERGO    R5 8482  16.390   9.383  10.361 -0.0652  0.0115 -0.0480
  555ERGO    C1 8483  16.473   9.374   9.989  0.0582  0.0273 -0.0217
  555ERGO    C2 8484  16.658   9.427   9.773  0.2668  0.1579 -0.4041
  556ERGO   ROH 8485   4.838   9.480  10.641  0.0987  0.1934  0.1392
  556ERGO    R1 8486   4.844   9.590  10.380  0.0791  0.1950  0.1394
  556ERGO    R2 8487   5.076   9.681  10.262  0.0775  0.1631  0.1081
  556ERGO    R3 8488   5.004   9.511  10.063  0.0249  0.1739  0.1178
  556ERGO    R4 8489   5.149   9.728   9.928 -0.0054  0.1717  0.0910
  556ERGO    R5 8490   4.948   9.655   9.879 -0.0166  0.1796  0.1370
  556ERGO    C1 8491   5.123   9.596   9.546 -0.1029  0.1870  0.0901
  556ERGO    C2 8492   5.280   9.776   9.193  0.1085  0.4295  0.0798
  557ERGO   ROH 8493  12.415  13.394  10.900 -0.0056  0.1561  0.0148
  557ERGO    R1 8494  12.509  13.448  10.639 -0.0512  0.2036  0.0074
  557ERGO    R2 8495  12.602  13.250  10.470  0.2166  0.2698  0.0682
  557ERGO    R3 8496  12.417  13.353  10.300  0.0952 -0.0106  0.0268
  557ERGO    R4 8497  12.601  13.202  10.128  0.3813  0.2910  0.0646
  557ERGO    R5 8498  12.542  13.411  10.104  0.0558  0.2025  0.0642
  557ERGO    C1 8499  12.427  13.271   9.769  0.3631  0.0401  0.0235
  557ERGO    C2 8500  12.483  13.295   9.406 -0.0191  0.0157  0.0399
  558ERGO   ROH 8501   6.435   0.289  11.133  0.2560 -0.1391 -0.0033
  558ERGO    R1 8502   6.272   0.258  10.903  0.1905 -0.0789  0.0366
  558ERGO    R2 8503   6.263   0.446  10.702  0.2062 -0.0759  0.0487
  558ERGO    R3 8504   6.324   0.233  10.544  0.0898 -0.0908  0.0208
  558ERGO    R4 8505   6.191   0.425  10.364  0.0994 -0.0236  0.0668
  558ERGO    R5 8506   6.136   0.216  10.395  0.0338 -0.0137  0.0726
  558ERGO    C1 8507   6.206   0.213  10.019 -0.0721 -0.0072  0.0510
  558ERGO    C2 8508   6.143   0.181   9.705 -0.2266  0.3575  0.1729
  559ERGO   ROH 8509   2.055   0.278  11.168  0.0386  0.1439  0.1029
  559ERGO    R1 8510   2.106   0.163  10.914  0.1133  0.1462  0.1173
  559ERGO    R2 8511   1.906   0.118  10.729  0.1678  0.1300  0.0692
  559ERGO    R3 8512   2.068   0.263  10.566  0.1973  0.1381  0.1042
  559ERGO    R4 8513   1.906   0.101  10.383  0.2956  0.0597  0.0713
  559ERGO    R5 8514   2.123   0.113  10.388  0.2973  0.1105  0.1522
  559ERGO    C1 8515   2.058   0.228  10.030  0.3977  0.0264  0.1055
  559ERGO    C2 8516   1.984   0.124   9.697 -0.1013 -0.0339  0.1462
  560ERGO   ROH 8517   1.512   1.045  11.302  0.1323  0.2166 -0.0753
  560ERGO    R1 8518   1.621   1.139  11.059 -0.0560  0.2554 -0.1454
  560ERGO    R2 8519   1.721   0.970  10.864  0.0582  0.2987 -0.1200
  560ERGO    R3 8520   1.547   1.104  10.704 -0.1437  0.0585 -0.1096
  560ERGO    R4 8521   1.709   0.943  10.520  0.1617  0.3713 -0.1308
  560ERGO    R5 8522   1.676   1.158  10.509 -0.1951  0.3275 -0.0753
  560ERGO    C1 8523   1.539   1.053  10.169  0.0324  0.1882 -0.1273
  560ERGO    C2 8524   1.593   1.002   9.839 -0.0496 -0.0842 -0.2269
  561ERGO   ROH 8525   8.440   1.547  10.691  0.0362 -0.0453  0.0807
  561ERGO    R1 8526   8.277   1.625  10.473 -0.0093 -0.1656  0.0702
  561ERGO    R2 8527   8.299   1.873  10.352 -0.1382 -0.1723  0.0255
  561ERGO    R3 8528   8.329   1.724  10.126 -0.0654 -0.1992  0.0534
  561ERGO    R4 8529   8.342   2.001  10.034  0.2603 -0.2176  0.0559
  561ERGO    R5 8530   8.210   1.846   9.958  0.1931 -0.1006 -0.0588
  561ERGO    C1 8531   8.395   1.936   9.637  0.5606 -0.2693  0.0996
  561ERGO    C2 8532   8.351   2.019   9.332  0.0130  0.3029 -0.0729
  562ERGO   ROH 8533   2.707   5.768  11.359  0.0158 -0.2693  0.0230
  562ERGO    R1 8534   2.539   5.722  11.135 -0.0179 -0.1210  0.0167
  562ERGO    R2 8535   2.493   5.914  10.942  0.1043 -0.0557  0.0502
  562ERGO    R3 8536   2.577   5.718  10.773 -0.0249 -0.0814  0.0156
  562ERGO    R4 8537   2.483   5.934  10.597  0.3410  0.1138  0.0509
  562ERGO    R5 8538   2.420   5.725  10.592  0.0927  0.1888 -0.0811
  562ERGO    C1 8539   2.556   5.761  10.238  0.3576  0.1883  0.0189
  562ERGO    C2 8540   2.609   5.667   9.918  0.0917  0.1425  0.0806
  563ERGO   ROH 8541  10.198   8.862  10.879  0.0276 -0.1320 -0.0330
  563ERGO    R1 8542  10.054   8.743  10.667  0.0103 -0.1591 -0.0058
  563ERGO    R2 8543   9.943   8.890  10.461 -0.0589 -0.1814  0.0191
  563ERGO    R3 8544  10.087   8.721  10.305 -0.0578 -0.1506 -0.0137
  563ERGO    R4 8545   9.913   8.865  10.118 -0.1048 -0.1474  0.0204
  563ERGO    R5 8546   9.932   8.649  10.137 -0.0763 -0.1514 -0.0007
  563ERGO    C1 8547  10.031   8.691   9.771 -0.1306 -0.0988 -0.0094
  563ERGO    C2 8548  10.014   8.785   9.387  0.1707  0.1374 -0.1936
  564ERGO   ROH 8549  10.149  12.149  11.098  0.0033 -0.1587  0.1154
  564ERGO    R1 8550  10.279  12.183  10.849 -0.1153  0.0891  0.0829
  564ERGO    R2 8551  10.299  11.979  10.662  0.2305  0.1155  0.0784
  564ERGO    R3 8552  10.186  12.163  10.497 -0.1678 -0.0936  0.1075
  564ERGO    R4 8553  10.254  11.939  10.322  0.2842  0.0695  0.0770
  564ERGO    R5 8554  10.312  12.147  10.295 -0.1494  0.1957  0.0973
  564ERGO    C1 8555  10.121  12.089   9.969 -0.0584 -0.1536  0.1035
  564ERGO    C2 8556  10.201  12.154   9.686 -0.0576 -0.0549 -0.4565
  565ERGO   ROH 8557   9.294  11.533  11.001  0.0319 -0.0210  0.0919
  565ERGO    R1 8558   9.272  11.349  10.787  0.0996  0.0129  0.0553
  565ERGO    R2 8559   9.048  11.334  10.626  0.0443 -0.1359  0.1427
  565ERGO    R3 8560   9.229  11.368  10.426 -0.0634  0.0677  0.0771
  565ERGO    R4 8561   8.985  11.283  10.290  0.0112 -0.3188  0.1761
  565ERGO    R5 8562   9.182  11.192  10.271  0.1377 -0.0454  0.1414
  565ERGO    C1 8563   9.118  11.285   9.907 -0.1092 -0.2344  0.1340
  565ERGO    C2 8564   9.067  11.241   9.612 -0.2606  0.3899  0.0776
  566ERGO   ROH 8565   2.962  12.326  11.232  0.0270 -0.1152 -0.0052
  566ERGO    R1 8566   3.097  12.251  10.995 -0.0091 -0.0477 -0.0472
  566ERGO    R2 8567   2.970  12.123  10.785 -0.0573  0.0805 -0.0951
  566ERGO    R3 8568   3.072  12.329  10.640 -0.0094  0.1158 -0.0123
  566ERGO    R4 8569   2.943  12.155  10.442 -0.2675  0.3479 -0.0579
  566ERGO    R5 8570   3.150  12.226  10.438 -0.2170  0.2053 -0.1418
  566ERGO    C1 8571   3.025  12.366  10.106 -0.3450  0.5368  0.0414
  566ERGO    C2 8572   2.969  12.242   9.707 -0.0370  0.1429  0.0430
  567ERGO   ROH 8573   9.046   0.144  10.760 -0.1453  0.1123  0.0583
  567ERGO    R1 8574   9.094   0.090  10.486 -0.0612  0.2741  0.0389
  567ERGO    R2 8575   9.035  -0.154  10.370  0.2299  0.2425 -0.0626
  567ERGO    R3 8576   8.895  -0.000  10.195  0.0601  0.1530 -0.0062
  567ERGO    R4 8577   9.055  -0.178  10.026 -0.0007  0.1761 -0.0728
  567ERGO    R5 8578   9.048   0.040  10.016 -0.0812  0.1656 -0.1199
  567ERGO    C1 8579   8.936  -0.047   9.662 -0.2942  0.0534 -0.0258
  567ERGO    C2 8580   8.861  -0.219   9.454  0.2658 -0.0353  0.3955
  568ERGO   ROH 8581   4.800   7.882  10.961  0.2222  0.2824 -0.1339
  568ERGO    R1 8582   4.730   7.997  10.711  0.0244  0.0567 -0.1853
  568ERGO    R2 8583   4.918   8.069  10.523 -0.0928  0.3268 -0.2008
  568ERGO    R3 8584   4.770   7.909  10.360  0.2031 -0.0152 -0.1492
  568ERGO    R4 8585   4.932   8.072  10.178 -0.3551  0.5208 -0.2127
  568ERGO    R5 8586   4.715   8.050  10.174 -0.3190 -0.0651 -0.0530
  568ERGO    C1 8587   4.801   7.925   9.824 -0.2300  0.3127 -0.1710
  568ERGO    C2 8588   4.835   7.887   9.574  0.2509  0.1273  0.0932
  569ERGO   ROH 8589   4.337  12.164  11.245 -0.0697 -0.0695 -0.0318
  569ERGO    R1 8590   4.346  12.295  10.994  0.0342 -0.0258 -0.0054
  569ERGO    R2 8591   4.565  12.279  10.826 -0.0201 -0.2593 -0.0563
  569ERGO    R3 8592   4.380  12.195  10.646 -0.1654  0.0057 -0.0354
  569ERGO    R4 8593   4.533  12.402  10.505  0.0762 -0.1621 -0.0295
  569ERGO    R5 8594   4.316  12.395  10.529  0.0663  0.1109  0.0105
  569ERGO    C1 8595   4.340  12.396  10.149 -0.0043  0.1433  0.0058
  569ERGO    C2 8596   4.377  12.373   9.775 -0.2588 -0.0019  0.2347
  570ERGO   ROH 8597  15.788   4.725  11.073  0.0333 -0.3612 -0.0713
  570ERGO    R1 8598  15.766   4.804  10.802  0.0998 -0.1405 -0.0136
  570ERGO    R2 8599  15.975   4.783  10.623  0.0509 -0.2826 -0.0487
  570ERGO    R3 8600  15.793   4.644  10.477 -0.1473  0.0512 -0.1339
  570ERGO    R4 8601  15.959   4.780  10.278  0.2692 -0.3137 -0.0606
  570ERGO    R5 8602  15.742   4.787  10.292  0.2608  0.1301 -0.1990
  570ERGO    C1 8603  15.779   4.647   9.939  0.2101 -0.0184 -0.1475
  570ERGO    C2 8604  15.823   4.693   9.579  0.0389  0.4121 -0.2537
  571ERGO   ROH 8605   7.437   0.561  10.800  0.0379  0.1340  0.0090
  571ERGO    R1 8606   7.480   0.712  10.565  0.0289  0.0700 -0.0345
  571ERGO    R2 8607   7.724   0.720  10.435  0.0114 -0.0033 -0.0739
  571ERGO    R3 8608   7.575   0.644  10.220 -0.0344 -0.0302 -0.0326
  571ERGO    R4 8609   7.807   0.782  10.106 -0.1372  0.0941 -0.0936
  571ERGO    R5 8610   7.597   0.826  10.066 -0.1719  0.0081 -0.0082
  571ERGO    C1 8611   7.716   0.747   9.712 -0.2667  0.1256 -0.0662
  571ERGO    C2 8612   7.689   0.840   9.340  0.0425  0.1881  0.1329
  572ERGO   ROH 8613   7.880  11.970  10.906 -0.1872 -0.1505  0.0994
  572ERGO    R1 8614   7.925  11.842  10.658 -0.1029 -0.2016  0.1403
  572ERGO    R2 8615   7.718  11.759  10.493 -0.0469 -0.0923  0.0149
  572ERGO    R3 8616   7.848  11.909  10.308  0.1640 -0.1896  0.0816
  572ERGO    R4 8617   7.699  11.711  10.152 -0.1837  0.1249 -0.0095
  572ERGO    R5 8618   7.913  11.752  10.139 -0.1121 -0.2049 -0.0177
  572ERGO    C1 8619   7.811  11.825   9.779 -0.0654  0.1601  0.0391
  572ERGO    C2 8620   7.779  11.898   9.425 -0.2810  0.1545  0.2437
  573ERGO   ROH 8621   5.485   8.830  10.942  0.1026 -0.1544  0.0253
  573ERGO    R1 8622   5.567   8.918  10.686  0.2434 -0.0793  0.0958
  573ERGO    R2 8623   5.788   8.815  10.558  0.0816 -0.3303  0.0199
  573ERGO    R3 8624   5.611   8.770  10.357  0.0084  0.1108 -0.0253
  573ERGO    R4 8625   5.865   8.830  10.221  0.1149 -0.1461  0.0344
  573ERGO    R5 8626   5.673   8.928  10.187  0.2525  0.1774  0.1151
  573ERGO    C1 8627   5.743   8.796   9.836  0.0655  0.3753  0.0003
  573ERGO    C2 8628   5.917   8.769   9.501 -0.0026 -0.2069  0.1122
  574ERGO   ROH 8629   4.258   2.461  11.421 -0.3128 -0.0965  0.0804
  574ERGO    R1 8630   4.321   2.511  11.150 -0.1083  0.0733  0.1560
  574ERGO    R2 8631   4.364   2.308  10.967  0.1497  0.1857  0.0856
  574ERGO    R3 8632   4.172   2.438  10.826  0.2002  0.1583 -0.0094
  574ERGO    R4 8633   4.367   2.353  10.625  0.1784 -0.0404  0.0547
  574ERGO    R5 8634   4.292   2.555  10.655  0.2460  0.0052 -0.0826
  574ERGO    C1 8635   4.188   2.500  10.293  0.2426 -0.1978 -0.0523
  574ERGO    C2 8636   4.167   2.452   9.961  0.1394 -0.0279 -0.2586
  575ERGO   ROH 8637  12.991  13.618  10.919 -0.1534 -0.1549  0.0253
  575ERGO    R1 8638  13.087  13.574  10.657 -0.0909 -0.3237  0.0756
  575ERGO    R2 8639  13.013  13.355  10.506 -0.3440 -0.2299  0.0661
  575ERGO    R3 8640  12.943  13.545  10.324  0.0236 -0.1433  0.0076
  575ERGO    R4 8641  13.008  13.308  10.163 -0.3644 -0.3148  0.0775
  575ERGO    R5 8642  13.092  13.508  10.140  0.0002 -0.4589  0.0417
  575ERGO    C1 8643  12.941  13.459   9.793 -0.0312 -0.2829  0.0292
  575ERGO    C2 8644  12.990  13.401   9.444  0.0316  0.0924  0.0243
  576ERGO   ROH 8645   1.140   8.991  11.037  0.0725  0.0694  0.2186
  576ERGO    R1 8646   1.231   9.009  10.770  0.0043 -0.1766  0.1770
  576ERGO    R2 8647   1.111   8.871  10.563 -0.2854 -0.0807  0.2755
  576ERGO    R3 8648   1.094   9.118  10.451  0.0515 -0.0931  0.1852
  576ERGO    R4 8649   1.122   8.935  10.223 -0.2733 -0.2244  0.2477
  576ERGO    R5 8650   1.246   9.110  10.265 -0.0031 -0.3866  0.1494
  576ERGO    C1 8651   1.113   9.205   9.921  0.0499 -0.3197  0.1468
  576ERGO    C2 8652   1.100   9.227   9.535 -0.0145 -0.0396 -0.2134
  577ERGO   ROH 8653  15.260   8.010  10.803  0.2248  0.0236  0.0712
  577ERGO    R1 8654  15.186   7.984  10.531  0.1379 -0.0033  0.0972
  577ERGO    R2 8655  15.261   8.167  10.338  0.0943 -0.0340  0.0519
  577ERGO    R3 8656  15.359   7.946  10.213  0.0357 -0.0578  0.0473
  577ERGO    R4 8657  15.306   8.138   9.997 -0.0003 -0.0721  0.0421
  577ERGO    R5 8658  15.233   7.933  10.010 -0.0208 -0.0630  0.0819
  577ERGO    C1 8659  15.425   7.914   9.680 -0.1104 -0.1166  0.0321
  577ERGO    C2 8660  15.482   7.927   9.308 -0.4366  0.2843  0.0411
  578ERGO   ROH 8661   9.994   0.436  10.612 -0.0912 -0.1441 -0.0268
  578ERGO    R1 8662   9.872   0.469  10.358  0.0583  0.0435 -0.0756
  578ERGO    R2 8663  10.012   0.551  10.135  0.2801 -0.1907 -0.0211
  578ERGO    R3 8664   9.908   0.324  10.027 -0.0463 -0.0313 -0.0563
  578ERGO    R4 8665  10.009   0.477   9.797  0.4632 -0.2665 -0.0082
  578ERGO    R5 8666   9.808   0.397   9.822  0.2789  0.1133 -0.1743
  578ERGO    C1 8667   9.910   0.221   9.499  0.2635 -0.1610 -0.0337
  578ERGO    C2 8668   9.959   0.024   9.319  0.2761  0.3183  0.0016
  579ERGO   ROH 8669   7.581  15.816  10.881 -0.0901  0.0633  0.0608
  579ERGO    R1 8670   7.491  15.707  10.635 -0.1194  0.0178  0.0914
  579ERGO    R2 8671   7.257  15.791  10.513 -0.0260  0.1479 -0.0037
  579ERGO    R3 8672   7.422  15.832  10.300  0.0602 -0.0852  0.0150
  579ERGO    R4 8673   7.156  15.800  10.183  0.0314  0.2567 -0.0187
  579ERGO    R5 8674   7.335  15.689  10.129 -0.1055  0.0142  0.0148
  579ERGO    C1 8675   7.251  15.844   9.791  0.1456  0.1013 -0.0097
  579ERGO    C2 8676   7.188  15.808   9.445  0.0334 -0.2661 -0.1591
  580ERGO   ROH 8677   7.744  10.851  11.002  0.0485  0.0397 -0.0024
  580ERGO    R1 8678   7.648  10.748  10.757 -0.0470  0.1100  0.0050
  580ERGO    R2 8679   7.520  10.906  10.570  0.0720  0.2107  0.0043
  580ERGO    R3 8680   7.710  10.806  10.403 -0.0135  0.0490  0.0016
  580ERGO    R4 8681   7.496  10.896  10.225  0.0402  0.1720  0.0075
  580ERGO    R5 8682   7.587  10.699  10.229 -0.1018  0.1101  0.0290
  580ERGO    C1 8683   7.661  10.797   9.868 -0.0587 -0.0023  0.0069
  580ERGO    C2 8684   7.643  10.829   9.487  0.0255  0.3597  0.0549
  581ERGO   ROH 8685  11.707   7.585  10.539 -0.0991 -0.0007  0.1330
  581ERGO    R1 8686  11.591   7.513  10.291 -0.0305  0.0134  0.0958
  581ERGO    R2 8687  11.660   7.637  10.053 -0.0818  0.1414  0.1413
  581ERGO    R3 8688  11.708   7.382   9.972  0.0867  0.1975  0.0631
  581ERGO    R4 8689  11.634   7.525   9.727 -0.0844  0.1967  0.1229
  581ERGO    R5 8690  11.544   7.341   9.803  0.0751  0.1135  0.0995
  581ERGO    C1 8691  11.664   7.220   9.462  0.0724  0.2816  0.0388
  581ERGO    C2 8692  11.687   7.087   9.039 -0.0757 -0.2194  0.0219
  582ERGO   ROH 8693  15.390   2.659   7.271 -0.0276  0.1104 -0.0198
  582ERGO    R1 8694  15.521   2.750   7.505  0.0347  0.0413 -0.0277
  582ERGO    R2 8695  15.393   2.898   7.700  0.1126  0.0683  0.0025
  582ERGO    R3 8696  15.485   2.702   7.864  0.0637  0.0202 -0.0273
  582ERGO    R4 8697  15.400   2.916   8.045  0.1080  0.0122  0.0056
  582ERGO    R5 8698  15.595   2.819   8.042  0.0867 -0.0326 -0.0055
  582ERGO    C1 8699  15.489   2.743   8.400  0.0595 -0.0656 -0.0205
  582ERGO    C2 8700  15.358   2.667   8.583  0.2354  0.2276 -0.1285
  583ERGO   ROH 8701   7.332   3.434  10.974  0.1789 -0.1206 -0.0465
  583ERGO    R1 8702   7.193   3.397  10.730  0.0612  0.1272 -0.0219
  583ERGO    R2 8703   7.156   3.601  10.547  0.3001  0.2299  0.0277
  583ERGO    R3 8704   7.270   3.424  10.376  0.0168  0.0992 -0.0310
  583ERGO    R4 8705   7.122   3.608  10.203  0.1708  0.2684  0.0412
  583ERGO    R5 8706   7.106   3.391  10.205 -0.0857  0.2943  0.0367
  583ERGO    C1 8707   7.210   3.445   9.842 -0.1704  0.1680 -0.0060
  583ERGO    C2 8708   7.291   3.389   9.564 -0.3433 -0.4955 -0.0558
  584ERGO   ROH 8709   8.882  15.247  10.892 -0.2099  0.2965 -0.0864
  584ERGO    R1 8710   9.002  15.187  10.642 -0.1685  0.1364 -0.0293
  584ERGO    R2 8711   8.899  14.997  10.470 -0.2299  0.1397  0.0080
  584ERGO    R3 8712   8.904  15.203  10.292 -0.0491  0.0730 -0.0672
  584ERGO    R4 8713   8.947  14.963  10.129 -0.0853 -0.0204  0.0431
  584ERGO    R5 8714   9.073  15.141  10.134  0.0007 -0.0735  0.0350
  584ERGO    C1 8715   8.979  15.136   9.764  0.1688 -0.1763 -0.0072
  584ERGO    C2 8716   8.981  15.055   9.512  0.0936 -0.0710  0.0485
  585ERGO   ROH 8717  10.955   3.281  11.255 -0.0660 -0.0529 -0.0236
  585ERGO    R1 8718  10.856   3.344  10.997 -0.0634 -0.1840 -0.0563
  585ERGO    R2 8719  11.007   3.479  10.808 -0.1870  0.0416  0.0087
  585ERGO    R3 8720  10.945   3.265  10.653  0.1773 -0.0426 -0.0301
  585ERGO    R4 8721  11.003   3.478  10.462 -0.2898  0.1401  0.0083
  585ERGO    R5 8722  10.823   3.356  10.469 -0.0629 -0.2158  0.0329
  585ERGO    C1 8723  10.944   3.276  10.116 -0.0077  0.1183 -0.0284
  585ERGO    C2 8724  10.965   3.242   9.823 -0.0719 -0.0632 -0.2471
  586ERGO   ROH 8725   3.611  16.830  11.227  0.2119  0.1868 -0.0498
  586ERGO    R1 8726   3.450  16.805  10.996  0.2153  0.0813 -0.0405
  586ERGO    R2 8727   3.418  17.010  10.813  0.0727  0.0595 -0.0385
  586ERGO    R3 8728   3.500  16.821  10.636  0.1840  0.1117 -0.0442
  586ERGO    R4 8729   3.309  16.984  10.486  0.0930  0.0138 -0.0422
  586ERGO    R5 8730   3.304  16.768  10.510  0.2139  0.0073 -0.0507
  586ERGO    C1 8731   3.322  16.792  10.130  0.2093  0.0363 -0.0498
  586ERGO    C2 8732   3.309  16.882   9.844  0.2002 -0.0222 -0.0456
  587ERGO   ROH 8733   8.748  16.194  10.741 -0.0844  0.1298  0.0717
  587ERGO    R1 8734   8.683  16.075  10.493 -0.0792  0.1138  0.0774
  587ERGO    R2 8735   8.598  16.221  10.275  0.0496  0.1150  0.0267
  587ERGO    R3 8736   8.803  16.094  10.150  0.0208 -0.0112  0.1040
  587ERGO    R4 8737   8.621  16.173   9.934  0.2203  0.2479  0.0184
  587ERGO    R5 8738   8.698  15.972   9.973  0.0210  0.1583 -0.0174
  587ERGO    C1 8739   8.826  16.026   9.618  0.2925  0.2066  0.0861
  587ERGO    C2 8740   8.856  15.955   9.258  0.2420 -0.1008  0.3716
  588ERGO   ROH 8741  15.750  16.822  11.215 -0.2937 -0.1782 -0.1656
  588ERGO    R1 8742  15.819  16.673  10.984 -0.3081 -0.1633 -0.1805
  588ERGO    R2 8743  15.644  16.638  10.773 -0.2912 -0.0698 -0.2178
  588ERGO    R3 8744  15.851  16.739  10.628 -0.2330 -0.1103 -0.1625
  588ERGO    R4 8745  15.697  16.576  10.437 -0.0988 -0.2184 -0.1613
  588ERGO    R5 8746  15.911  16.560  10.479 -0.1244 -0.1652 -0.0457
  588ERGO    C1 8747  15.922  16.634  10.105  0.0681 -0.3430 -0.0765
  588ERGO    C2 8748  15.922  16.608   9.739  0.2631  0.2745 -0.2008
  589ERGO   ROH 8749   7.010  12.581  11.003 -0.1261 -0.0665  0.0711
  589ERGO    R1 8750   7.146  12.534  10.759 -0.0795 -0.1041  0.1056
  589ERGO    R2 8751   7.052  12.359  10.567 -0.1262 -0.0071  0.0471
  589ERGO    R3 8752   7.075  12.575  10.404  0.0596  0.0056  0.0885
  589ERGO    R4 8753   7.129  12.345  10.231 -0.3223 -0.0328  0.0010
  589ERGO    R5 8754   7.256  12.520  10.258 -0.0824 -0.1946 -0.0221
  589ERGO    C1 8755   7.196  12.540   9.882 -0.2620 -0.0359  0.0128
  589ERGO    C2 8756   7.148  12.595   9.475 -0.0945 -0.1562  0.0262
  590ERGO   ROH 8757  14.032   8.462  10.787 -0.0701  0.2046 -0.0059
  590ERGO    R1 8758  14.180   8.385  10.558 -0.1112  0.0575  0.0160
  590ERGO    R2 8759  14.071   8.234  10.354 -0.2281  0.1537  0.0069
  590ERGO    R3 8760  14.158   8.438  10.198 -0.0126  0.0679  0.0112
  590ERGO    R4 8761  14.133   8.209  10.015 -0.2755  0.1007  0.0018
  590ERGO    R5 8762  14.310   8.334  10.044 -0.1344 -0.0928 -0.0031
  590ERGO    C1 8763  14.251   8.387   9.671 -0.1009 -0.0107  0.0028
  590ERGO    C2 8764  14.120   8.266   9.435 -0.1117  0.2518  0.1837
  591ERGO   ROH 8765  12.065  11.918  10.658  0.0898  0.1209 -0.0394
  591ERGO    R1 8766  12.146  11.882  10.389  0.0415  0.0906 -0.0493
  591ERGO    R2 8767  12.046  11.681  10.229 -0.0787  0.1502 -0.0447
  591ERGO    R3 8768  11.988  11.888  10.061  0.0088  0.1858 -0.0327
  591ERGO    R4 8769  12.052  11.662   9.884  0.0528  0.2072 -0.0469
  591ERGO    R5 8770  12.143  11.861   9.880  0.0776  0.1992  0.0217
  591ERGO    C1 8771  12.002  11.845   9.525  0.2114  0.2738 -0.0370
  591ERGO    C2 8772  11.861  11.594   9.370 -0.2044 -0.0449 -0.1291
  592ERGO   ROH 8773  14.937   0.635  11.419 -0.1113 -0.1330  0.0559
  592ERGO    R1 8774  15.104   0.704  11.201 -0.0364 -0.1098  0.1195
  592ERGO    R2 8775  15.213   0.514  11.031 -0.0928 -0.0840  0.0536
  592ERGO    R3 8776  15.094   0.665  10.839  0.0147  0.0613  0.0986
  592ERGO    R4 8777  15.210   0.440  10.693 -0.1575  0.0079  0.0340
  592ERGO    R5 8778  15.242   0.651  10.651  0.0017 -0.0002  0.0911
  592ERGO    C1 8779  15.097   0.539  10.317 -0.0942  0.1979  0.0650
  592ERGO    C2 8780  15.104   0.582   9.943  0.1939 -0.2111 -0.1262
  593ERGO   ROH 8781   4.291  15.524  11.217 -0.0914  0.1436 -0.1239
  593ERGO    R1 8782   4.436  15.439  10.989 -0.0431 -0.0155 -0.0413
  593ERGO    R2 8783   4.350  15.231  10.826 -0.1073 -0.0291 -0.0325
  593ERGO    R3 8784   4.375  15.419  10.631  0.0807 -0.0800 -0.0515
  593ERGO    R4 8785   4.317  15.171  10.488 -0.3457  0.0443 -0.0206
  593ERGO    R5 8786   4.484  15.305  10.452 -0.1816 -0.2209 -0.1000
  593ERGO    C1 8787   4.322  15.312  10.107 -0.3080  0.0393 -0.0315
  593ERGO    C2 8788   4.321  15.284   9.769  0.2119 -0.1078  0.0139
  594ERGO   ROH 8789   9.302  15.302  11.017  0.1654  0.1574  0.1189
  594ERGO    R1 8790   9.417  15.379  10.770  0.0057  0.2254  0.0658
  594ERGO    R2 8791   9.537  15.198  10.599  0.1415  0.3162  0.0712
  594ERGO    R3 8792   9.363  15.302  10.419 -0.0247  0.0928  0.0975
  594ERGO    R4 8793   9.566  15.168  10.256  0.1282  0.3381  0.0674
  594ERGO    R5 8794   9.501  15.375  10.237 -0.1390  0.2632  0.0717
  594ERGO    C1 8795   9.419  15.248   9.887 -0.0357  0.1411  0.0899
  594ERGO    C2 8796   9.520  15.201   9.519 -0.2582 -0.1001 -0.0184
  595ERGO   ROH 8797   5.695  11.829  10.993  0.0820 -0.0500  0.0004
  595ERGO    R1 8798   5.782  11.945  10.750  0.0580 -0.1019 -0.0335
  595ERGO    R2 8799   5.868  11.794  10.535  0.0386 -0.1485 -0.0097
  595ERGO    R3 8800   5.679  11.938  10.401  0.0242 -0.1788 -0.0218
  595ERGO    R4 8801   5.830  11.798  10.192 -0.0020 -0.2274 -0.0061
  595ERGO    R5 8802   5.792  12.012  10.203  0.0007 -0.2254 -0.0519
  595ERGO    C1 8803   5.631  11.934   9.866 -0.0391 -0.3018 -0.0155
  595ERGO    C2 8804   5.619  12.050   9.506  0.0670  0.1619 -0.0908
  596ERGO   ROH 8805   9.643   6.722  10.984 -0.2427  0.2480 -0.0096
  596ERGO    R1 8806   9.578   6.812  10.723  0.0505  0.2961 -0.0703
  596ERGO    R2 8807   9.770   6.854  10.528  0.2396 -0.0371  0.0300
  596ERGO    R3 8808   9.612   6.686  10.384  0.0632  0.1686 -0.0207
  596ERGO    R4 8809   9.775   6.825  10.184  0.2213  0.0318  0.0240
  596ERGO    R5 8810   9.558   6.810  10.186  0.2081  0.2693  0.0058
  596ERGO    C1 8811   9.629   6.650   9.848  0.0451  0.2651 -0.0271
  596ERGO    C2 8812   9.659   6.607   9.521  0.1095 -0.2156 -0.1326
  597ERGO   ROH 8813  13.041  11.047  10.833 -0.0143 -0.2955  0.0380
  597ERGO    R1 8814  12.905  11.081  10.587  0.0669 -0.1007  0.0205
  597ERGO    R2 8815  13.018  11.210  10.371  0.2789 -0.2575  0.0441
  597ERGO    R3 8816  12.954  10.980  10.241 -0.0290 -0.1667  0.0241
  597ERGO    R4 8817  13.036  11.166  10.029  0.3609 -0.2897  0.0505
  597ERGO    R5 8818  12.849  11.054  10.039  0.1712  0.0010 -0.0265
  597ERGO    C1 8819  12.986  10.925   9.707  0.1196 -0.2233  0.0355
  597ERGO    C2 8820  13.219  10.871   9.367 -0.1744  0.1473 -0.0898
  598ERGO   ROH 8821  11.462  13.477  10.491 -0.0027 -0.0901  0.0389
  598ERGO    R1 8822  11.399  13.564  10.229  0.0678  0.0298  0.0602
  598ERGO    R2 8823  11.593  13.619  10.039  0.1149 -0.1501  0.0494
  598ERGO    R3 8824  11.451  13.442   9.890 -0.0998  0.0313  0.0341
  598ERGO    R4 8825  11.633  13.569   9.700  0.0841 -0.2059  0.0545
  598ERGO    R5 8826  11.417  13.553   9.681  0.0653  0.0734  0.0314
  598ERGO    C1 8827  11.523  13.373   9.362 -0.1354 -0.0681  0.0431
  598ERGO    C2 8828  11.667  13.275   9.080  0.0880  0.2060  0.2252
  599ERGO   ROH 8829  13.328   3.929  11.182  0.0537 -0.2278  0.0013
  599ERGO    R1 8830  13.339   3.776  10.944  0.2144 -0.1231 -0.0603
  599ERGO    R2 8831  13.142   3.787  10.750  0.1250 -0.3576  0.0109
  599ERGO    R3 8832  13.352   3.844  10.587 -0.0123  0.0368 -0.0396
  599ERGO    R4 8833  13.133   3.776  10.405  0.0815 -0.4257  0.0141
  599ERGO    R5 8834  13.332   3.687  10.408  0.2638 -0.0335 -0.0113
  599ERGO    C1 8835  13.325   3.822  10.051 -0.0725 -0.0951 -0.0314
  599ERGO    C2 8836  13.441   3.824   9.739  0.1982  0.2323  0.1592
  600ERGO   ROH 8837   2.995   3.698  11.195  0.0912 -0.1007  0.0786
  600ERGO    R1 8838   3.088   3.589  10.951  0.0126  0.0580 -0.0222
  600ERGO    R2 8839   2.945   3.400  10.808  0.0035  0.1004 -0.0582
  600ERGO    R3 8840   2.973   3.579  10.605 -0.1352  0.2141  0.0191
  600ERGO    R4 8841   2.888   3.331  10.474  0.2400  0.1353 -0.1090
  600ERGO    R5 8842   3.063   3.450  10.425  0.1166  0.3857  0.0112
  600ERGO    C1 8843   2.881   3.458  10.090  0.2476  0.2623 -0.0660
  600ERGO    C2 8844   2.615   3.318   9.987 -0.2808 -0.0434  0.1318
  601ERGO   ROH 8845   4.630  16.446  10.977  0.0379 -0.4838  0.1211
  601ERGO    R1 8846   4.667  16.344  10.716  0.0424 -0.3173  0.0562
  601ERGO    R2 8847   4.458  16.308  10.539  0.0487 -0.1897  0.0250
  601ERGO    R3 8848   4.612  16.461  10.376  0.0650 -0.0942  0.1279
  601ERGO    R4 8849   4.447  16.302  10.194  0.0001  0.0945  0.0184
  601ERGO    R5 8850   4.664  16.318  10.191  0.0044  0.0417  0.0025
  601ERGO    C1 8851   4.585  16.442   9.839 -0.0128  0.3495  0.1110
  601ERGO    C2 8852   4.483  16.284   9.523  0.0428  0.0139  0.2637
  602ERGO   ROH 8853   1.945   2.613  10.853  0.0298  0.1132  0.1153
  602ERGO    R1 8854   1.904   2.698  10.586  0.0016  0.0906  0.1112
  602ERGO    R2 8855   2.109   2.711  10.400  0.0062  0.1746  0.1138
  602ERGO    R3 8856   1.941   2.555  10.254  0.0755  0.0967  0.1184
  602ERGO    R4 8857   2.114   2.682  10.056  0.1400  0.0051  0.1292
  602ERGO    R5 8858   1.896   2.683  10.057  0.1453 -0.0064  0.0400
  602ERGO    C1 8859   1.959   2.519   9.718  0.2830 -0.1667  0.1424
  602ERGO    C2 8860   2.059   2.380   9.379 -0.0689 -0.0918  0.2122
  603ERGO   ROH 8861  12.086   0.491  11.025 -0.0657  0.0115  0.0146
  603ERGO    R1 8862  12.270   0.502  10.810 -0.0469  0.0106  0.0287
  603ERGO    R2 8863  12.300   0.295  10.629 -0.0088 -0.0074  0.0446
  603ERGO    R3 8864  12.253   0.491  10.447 -0.0186 -0.0253  0.0303
  603ERGO    R4 8865  12.388   0.279  10.296  0.2305  0.0918  0.1026
  603ERGO    R5 8866  12.447   0.489  10.307  0.0752  0.1266  0.1626
  603ERGO    C1 8867  12.396   0.455   9.930  0.3605  0.1328  0.1229
  603ERGO    C2 8868  12.542   0.430   9.580  0.1055  0.0428 -0.2007
  604ERGO   ROH 8869  12.836   9.097  10.496  0.1337  0.0378  0.0175
  604ERGO    R1 8870  12.733   8.971  10.264  0.0222  0.2511 -0.0508
  604ERGO    R2 8871  12.692   9.108  10.027  0.4171  0.3571 -0.0666
  604ERGO    R3 8872  12.847   8.910   9.924  0.1047  0.0608  0.0099
  604ERGO    R4 8873  12.726   9.040   9.690  0.4743  0.3088 -0.0515
  604ERGO    R5 8874  12.721   8.827   9.738  0.0440  0.3077 -0.0622
  604ERGO    C1 8875  12.891   8.815   9.396  0.2143  0.0027  0.0291
  604ERGO    C2 8876  12.934   8.765   9.040 -0.0697 -0.0287 -0.3145
  605ERGO   ROH 8877   5.431   0.859  11.194 -0.0924  0.3224 -0.1344
  605ERGO    R1 8878   5.372   0.965  10.938 -0.1118  0.2016 -0.1809
  605ERGO    R2 8879   5.564   0.997  10.743 -0.0994  0.2348 -0.1660
  605ERGO    R3 8880   5.391   0.849  10.593 -0.0004  0.0894 -0.1374
  605ERGO    R4 8881   5.528   1.023  10.400 -0.1367  0.1612 -0.1673
  605ERGO    R5 8882   5.312   1.002  10.426 -0.1196  0.0087 -0.1542
  605ERGO    C1 8883   5.345   0.899  10.060 -0.0655 -0.0182 -0.1412
  605ERGO    C2 8884   5.375   0.791   9.811  0.1511  0.0568  0.1064
  606ERGO   ROH 8885   1.552   4.165  10.983  0.0406  0.1747 -0.0915
  606ERGO    R1 8886   1.509   4.074  10.719  0.0647  0.1491 -0.0863
  606ERGO    R2 8887   1.320   4.186  10.552  0.0521  0.1054 -0.0995
  606ERGO    R3 8888   1.532   4.214  10.384  0.0524  0.1289 -0.0959
  606ERGO    R4 8889   1.298   4.202  10.207  0.0629  0.0082 -0.1050
  606ERGO    R5 8890   1.477   4.077  10.195  0.1043  0.0609 -0.0632
  606ERGO    C1 8891   1.485   4.236   9.849  0.0696 -0.0262 -0.1049
  606ERGO    C2 8892   1.332   4.224   9.465  0.0653  0.0044  0.0518
  607ERGO   ROH 8893  14.176   1.331  11.307 -0.1434 -0.2268 -0.0051
  607ERGO    R1 8894  14.319   1.277  11.068 -0.1357 -0.4152  0.0397
  607ERGO    R2 8895  14.236   1.088  10.884 -0.4771 -0.1297 -0.1157
  607ERGO    R3 8896  14.254   1.297  10.711  0.0879 -0.0550  0.0149
  607ERGO    R4 8897  14.258   1.059  10.540 -0.3582  0.0313 -0.1221
  607ERGO    R5 8898  14.404   1.220  10.541  0.0124 -0.2906  0.0536
  607ERGO    C1 8899  14.288   1.238  10.178  0.2413  0.1953 -0.0034
  607ERGO    C2 8900  14.281   1.287   9.896 -0.0340 -0.0053  0.2029
  608ERGO   ROH 8901  15.336  13.319  11.279  0.0657 -0.0748 -0.1294
  608ERGO    R1 8902  15.266  13.283  11.008  0.1217 -0.0969 -0.1411
  608ERGO    R2 8903  15.183  13.492  10.846 -0.1170 -0.1545 -0.0986
  608ERGO    R3 8904  15.384  13.404  10.686 -0.0023  0.1173 -0.1074
  608ERGO    R4 8905  15.180  13.503  10.501 -0.1534 -0.1747 -0.0989
  608ERGO    R5 8906  15.273  13.306  10.498  0.1218 -0.0480 -0.0959
  608ERGO    C1 8907  15.367  13.428  10.149 -0.0668  0.0687 -0.1075
  608ERGO    C2 8908  15.324  13.406   9.803  0.2047 -0.0028 -0.1627
  609ERGO   ROH 8909   4.601   2.842  11.582 -0.0495 -0.1020  0.0799
  609ERGO    R1 8910   4.449   2.896  11.350  0.0216  0.0099  0.0591
  609ERGO    R2 8911   4.494   3.117  11.190  0.2131 -0.0307  0.0608
  609ERGO    R3 8912   4.514   2.931  10.993  0.0922 -0.0494  0.0651
  609ERGO    R4 8913   4.361   3.150  10.873  0.3052  0.0913  0.0335
  609ERGO    R5 8914   4.302   2.941  10.881  0.1192  0.1377  0.0219
  609ERGO    C1 8915   4.302   2.994  10.503  0.2454  0.1448  0.0217
  609ERGO    C2 8916   4.384   2.951  10.240  0.0399 -0.1943  0.2134
  610ERGO   ROH 8917   7.820   4.224  10.979 -0.3837  0.2014 -0.1695
  610ERGO    R1 8918   7.777   4.282  10.705 -0.2232 -0.0044 -0.2408
  610ERGO    R2 8919   7.983   4.303  10.523 -0.1016  0.0166 -0.1027
  610ERGO    R3 8920   7.839   4.117  10.387  0.1227 -0.1702 -0.0916
  610ERGO    R4 8921   7.913   4.316  10.184 -0.1119 -0.1006 -0.1060
  610ERGO    R5 8922   7.712   4.244  10.228 -0.0280 -0.3377 -0.1064
  610ERGO    C1 8923   7.738   4.148   9.860  0.0926 -0.3442 -0.0976
  610ERGO    C2 8924   7.711   4.197   9.533 -0.3537 -0.2312  0.0806
  611ERGO   ROH 8925   2.111   9.519  10.925 -0.2149  0.2407 -0.0643
  611ERGO    R1 8926   2.038   9.438  10.664 -0.1938  0.2082 -0.0605
  611ERGO    R2 8927   2.023   9.616  10.452 -0.0954  0.1680 -0.1028
  611ERGO    R3 8928   2.192   9.439  10.334 -0.1323  0.0850 -0.0318
  611ERGO    R4 8929   2.036   9.551  10.113  0.0105  0.1550 -0.0962
  611ERGO    R5 8930   2.062   9.340  10.159 -0.1088  0.1437 -0.0819
  611ERGO    C1 8931   2.203   9.347   9.805  0.0376  0.0694 -0.0260
  611ERGO    C2 8932   2.243   9.344   9.475 -0.0371 -0.1093  0.0853
  612ERGO   ROH 8933   9.984   3.025  10.678 -0.1798 -0.1254  0.0899
  612ERGO    R1 8934   9.905   2.912  10.430 -0.1420  0.0331  0.0035
  612ERGO    R2 8935   9.827   3.066  10.215  0.1327  0.1850  0.0026
  612ERGO    R3 8936  10.020   2.926  10.085  0.0798  0.0432  0.0770
  612ERGO    R4 8937   9.856   3.042   9.871  0.0613 -0.1106  0.0149
  612ERGO    R5 8938   9.907   2.832   9.895  0.0287 -0.0966  0.1789
  612ERGO    C1 8939  10.054   2.897   9.549 -0.0298 -0.4158  0.0919
  612ERGO    C2 8940  10.045   3.025   9.164 -0.0267  0.1965 -0.1147
  613ERGO   ROH 8941   3.803  11.035  11.001 -0.0039 -0.1039 -0.0002
  613ERGO    R1 8942   3.697  11.105  10.749  0.0297  0.0441  0.0259
  613ERGO    R2 8943   3.814  11.294  10.584  0.1947 -0.0434  0.0425
  613ERGO    R3 8944   3.807  11.092  10.402 -0.0296 -0.0079  0.0086
  613ERGO    R4 8945   3.740  11.333  10.249  0.2686  0.1009  0.0416
  613ERGO    R5 8946   3.624  11.148  10.258  0.0467  0.2338  0.0010
  613ERGO    C1 8947   3.690  11.166   9.883  0.1011  0.2182  0.0093
  613ERGO    C2 8948   3.690  11.111   9.661 -0.2342  0.2926 -0.1957
  614ERGO   ROH 8949   7.211   9.166  10.826 -0.1522 -0.3975 -0.0206
  614ERGO    R1 8950   7.286   9.295  10.586 -0.1359 -0.2030  0.0870
  614ERGO    R2 8951   7.473   9.189  10.412 -0.1287 -0.0673  0.0106
  614ERGO    R3 8952   7.273   9.219  10.230 -0.1188  0.0849  0.0226
  614ERGO    R4 8953   7.518   9.210  10.070 -0.1409 -0.1299  0.0047
  614ERGO    R5 8954   7.365   9.365  10.064 -0.0128 -0.0034  0.0044
  614ERGO    C1 8955   7.357   9.250   9.700 -0.1387 -0.0235  0.0123
  614ERGO    C2 8956   7.404   9.299   9.469  0.2094  0.1911 -0.1349
  615ERGO   ROH 8957   0.057   8.602  10.865 -0.1091 -0.1106 -0.0314
  615ERGO    R1 8958   0.150   8.741  10.637 -0.0778 -0.0170  0.0393
  615ERGO    R2 8959   0.309   8.623  10.445 -0.0984  0.0479 -0.0118
  615ERGO    R3 8960   0.115   8.711  10.276 -0.0744  0.1688  0.0213
  615ERGO    R4 8961   0.348   8.667  10.104 -0.1500 -0.0741 -0.0348
  615ERGO    R5 8962   0.231   8.850  10.119  0.0050  0.0337 -0.0468
  615ERGO    C1 8963   0.188   8.776   9.748 -0.1575 -0.0317 -0.0169
  615ERGO    C2 8964   0.178   8.904   9.366 -0.3608  0.3833  0.0861
  616ERGO   ROH 8965  13.127   2.394  11.385 -0.0279 -0.0845 -0.0829
  616ERGO    R1 8966  13.099   2.227  11.158 -0.1579 -0.0738 -0.0768
  616ERGO    R2 8967  12.914   2.276  10.959 -0.1199  0.0661 -0.0858
  616ERGO    R3 8968  13.132   2.263  10.798 -0.1227 -0.1121 -0.0759
  616ERGO    R4 8969  12.905   2.258  10.614 -0.1086  0.1998 -0.0931
  616ERGO    R5 8970  13.068   2.114  10.622 -0.2666  0.0226 -0.1338
  616ERGO    C1 8971  13.105   2.235  10.262 -0.1049  0.1105 -0.0878
  616ERGO    C2 8972  13.191   2.199   9.877  0.0050  0.2178  0.0784
  617ERGO   ROH 8973   8.172   3.195  10.956 -0.2823 -0.1042  0.1941
  617ERGO    R1 8974   8.132   3.307  10.699 -0.1812 -0.0356  0.2065
  617ERGO    R2 8975   8.319   3.288  10.497 -0.0723  0.0748  0.2915
  617ERGO    R3 8976   8.110   3.185  10.357  0.0241  0.0624  0.1575
  617ERGO    R4 8977   8.261   3.343  10.161 -0.1280  0.4748  0.3621
  617ERGO    R5 8978   8.048   3.360  10.205 -0.1444  0.2113  0.3935
  617ERGO    C1 8979   8.031   3.277   9.833 -0.0700  0.6961  0.2775
  617ERGO    C2 8980   8.101   3.282   9.434 -0.2092  0.0884 -0.0904
  618ERGO   ROH 8981  13.408  13.818  11.007  0.0208  0.0187  0.1695
  618ERGO    R1 8982  13.543  13.807  10.758  0.0515  0.1157  0.1801
  618ERGO    R2 8983  13.510  13.599  10.579  0.1968  0.0968  0.1596
  618ERGO    R3 8984  13.450  13.800  10.407  0.0818  0.0749  0.1760
  618ERGO    R4 8985  13.502  13.568  10.235 -0.0399  0.0783  0.1661
  618ERGO    R5 8986  13.596  13.764  10.220 -0.0542  0.0654  0.0809
  618ERGO    C1 8987  13.441  13.739   9.873 -0.2858  0.0469  0.1852
  618ERGO    C2 8988  13.531  13.729   9.548  0.2015  0.1467  0.0752
  619ERGO   ROH 8989  14.915  16.664  11.265 -0.0224 -0.0035  0.0045
  619ERGO    R1 8990  14.950  16.767  11.003  0.0581  0.0045  0.0175
  619ERGO    R2 8991  15.181  16.725  10.857 -0.0146 -0.2563 -0.0348
  619ERGO    R3 8992  15.007  16.630  10.671 -0.1729 -0.0065 -0.0179
  619ERGO    R4 8993  15.238  16.724  10.516 -0.1275 -0.1907 -0.0536
  619ERGO    R5 8994  15.029  16.781  10.486 -0.0765  0.0370  0.0320
  619ERGO    C1 8995  15.107  16.634  10.143 -0.3419  0.0821 -0.0487
  619ERGO    C2 8996  15.016  16.645   9.862 -0.3109  0.0032  0.0199
  620ERGO   ROH 8997   1.326  11.775  11.333 -0.0308 -0.1553  0.0733
  620ERGO    R1 8998   1.485  11.793  11.100 -0.0730  0.0325  0.0579
  620ERGO    R2 8999   1.497  11.591  10.911  0.1644  0.0337  0.0691
  620ERGO    R3 9000   1.428  11.791  10.740 -0.1042 -0.0593  0.0632
  620ERGO    R4 9001   1.520  11.573  10.567 -0.0730 -0.0385  0.0545
  620ERGO    R5 9002   1.592  11.779  10.566 -0.2207  0.0140 -0.0532
  620ERGO    C1 9003   1.469  11.751  10.206 -0.4633 -0.1679  0.0404
  620ERGO    C2 9004   1.504  11.802   9.835  0.1277  0.1439  0.2311
  621ERGO   ROH 9005   0.838   7.767  11.118  0.2478 -0.0539  0.1165
  621ERGO    R1 9006   0.667   7.677  10.911  0.1389 -0.1381  0.2414
  621ERGO    R2 9007   0.686   7.770  10.651 -0.1806 -0.0317  0.2518
  621ERGO    R3 9008   0.706   7.505  10.592  0.0061  0.0037  0.1478
  621ERGO    R4 9009   0.616   7.631  10.342 -0.0614  0.0427  0.1904
  621ERGO    R5 9010   0.521   7.464  10.445  0.0451 -0.0647  0.1171
  621ERGO    C1 9011   0.594   7.302  10.107  0.1834  0.1193  0.0572
  621ERGO    C2 9012   0.529   7.366   9.762 -0.2283 -0.0376 -0.1097
  622ERGO   ROH 9013  14.145  12.712  11.033 -0.0257 -0.0453  0.1913
  622ERGO    R1 9014  14.212  12.570  10.798 -0.1993 -0.0798  0.1622
  622ERGO    R2 9015  14.036  12.540  10.587 -0.1737  0.3490  0.0748
  622ERGO    R3 9016  14.242  12.645  10.443  0.0974  0.0157  0.2033
  622ERGO    R4 9017  14.085  12.491  10.248 -0.1596  0.4291  0.0645
  622ERGO    R5 9018  14.299  12.472  10.287 -0.1992 -0.0263  0.1327
  622ERGO    C1 9019  14.305  12.560   9.915  0.1030  0.1629  0.1791
  622ERGO    C2 9020  14.185  12.415   9.504  0.1611 -0.2513  0.0322
  623ERGO   ROH 9021  13.266   2.835  11.293  0.1301  0.0799 -0.0701
  623ERGO    R1 9022  13.232   2.684  11.055  0.2275  0.0562 -0.0689
  623ERGO    R2 9023  13.032   2.738  10.872  0.1603 -0.1068 -0.0420
  623ERGO    R3 9024  13.241   2.750  10.697  0.1296  0.0703 -0.0697
  623ERGO    R4 9025  13.002   2.734  10.528  0.1149 -0.1779 -0.0375
  623ERGO    R5 9026  13.176   2.603  10.519  0.2419 -0.0158 -0.0432
  623ERGO    C1 9027  13.180   2.741  10.163  0.0597 -0.0531 -0.0607
  623ERGO    C2 9028  13.191   2.748   9.897 -0.1870 -0.4011 -0.2462
  624ERGO   ROH 9029  11.057   0.979  10.996  0.1460 -0.0249 -0.1132
  624ERGO    R1 9030  11.130   0.946  10.724  0.0468 -0.0239 -0.1409
  624ERGO    R2 9031  10.978   0.800  10.546 -0.0284 -0.0098 -0.0914
  624ERGO    R3 9032  10.987   1.029  10.400 -0.0646 -0.0062 -0.0874
  624ERGO    R4 9033  11.019   0.814  10.203  0.0193  0.0064 -0.0847
  624ERGO    R5 9034  11.151   0.985  10.231 -0.0291  0.0386 -0.0632
  624ERGO    C1 9035  11.052   1.038   9.866  0.0131  0.0191 -0.0771
  624ERGO    C2 9036  11.126   1.083   9.540 -0.0410 -0.2287 -0.1502
  625ERGO   ROH 9037   8.134  17.016  10.591  0.0676 -0.4439  0.0235
  625ERGO    R1 9038   8.087  16.916  10.330  0.3124 -0.1872 -0.1239
  625ERGO    R2 9039   7.885  17.011  10.168  0.1953 -0.3187 -0.0445
  625ERGO    R3 9040   8.088  17.048   9.991  0.1826  0.2602  0.0407
  625ERGO    R4 9041   7.848  17.010   9.825  0.3224 -0.4201 -0.0597
  625ERGO    R5 9042   8.036  16.899   9.810  0.6653  0.0968  0.0144
  625ERGO    C1 9043   8.018  17.045   9.458  0.3846  0.0645  0.0114
  625ERGO    C2 9044   7.906  17.190   9.154 -0.1545  0.0020  0.0668
  626ERGO   ROH 9045   6.732  10.544  11.060  0.1053  0.1261 -0.0214
  626ERGO    R1 9046   6.592  10.532  10.814  0.0657  0.0546  0.0040
  626ERGO    R2 9047   6.649  10.700  10.603 -0.0835  0.1096  0.0054
  626ERGO    R3 9048   6.676  10.467  10.466  0.0433  0.1360 -0.0164
  626ERGO    R4 9049   6.616  10.668  10.261 -0.2693  0.0859  0.0249
  626ERGO    R5 9050   6.509  10.480  10.294 -0.0777 -0.0121  0.0881
  626ERGO    C1 9051   6.621  10.430   9.933 -0.2586  0.0969  0.0158
  626ERGO    C2 9052   6.691  10.481   9.521  0.2421  0.1635 -0.2026
  627ERGO   ROH 9053  11.471  10.127  10.569  0.0570 -0.1404 -0.0735
  627ERGO    R1 9054  11.400  10.024  10.315 -0.0826 -0.0247 -0.0829
  627ERGO    R2 9055  11.172  10.104  10.181 -0.0600  0.1790 -0.0081
  627ERGO    R3 9056  11.347  10.159   9.981 -0.0664  0.0997 -0.0353
  627ERGO    R4 9057  11.098  10.092   9.844 -0.1704  0.3857  0.0074
  627ERGO    R5 9058  11.293  10.002   9.809 -0.2615  0.2193 -0.0855
  627ERGO    C1 9059  11.220  10.136   9.460 -0.2408  0.4316 -0.0091
  627ERGO    C2 9060  11.203  10.168   9.107 -0.2480 -0.2011  0.3598
  628ERGO   ROH 9061  13.085  14.815  10.953 -0.1663  0.0028 -0.0050
  628ERGO    R1 9062  13.208  14.695  10.728 -0.1928 -0.0521  0.0105
  628ERGO    R2 9063  13.068  14.535  10.550 -0.2425  0.0139 -0.0058
  628ERGO    R3 9064  13.168  14.708  10.366 -0.1390 -0.0332  0.0043
  628ERGO    R4 9065  13.165  14.449  10.230 -0.0912 -0.0700  0.0608
  628ERGO    R5 9066  13.336  14.583  10.250 -0.0889 -0.0754  0.1161
  628ERGO    C1 9067  13.315  14.562   9.870  0.0942 -0.1629  0.1092
  628ERGO    C2 9068  13.159  14.461   9.536  0.3453  0.1848  0.1536
  629ERGO   ROH 9069   2.704   1.723  11.342  0.0119  0.2233 -0.0266
  629ERGO    R1 9070   2.636   1.840  11.093  0.0523  0.2554 -0.0238
  629ERGO    R2 9071   2.824   1.954  10.926  0.1224  0.0271 -0.1105
  629ERGO    R3 9072   2.717   1.783  10.743 -0.1252  0.1050 -0.0406
  629ERGO    R4 9073   2.809   2.013  10.586  0.0304 -0.0125 -0.1128
  629ERGO    R5 9074   2.608   1.926  10.584 -0.0538  0.1846 -0.0137
  629ERGO    C1 9075   2.700   1.887  10.216 -0.2556  0.0375 -0.0487
  629ERGO    C2 9076   2.744   1.891   9.919  0.1543  0.0323 -0.1372
  630ERGO   ROH 9077   9.674   5.116  10.800 -0.1039 -0.0474  0.0818
  630ERGO    R1 9078   9.676   5.268  10.561 -0.2245 -0.0910  0.0516
  630ERGO    R2 9079   9.909   5.344  10.435 -0.2717  0.2376  0.1439
  630ERGO    R3 9080   9.793   5.224  10.220  0.0035  0.0118  0.1160
  630ERGO    R4 9081  10.014   5.380  10.107 -0.2557  0.4206  0.1683
  630ERGO    R5 9082   9.806   5.388  10.046 -0.2590  0.0299  0.1149
  630ERGO    C1 9083   9.967   5.288   9.715  0.0119  0.3151  0.1566
  630ERGO    C2 9084  10.095   5.268   9.333 -0.2249  0.0537 -0.2559
  631ERGO   ROH 9085   0.520   2.245  11.331  0.1804  0.1392 -0.1906
  631ERGO    R1 9086   0.626   2.148  11.087  0.1119  0.1506 -0.2258
  631ERGO    R2 9087   0.498   1.957  10.934  0.1303  0.0613 -0.1341
  631ERGO    R3 9088   0.526   2.143  10.738 -0.0538  0.0440 -0.1773
  631ERGO    R4 9089   0.420   1.906  10.601 -0.0688 -0.0034 -0.0785
  631ERGO    R5 9090   0.599   2.018  10.547 -0.1389  0.0440 -0.2090
  631ERGO    C1 9091   0.400   2.051  10.223 -0.3575 -0.0573 -0.0868
  631ERGO    C2 9092   0.362   1.995   9.918  0.0653 -0.5343 -0.0689
  632ERGO   ROH 9093  10.507  10.618  10.975 -0.1104 -0.1637 -0.0235
  632ERGO    R1 9094  10.616  10.687  10.722 -0.0651 -0.0366  0.0291
  632ERGO    R2 9095  10.577  10.532  10.496  0.1652 -0.0463 -0.0103
  632ERGO    R3 9096  10.486  10.766  10.392 -0.0005 -0.1122 -0.0138
  632ERGO    R4 9097  10.537  10.595  10.159  0.0768 -0.0895 -0.0073
  632ERGO    R5 9098  10.615  10.796  10.192 -0.0499 -0.0390 -0.0321
  632ERGO    C1 9099  10.428  10.850   9.864 -0.1302 -0.1764 -0.0091
  632ERGO    C2 9100  10.362  10.790   9.617  0.0359 -0.2202  0.0876
  633ERGO   ROH 9101   6.859  13.943  10.745  0.3725  0.0173  0.0882
  633ERGO    R1 9102   6.856  14.002  10.468  0.3302 -0.0086  0.0818
  633ERGO    R2 9103   7.071  13.948  10.302  0.2007 -0.2940 -0.0074
  633ERGO    R3 9104   6.883  13.814  10.158 -0.0303 -0.0808  0.0917
  633ERGO    R4 9105   7.037  13.963   9.958 -0.0594 -0.1543  0.0235
  633ERGO    R5 9106   6.821  13.966   9.985 -0.0340  0.0273  0.1919
  633ERGO    C1 9107   6.841  13.846   9.623 -0.4277  0.1272  0.1343
  633ERGO    C2 9108   6.815  13.780   9.290 -0.0823  0.1623  0.0200
  634ERGO   ROH 9109  14.437   3.073  11.241  0.0154 -0.2608 -0.0632
  634ERGO    R1 9110  14.317   2.976  11.004  0.0258 -0.1397 -0.1185
  634ERGO    R2 9111  14.142   3.127  10.853  0.0359 -0.0642 -0.0525
  634ERGO    R3 9112  14.315   3.067  10.652  0.0413  0.0355 -0.0732
  634ERGO    R4 9113  14.080   3.178  10.517 -0.1099 -0.2567 -0.0566
  634ERGO    R5 9114  14.175   2.987  10.475  0.0743 -0.1753 -0.0054
  634ERGO    C1 9115  14.205   3.152  10.132 -0.1899 -0.2752 -0.0785
  634ERGO    C2 9116  14.184   3.104   9.759 -0.1150  0.0343 -0.4254
  635ERGO   ROH 9117  14.551   6.034  11.109 -0.1561 -0.0554  0.0529
  635ERGO    R1 9118  14.688   6.059  10.862 -0.0751  0.1011  0.1128
  635ERGO    R2 9119  14.659   5.877  10.656  0.1201  0.1402  0.0487
  635ERGO    R3 9120  14.597   6.099  10.513  0.0360  0.1427  0.0881
  635ERGO    R4 9121  14.692   5.907  10.314 -0.0152  0.1708  0.0375
  635ERGO    R5 9122  14.765   6.110  10.343 -0.0305  0.1777  0.0241
  635ERGO    C1 9123  14.653   6.133   9.979 -0.1729  0.1909  0.0679
  635ERGO    C2 9124  14.702   6.260   9.721  0.1797 -0.0709 -0.2337
  636ERGO   ROH 9125  10.088  14.187  10.860  0.1386 -0.0388  0.0511
  636ERGO    R1 9126  10.203  14.210  10.603  0.1004  0.1065  0.0460
  636ERGO    R2 9127  10.254  13.992  10.441  0.1814  0.1846 -0.0421
  636ERGO    R3 9128  10.105  14.131  10.261  0.0969  0.1862  0.0294
  636ERGO    R4 9129  10.237  13.922  10.103 -0.0097  0.1718 -0.0304
  636ERGO    R5 9130  10.241  14.136  10.064 -0.0128  0.1654 -0.0440
  636ERGO    C1 9131  10.088  14.012   9.738 -0.2002  0.1657  0.0435
  636ERGO    C2 9132  10.022  14.032   9.458 -0.2404  0.1322  0.2103
  637ERGO   ROH 9133   3.090   0.518  10.944  0.1894  0.2132  0.0920
  637ERGO    R1 9134   2.996   0.494  10.678  0.0288  0.1677  0.1525
  637ERGO    R2 9135   3.019   0.698  10.492  0.0783  0.0703  0.0567
  637ERGO    R3 9136   3.141   0.506  10.344 -0.1427 -0.0809  0.0651
  637ERGO    R4 9137   2.963   0.643  10.156  0.2011  0.3071 -0.0056
  637ERGO    R5 9138   2.970   0.428  10.195 -0.1860  0.2670 -0.0812
  637ERGO    C1 9139   3.044   0.430   9.821  0.0651  0.3030 -0.0340
  637ERGO    C2 9140   3.005   0.494   9.444 -0.1125  0.0244  0.0568
  638ERGO   ROH 9141   5.699   7.209  10.924  0.3344  0.1432  0.0737
  638ERGO    R1 9142   5.541   7.203  10.690  0.2133  0.0190  0.1573
  638ERGO    R2 9143   5.563   7.394  10.490 -0.0068  0.0078  0.1225
  638ERGO    R3 9144   5.600   7.177  10.332  0.0399  0.0112  0.1278
  638ERGO    R4 9145   5.531   7.393  10.146  0.0345  0.0045  0.1184
  638ERGO    R5 9146   5.434   7.198  10.161  0.0563 -0.0091  0.1075
  638ERGO    C1 9147   5.547   7.187   9.797  0.1024  0.0058  0.1209
  638ERGO    C2 9148   5.570   7.306   9.424  0.0035  0.0288 -0.3296
  639ERGO   ROH 9149  11.291   2.867  11.177 -0.1033 -0.0062  0.0750
  639ERGO    R1 9150  11.205   2.925  10.913  0.0495  0.2961  0.0886
  639ERGO    R2 9151  11.334   3.110  10.752  0.5784 -0.0228  0.1273
  639ERGO    R3 9152  11.345   2.901  10.578 -0.0181 -0.0344  0.0807
  639ERGO    R4 9153  11.336   3.137  10.407  0.5208  0.0360  0.1306
  639ERGO    R5 9154  11.203   2.965  10.397  0.0690  0.3638  0.1444
  639ERGO    C1 9155  11.348   2.957  10.044 -0.0727  0.0592  0.0888
  639ERGO    C2 9156  11.449   2.930   9.668  0.0908  0.1728 -0.1183
  640ERGO   ROH 9157   1.562   5.102  11.292 -0.0489 -0.0973  0.0829
  640ERGO    R1 9158   1.467   5.201  11.044 -0.0383 -0.1332  0.0644
  640ERGO    R2 9159   1.632   5.324  10.859 -0.0498 -0.0615  0.1012
  640ERGO    R3 9160   1.529   5.136  10.692  0.0635 -0.1021  0.0762
  640ERGO    R4 9161   1.579   5.366  10.520  0.0454 -0.0933  0.0820
  640ERGO    R5 9162   1.391   5.259  10.540  0.0726 -0.1524  0.0263
  640ERGO    C1 9163   1.451   5.215  10.166  0.2072 -0.1500  0.0471
  640ERGO    C2 9164   1.485   5.146   9.855  0.2177 -0.0058  0.0975
  641ERGO   ROH 9165  16.392  14.909  11.214  0.4291 -0.1796 -0.0801
  641ERGO    R1 9166  16.506  14.925  10.955  0.3690 -0.3720 -0.1194
  641ERGO    R2 9167  16.536  14.703  10.792 -0.2256 -0.4067 -0.2025
  641ERGO    R3 9168  16.398  14.855  10.615  0.0611 -0.0126 -0.1030
  641ERGO    R4 9169  16.573  14.689  10.449 -0.3909 -0.4060 -0.2208
  641ERGO    R5 9170  16.556  14.906  10.443  0.1297 -0.3478 -0.1501
  641ERGO    C1 9171  16.464  14.824  10.083 -0.2180 -0.0357 -0.1381
  641ERGO    C2 9172  16.506  14.767   9.742  0.1381 -0.2179  0.0634
  642ERGO   ROH 9173  15.368  11.416  10.935 -0.0783  0.0589  0.0269
  642ERGO    R1 9174  15.428  11.540  10.688 -0.1908  0.0893  0.0117
  642ERGO    R2 9175  15.578  11.416  10.492  0.0145  0.2366  0.0566
  642ERGO    R3 9176  15.363  11.473  10.336 -0.0429 -0.0748  0.0175
  642ERGO    R4 9177  15.592  11.487  10.154 -0.0205  0.4514  0.1007
  642ERGO    R5 9178  15.442  11.642  10.185 -0.3141  0.1533  0.1356
  642ERGO    C1 9179  15.398  11.583   9.811 -0.0948  0.2841  0.0897
  642ERGO    C2 9180  15.396  11.611   9.447 -0.1307 -0.0354  0.1245
  643ERGO   ROH 9181   1.161  14.557  11.173 -0.2782  0.1937 -0.0331
  643ERGO    R1 9182   1.134  14.416  10.929 -0.3101  0.1443 -0.0025
  643ERGO    R2 9183   0.941  14.479  10.741 -0.1088  0.3452 -0.1551
  643ERGO    R3 9184   1.154  14.495  10.574  0.0305 -0.0002 -0.0174
  643ERGO    R4 9185   0.921  14.506  10.397  0.1762 -0.0330 -0.2066
  643ERGO    R5 9186   1.089  14.368  10.382  0.0899 -0.1725  0.0774
  643ERGO    C1 9187   1.110  14.536  10.040  0.4730 -0.5775 -0.1075
  643ERGO    C2 9188   1.013  14.637   9.763  0.2654  0.0583  0.0497
  644ERGO   ROH 9189   9.080  13.078  10.791  0.0046 -0.0336 -0.0457
  644ERGO    R1 9190   9.041  13.219  10.548  0.2988  0.0379 -0.0544
  644ERGO    R2 9191   9.226  13.215  10.343  0.2599 -0.4355 -0.0904
  644ERGO    R3 9192   9.012  13.135  10.195  0.0269  0.0616 -0.0399
  644ERGO    R4 9193   9.205  13.234   9.998  0.0909 -0.1004 -0.0652
  644ERGO    R5 9194   8.998  13.297  10.019  0.2038  0.2463  0.1080
  644ERGO    C1 9195   8.991  13.170   9.660 -0.2262  0.5612 -0.0031
  644ERGO    C2 9196   9.137  13.141   9.369 -0.2023 -0.0594 -0.1660
  645ERGO   ROH 9197  12.754  15.894  10.982  0.2165 -0.0439 -0.0674
  645ERGO    R1 9198  12.951  15.891  10.779  0.1360  0.1081 -0.1451
  645ERGO    R2 9199  12.964  15.693  10.587  0.1705  0.1610 -0.1785
  645ERGO    R3 9200  12.955  15.903  10.415 -0.0065  0.1840 -0.1486
  645ERGO    R4 9201  13.040  15.675  10.250  0.1318  0.2421 -0.1943
  645ERGO    R5 9202  13.142  15.867  10.268  0.0069  0.3233 -0.1830
  645ERGO    C1 9203  13.076  15.863   9.893 -0.0570  0.3107 -0.1753
  645ERGO    C2 9204  13.168  15.905   9.550  0.2323 -0.2311 -0.2656
  646ERGO   ROH 9205   2.097   6.564  11.212 -0.0735 -0.2248  0.0828
  646ERGO    R1 9206   2.202   6.613  10.954 -0.0710 -0.1654  0.0946
  646ERGO    R2 9207   2.325   6.416  10.804 -0.0671 -0.1313  0.0506
  646ERGO    R3 9208   2.142   6.490  10.617 -0.0669 -0.0901  0.0667
  646ERGO    R4 9209   2.356   6.359  10.464 -0.1589 -0.2259  0.0576
  646ERGO    R5 9210   2.274   6.558  10.428 -0.0714 -0.1969  0.0259
  646ERGO    C1 9211   2.202   6.395  10.091 -0.2121 -0.2422  0.0770
  646ERGO    C2 9212   2.066   6.438   9.777 -0.0425 -0.0523 -0.1473
  647ERGO   ROH 9213   3.899   8.374  10.713 -0.3942  0.2061  0.1224
  647ERGO    R1 9214   3.904   8.186  10.501 -0.2725  0.0820  0.2328
  647ERGO    R2 9215   3.721   8.192  10.293 -0.1682 -0.0529  0.1379
  647ERGO    R3 9216   3.945   8.197  10.139 -0.0919 -0.1274  0.2442
  647ERGO    R4 9217   3.724   8.177   9.948 -0.0234  0.0960  0.1312
  647ERGO    R5 9218   3.898   8.046   9.960 -0.1093 -0.0219  0.1560
  647ERGO    C1 9219   3.936   8.173   9.603  0.1326  0.1128  0.2271
  647ERGO    C2 9220   4.054   8.161   9.270 -0.1620 -0.2219  0.2199
  648ERGO   ROH 9221   5.652   1.862  11.257 -0.2414  0.0126 -0.0375
  648ERGO    R1 9222   5.696   1.989  11.007 -0.0455 -0.1307 -0.0779
  648ERGO    R2 9223   5.776   1.850  10.782 -0.1783 -0.3133 -0.0135
  648ERGO    R3 9224   5.557   1.967  10.672 -0.0200 -0.0825 -0.0921
  648ERGO    R4 9225   5.736   1.919  10.445 -0.0715 -0.4687 -0.0592
  648ERGO    R5 9226   5.645   2.109  10.500  0.1812 -0.3053 -0.1795
  648ERGO    C1 9227   5.508   2.069  10.146  0.1393 -0.3426 -0.1595
  648ERGO    C2 9228   5.515   1.951   9.814  0.1452 -0.0758  0.1177
  649ERGO   ROH 9229   9.036   2.557  10.615  0.1759  0.1546  0.0424
  649ERGO    R1 9230   8.934   2.603  10.355  0.1042  0.1523  0.0692
  649ERGO    R2 9231   9.042   2.791  10.184  0.1169  0.0885  0.0010
  649ERGO    R3 9232   9.059   2.580  10.014 -0.0182  0.0534  0.0318
  649ERGO    R4 9233   8.979   2.806   9.844  0.0903  0.0640  0.0053
  649ERGO    R5 9234   8.878   2.613   9.860 -0.0128  0.1255  0.0455
  649ERGO    C1 9235   8.957   2.615   9.487 -0.0520  0.0168  0.0368
  649ERGO    C2 9236   9.023   2.792   9.159  0.3982 -0.1478  0.1701
  650ERGO   ROH 9237   1.837  16.478  11.336  0.1324  0.1817 -0.1367
  650ERGO    R1 9238   1.938  16.356  11.101  0.1284  0.0513 -0.0726
  650ERGO    R2 9239   1.784  16.192  10.940  0.1085  0.0029 -0.0103
  650ERGO    R3 9240   1.862  16.366  10.746  0.1570 -0.0999 -0.0820
  650ERGO    R4 9241   1.728  16.149  10.602  0.0259 -0.0742  0.0131
  650ERGO    R5 9242   1.928  16.226  10.564  0.0528 -0.1868 -0.0500
  650ERGO    C1 9243   1.769  16.287  10.222  0.0233 -0.2152 -0.0407
  650ERGO    C2 9244   1.795  16.325   9.849 -0.0359  0.1547 -0.3083
  651ERGO   ROH 9245   5.044  13.983  11.117 -0.0051 -0.1084 -0.0612
  651ERGO    R1 9246   4.961  14.067  10.860  0.0348 -0.1100 -0.0749
  651ERGO    R2 9247   5.125  14.212  10.690  0.0415 -0.0604 -0.0279
  651ERGO    R3 9248   5.067  14.011  10.516  0.1275 -0.0626 -0.0544
  651ERGO    R4 9249   5.144  14.237  10.346 -0.0026  0.0049 -0.0255
  651ERGO    R5 9250   4.960  14.121  10.332  0.0547 -0.0869 -0.0267
  651ERGO    C1 9251   5.100  14.063   9.982  0.0526  0.0409 -0.0488
  651ERGO    C2 9252   5.086  14.110   9.706  0.2810  0.0466  0.1566
  652ERGO   ROH 9253   9.738   1.926  10.591 -0.1315  0.0043  0.0178
  652ERGO    R1 9254   9.869   1.894  10.342 -0.0550  0.1334  0.0393
  652ERGO    R2 9255   9.790   1.705  10.155  0.1918  0.0174  0.0403
  652ERGO    R3 9256   9.777   1.921   9.990 -0.0398 -0.0061  0.0258
  652ERGO    R4 9257   9.764   1.691   9.811  0.2870 -0.0234  0.0351
  652ERGO    R5 9258   9.904   1.857   9.798  0.0807  0.1466  0.0583
  652ERGO    C1 9259   9.738   1.886   9.456  0.1250 -0.0693  0.0186
  652ERGO    C2 9260   9.748   2.049   9.178  0.0893 -0.1547 -0.1692
  653ERGO   ROH 9261   3.231  15.075  11.103  0.1800  0.0653  0.0389
  653ERGO    R1 9262   3.048  15.108  10.890  0.1079 -0.0965  0.0758
  653ERGO    R2 9263   3.044  15.333  10.729 -0.0736 -0.1338  0.0308
  653ERGO    R3 9264   3.067  15.151  10.529 -0.0077 -0.1603  0.0609
  653ERGO    R4 9265   2.993  15.400  10.394  0.3366 -0.0993 -0.0304
  653ERGO    R5 9266   2.892  15.208  10.376  0.1969 -0.0206 -0.1295
  653ERGO    C1 9267   2.985  15.268  10.011  0.6373 -0.1041 -0.0378
  653ERGO    C2 9268   2.990  15.309   9.658 -0.0507  0.1489 -0.1964
  654ERGO   ROH 9269  10.943   6.230  11.038  0.0846 -0.0819  0.0013
  654ERGO    R1 9270  10.836   6.261  10.777  0.0060 -0.1404  0.0254
  654ERGO    R2 9271  10.985   6.357  10.565 -0.1190  0.0335  0.0080
  654ERGO    R3 9272  10.903   6.127  10.446  0.0721 -0.0284 -0.0056
  654ERGO    R4 9273  10.993   6.297  10.225 -0.0185  0.0283  0.0114
  654ERGO    R5 9274  10.799   6.199  10.243  0.0546 -0.1133 -0.0227
  654ERGO    C1 9275  10.920   6.046   9.915  0.2194 -0.0328  0.0007
  654ERGO    C2 9276  10.926   6.126   9.617  0.0927 -0.0748  0.0159
  655ERGO   ROH 9277   0.005  15.509  11.196 -0.0381  0.2762 -0.0086
  655ERGO    R1 9278  -0.125  15.442  10.953  0.0474  0.0394  0.0082
  655ERGO    R2 9279  -0.173  15.627  10.754 -0.2657 -0.0546 -0.0127
  655ERGO    R3 9280  -0.041  15.446  10.599  0.0163  0.1327  0.0027
  655ERGO    R4 9281  -0.193  15.611  10.409 -0.6095 -0.3942  0.0160
  655ERGO    R5 9282  -0.197  15.394  10.424 -0.0559 -0.4032  0.2123
  655ERGO    C1 9283  -0.081  15.433  10.063 -0.5450 -0.4162  0.0471
  655ERGO    C2 9284  -0.123  15.571   9.776 -0.0127 -0.0257 -0.1125
  656ERGO   ROH 9285   3.504   7.246  10.755 -0.1012 -0.2866 -0.0435
  656ERGO    R1 9286   3.621   7.140  10.520  0.1941 -0.0202 -0.0235
  656ERGO    R2 9287   3.472   7.016  10.322  0.5021 -0.3047 -0.0856
  656ERGO    R3 9288   3.595   7.198  10.162  0.1829 -0.0253 -0.0237
  656ERGO    R4 9289   3.520   6.981   9.982  0.6126 -0.1311 -0.0896
  656ERGO    R5 9290   3.718   7.067  10.005  0.4556  0.2413 -0.0438
  656ERGO    C1 9291   3.662   7.131   9.633  0.3773  0.2323 -0.0338
  656ERGO    C2 9292   3.529   7.316   9.374 -0.0068 -0.2106  0.0374
  657ERGO   ROH 9293   8.779   5.089  10.857 -0.0763  0.0453  0.0546
  657ERGO    R1 9294   8.633   5.111  10.616  0.0215 -0.0160 -0.0114
  657ERGO    R2 9295   8.576   5.355  10.499 -0.0814 -0.0352 -0.0030
  657ERGO    R3 9296   8.693   5.241  10.281  0.0957  0.0703  0.0351
  657ERGO    R4 9297   8.476   5.405  10.172  0.0317 -0.0667 -0.0429
  657ERGO    R5 9298   8.510   5.193  10.134  0.1948 -0.0389 -0.0534
  657ERGO    C1 9299   8.527   5.328   9.777  0.2637  0.0139 -0.0305
  657ERGO    C2 9300   8.461   5.368   9.506 -0.0233 -0.0705 -0.0640
  658ERGO   ROH 9301  12.599   8.057  10.738 -0.1621 -0.0864 -0.1201
  658ERGO    R1 9302  12.728   8.038  10.487 -0.0827  0.0363 -0.0902
  658ERGO    R2 9303  12.714   7.811  10.330  0.1742  0.0181 -0.0936
  658ERGO    R3 9304  12.628   7.987  10.141  0.0467 -0.0656 -0.1132
  658ERGO    R4 9305  12.687   7.740   9.993  0.0231 -0.1049 -0.0559
  658ERGO    R5 9306  12.764   7.940   9.950 -0.0381 -0.1048 -0.1637
  658ERGO    C1 9307  12.590   7.863   9.619 -0.1846 -0.2552 -0.0524
  658ERGO    C2 9308  12.518   7.897   9.287 -0.0477  0.2125 -0.0185
  659ERGO   ROH 9309   9.740  16.321  10.703  0.0957 -0.3228  0.0075
  659ERGO    R1 9310   9.694  16.365  10.428  0.0329 -0.1665  0.0405
  659ERGO    R2 9311   9.878  16.492  10.264 -0.0111 -0.0441  0.0706
  659ERGO    R3 9312   9.850  16.267  10.114 -0.0150  0.0337 -0.0455
  659ERGO    R4 9313   9.901  16.480   9.920  0.0793  0.1052  0.0721
  659ERGO    R5 9314   9.734  16.340   9.918  0.0566  0.1429 -0.0417
  659ERGO    C1 9315   9.889  16.262   9.578  0.1282  0.2654 -0.0359
  659ERGO    C2 9316   9.783  16.172   9.231  0.3403 -0.0723 -0.0323
  660ERGO   ROH 9317  13.874   4.937  11.111 -0.0866 -0.0112 -0.1381
  660ERGO    R1 9318  13.877   5.049  10.851 -0.1545 -0.0566 -0.1580
  660ERGO    R2 9319  14.095   5.027  10.682 -0.1115  0.1121 -0.1218
  660ERGO    R3 9320  13.911   4.925  10.510  0.0053 -0.0898 -0.1315
  660ERGO    R4 9321  14.125   5.024  10.338  0.0104 -0.0602 -0.1120
  660ERGO    R5 9322  13.914   5.074  10.323 -0.0161 -0.1886 -0.2137
  660ERGO    C1 9323  13.970   4.927   9.976  0.1912 -0.3499 -0.1152
  660ERGO    C2 9324  14.044   4.893   9.627 -0.0813 -0.0431 -0.1609
  661ERGO   ROH 9325   6.895   3.406  11.087  0.1081 -0.3537 -0.1810
  661ERGO    R1 9326   6.762   3.314  10.854  0.0475 -0.3396 -0.1532
  661ERGO    R2 9327   6.693   3.483  10.646 -0.1440 -0.2975 -0.0621
  661ERGO    R3 9328   6.832   3.303  10.497 -0.1125 -0.1670 -0.1904
  661ERGO    R4 9329   6.658   3.440  10.305 -0.2355 -0.1632 -0.0699
  661ERGO    R5 9330   6.674   3.225  10.335 -0.1272 -0.1669 -0.1722
  661ERGO    C1 9331   6.769   3.247   9.966 -0.2592  0.0375 -0.1948
  661ERGO    C2 9332   6.805   3.231   9.641 -0.0295  0.2019 -0.0777
  662ERGO   ROH 9333  12.065  16.571  10.790 -0.0296  0.0108  0.0823
  662ERGO    R1 9334  12.136  16.468  10.536 -0.0820 -0.0634  0.0976
  662ERGO    R2 9335  12.011  16.547  10.303  0.0113  0.0251  0.0789
  662ERGO    R3 9336  12.265  16.602  10.223  0.0676 -0.1876  0.1040
  662ERGO    R4 9337  12.116  16.563   9.974 -0.0099  0.1978  0.0791
  662ERGO    R5 9338  12.300  16.461  10.033 -0.1127 -0.0630 -0.0265
  662ERGO    C1 9339  12.416  16.623   9.708  0.0307  0.0984  0.1028
  662ERGO    C2 9340  12.381  16.676   9.267 -0.0633  0.2159  0.0024
  663ERGO   ROH 9341  14.990   3.487   7.194  0.0791 -0.1008 -0.0457
  663ERGO    R1 9342  14.866   3.528   7.444  0.0750 -0.1028 -0.0488
  663ERGO    R2 9343  14.999   3.494   7.684  0.1473  0.1600 -0.0561
  663ERGO    R3 9344  14.913   3.747   7.731 -0.1140  0.0961 -0.1647
  663ERGO    R4 9345  14.946   3.628   7.998  0.3469  0.3335 -0.0934
  663ERGO    R5 9346  14.767   3.726   7.920  0.1252  0.0525  0.0273
  663ERGO    C1 9347  14.835   3.945   8.225  0.2180  0.3746 -0.2171
  663ERGO    C2 9348  14.946   3.812   8.608 -0.1475  0.0567  0.1582
  664ERGO   ROH 9349  11.877   3.713  11.004 -0.0480 -0.0735  0.0041
  664ERGO    R1 9350  11.882   3.806  10.737 -0.2537 -0.1467 -0.0266
  664ERGO    R2 9351  12.084   3.741  10.560 -0.1272  0.2031 -0.0168
  664ERGO    R3 9352  11.878   3.656  10.405  0.0254 -0.2675  0.0217
  664ERGO    R4 9353  12.088   3.734  10.215 -0.2689  0.4969 -0.0278
  664ERGO    R5 9354  11.882   3.804  10.216 -0.4880 -0.0897  0.1350
  664ERGO    C1 9355  11.897   3.650   9.868 -0.2082  0.2262  0.0020
  664ERGO    C2 9356  12.051   3.641   9.457  0.1344 -0.3049  0.2886
  665ERGO   ROH 9357   7.873  14.863  10.785  0.1991 -0.0783  0.0541
  665ERGO    R1 9358   7.931  14.715  10.550  0.3513  0.0234  0.0265
  665ERGO    R2 9359   7.762  14.710  10.332  0.1552 -0.4150  0.1785
  665ERGO    R3 9360   7.986  14.788  10.198 -0.1390  0.1137 -0.0388
  665ERGO    R4 9361   7.826  14.645   9.998  0.0907 -0.4884  0.1799
  665ERGO    R5 9362   8.034  14.605  10.051  0.2583  0.1212  0.0664
  665ERGO    C1 9363   8.073  14.680   9.679 -0.2230 -0.0349 -0.0234
  665ERGO    C2 9364   8.045  14.771   9.402  0.1863  0.0953  0.1389
  666ERGO   ROH 9365   6.442   7.969  10.833  0.0115  0.1266 -0.0490
  666ERGO    R1 9366   6.445   8.110  10.588  0.1814  0.1868 -0.0137
  666ERGO    R2 9367   6.674   8.137  10.435  0.2078 -0.0966 -0.0334
  666ERGO    R3 9368   6.516   8.033  10.240  0.0326  0.1710 -0.0410
  666ERGO    R4 9369   6.740   8.157  10.097  0.1699 -0.0743 -0.0392
  666ERGO    R5 9370   6.528   8.194  10.062  0.2085  0.2149  0.0095
  666ERGO    C1 9371   6.630   8.071   9.716 -0.0165  0.1899 -0.0498
  666ERGO    C2 9372   6.653   7.981   9.341 -0.3952  0.1430 -0.2833
  667ERGO   ROH 9373  12.059  16.055  10.818 -0.0818 -0.0545  0.0247
  667ERGO    R1 9374  12.053  15.961  10.551 -0.2178 -0.0052  0.0101
  667ERGO    R2 9375  11.927  16.100  10.348  0.0209  0.2371  0.0226
  667ERGO    R3 9376  12.169  16.078  10.227  0.0008 -0.1444  0.0363
  667ERGO    R4 9377  11.984  16.149  10.010  0.1335  0.2426  0.0420
  667ERGO    R5 9378  12.121  15.980  10.014 -0.1549  0.0005  0.0019
  667ERGO    C1 9379  12.245  16.159   9.701  0.1802 -0.1121  0.0660
  667ERGO    C2 9380  12.130  16.323   9.482 -0.0896  0.1240  0.2382
  668ERGO   ROH 9381  17.063   4.326  11.211 -0.0979  0.3626  0.0624
  668ERGO    R1 9382  17.184   4.255  10.966 -0.0182  0.2606  0.1326
  668ERGO    R2 9383  17.059   4.096  10.778 -0.0210  0.3286  0.0922
  668ERGO    R3 9384  17.114   4.304  10.612  0.2003  0.2688  0.0855
  668ERGO    R4 9385  17.082   4.073  10.434 -0.3610  0.3235  0.0647
  668ERGO    R5 9386  17.253   4.209  10.442 -0.1022  0.0369 -0.0535
  668ERGO    C1 9387  17.148   4.256  10.078 -0.3512  0.2644  0.0423
  668ERGO    C2 9388  17.133   4.192   9.718  0.2138 -0.0518 -0.0123
  669ERGO   ROH 9389  17.018   5.616  11.083 -0.0758  0.1123  0.0755
  669ERGO    R1 9390  16.882   5.554  10.842 -0.0571  0.1475  0.0559
  669ERGO    R2 9391  16.840   5.740  10.642  0.0898  0.1372  0.0166
  669ERGO    R3 9392  16.960   5.551  10.487  0.0203  0.0453  0.0729
  669ERGO    R4 9393  16.838   5.739  10.296  0.2073  0.1135  0.0154
  669ERGO    R5 9394  16.810   5.522  10.302  0.0627  0.1305  0.0233
  669ERGO    C1 9395  16.950   5.561   9.950  0.2103  0.0135  0.0675
  669ERGO    C2 9396  16.853   5.524   9.634  0.0838 -0.1870 -0.4813
  670ERGO   ROH 9397  10.543   1.755  10.813  0.1914 -0.0298  0.0847
  670ERGO    R1 9398  10.705   1.785  10.583  0.1568 -0.0679  0.0559
  670ERGO    R2 9399  10.748   1.579  10.404  0.0657 -0.0721  0.0435
  670ERGO    R3 9400  10.660   1.762  10.222  0.0859 -0.0433  0.0619
  670ERGO    R4 9401  10.792   1.554  10.062 -0.0226 -0.1005  0.0336
  670ERGO    R5 9402  10.834   1.768  10.057  0.0531 -0.1108  0.0203
  670ERGO    C1 9403  10.736   1.710   9.692 -0.0551 -0.0899  0.0452
  670ERGO    C2 9404  10.811   1.677   9.336 -0.2309 -0.0780  0.1015
  671ERGO   ROH 9405  11.352  15.376  10.510  0.0659 -0.0179  0.0711
  671ERGO    R1 9406  11.348  15.301  10.237  0.0436 -0.0235  0.0724
  671ERGO    R2 9407  11.282  15.477  10.034  0.0946 -0.0083  0.0665
  671ERGO    R3 9408  11.522  15.399   9.933  0.0724 -0.0808  0.0706
  671ERGO    R4 9409  11.355  15.451   9.698  0.1292  0.0842  0.0673
  671ERGO    R5 9410  11.465  15.269   9.741  0.0387  0.0177  0.0139
  671ERGO    C1 9411  11.623  15.363   9.406  0.1284  0.0701  0.0715
  671ERGO    C2 9412  11.753  15.558   9.205 -0.0920 -0.0615 -0.1667
  672ERGO   ROH 9413   6.118   4.043  11.303  0.1515  0.3136 -0.1008
  672ERGO    R1 9414   5.958   3.995  11.075  0.1765 -0.0141 -0.0525
  672ERGO    R2 9415   5.880   4.196  10.903 -0.2064 -0.1870 -0.0835
  672ERGO    R3 9416   5.993   4.036  10.715  0.0211 -0.0434 -0.0729
  672ERGO    R4 9417   5.814   4.212  10.564 -0.1211 -0.1969 -0.1011
  672ERGO    R5 9418   5.817   3.994  10.558  0.1060 -0.2000 -0.1343
  672ERGO    C1 9419   5.883   4.071  10.190  0.1420 -0.0679 -0.1015
  672ERGO    C2 9420   5.885   4.047   9.885  0.1652  0.1622 -0.0842
  673ERGO   ROH 9421   4.926  11.246  10.919 -0.0118 -0.1034  0.1577
  673ERGO    R1 9422   4.950  11.381  10.671  0.1971 -0.1939  0.1274
  673ERGO    R2 9423   5.035  11.254  10.441  0.0535 -0.3657  0.1699
  673ERGO    R3 9424   4.803  11.352  10.339  0.1941 -0.0755  0.1173
  673ERGO    R4 9425   4.987  11.346  10.111  0.2244 -0.3736  0.1415
  673ERGO    R5 9426   4.873  11.518  10.181  0.4417 -0.2000  0.0888
  673ERGO    C1 9427   4.741  11.491   9.824  0.4559 -0.1060  0.0756
  673ERGO    C2 9428   4.679  11.542   9.447 -0.1993  0.4103 -0.0589
  674ERGO   ROH 9429   3.577   6.233  11.169 -0.0601  0.0202  0.0267
  674ERGO    R1 9430   3.479   6.107  10.935 -0.0968 -0.0025  0.0523
  674ERGO    R2 9431   3.382   6.250  10.719 -0.0545 -0.0173  0.0142
  674ERGO    R3 9432   3.566   6.104  10.581 -0.0921 -0.1021  0.0562
  674ERGO    R4 9433   3.375   6.194  10.378 -0.0434 -0.0993  0.0284
  674ERGO    R5 9434   3.438   5.989  10.415 -0.1080 -0.1025  0.0766
  674ERGO    C1 9435   3.544   6.024  10.050 -0.0724 -0.2267  0.0760
  674ERGO    C2 9436   3.552   6.059   9.747  0.2677  0.3273  0.1465
  675loPI    C1 9437   4.546   1.537   6.462 -0.0612 -0.1487  0.2432
  675loPI    C2 9438   4.455   1.491   6.075  0.2714 -0.0568  0.1512
  675loPI    C3 9439   4.222   1.717   6.310 -0.0171 -0.2368  0.0427
  675loPI   PO4 9440   4.622   1.347   6.537 -0.1705  0.1554  0.0324
  675loPI   GL1 9441   4.477   1.160   6.922 -0.1004 -0.0812 -0.0215
  675loPI   GL2 9442   4.781   1.013   6.929 -0.1217 -0.2925  0.0389
  675loPI   C1A 9443   4.244   1.288   7.303 -0.0507 -0.0562 -0.1339
  675loPI   C2A 9444   4.233   1.249   7.761 -0.0403 -0.2679 -0.0873
  675loPI   C3A 9445   4.213   1.276   8.090 -0.1178 -0.1875  0.3327
  675loPI   C4A 9446   4.159   1.251   8.511  0.1443 -0.0982 -0.2234
  675loPI   C5A 9447   4.223   1.425   8.929  0.0091  0.0276 -0.1882
  675loPI   C6A 9448   4.041   1.682   9.191  0.0820 -0.0479  0.0849
  675loPI   C1B 9449   4.712   1.162   7.360 -0.1068  0.0422 -0.0591
  675loPI   C2B 9450   4.684   1.130   7.827 -0.3143  0.0054  0.0857
  675loPI   C3B 9451   4.671   1.275   8.301 -0.1484 -0.0558  0.2625
  675loPI   C4B 9452   4.651   1.269   8.723 -0.0450 -0.0429 -0.2029
  676loPI    C1 9453   6.063   8.758   5.857  0.1902  0.1531 -0.0448
  676loPI    C2 9454   6.188   8.435   5.657  0.0247  0.1312 -0.1152
  676loPI    C3 9455   5.997   8.728   5.464 -0.5422 -0.0952  0.0797
  676loPI   PO4 9456   5.978   8.586   6.056  0.1591 -0.0941  0.0761
  676loPI   GL1 9457   5.804   8.682   6.578 -0.0878  0.1484 -0.0439
  676loPI   GL2 9458   5.461   8.836   6.554  0.1200  0.1600 -0.0639
  676loPI   C1A 9459   5.864   8.900   7.034  0.1405  0.1093 -0.0183
  676loPI   C2A 9460   5.651   8.932   7.468  0.0112  0.1789 -0.0266
  676loPI   C3A 9461   5.726   8.927   7.909  0.1219  0.2235  0.2085
  676loPI   C4A 9462   5.951   8.904   8.314 -0.0856 -0.0095 -0.1977
  676loPI   C5A 9463   6.053   9.146   8.687  0.3110 -0.0241 -0.4209
  676loPI   C6A 9464   6.302   9.434   8.671  0.1285 -0.1543 -0.1202
  676loPI   C1B 9465   5.244   8.887   6.961 -0.0290 -0.0178 -0.0770
  676loPI   C2B 9466   5.157   8.940   7.362  0.0466  0.2775 -0.0562
  676loPI   C3B 9467   5.194   9.015   7.748  0.1073 -0.3751 -0.2440
  676loPI   C4B 9468   5.169   8.919   8.194 -0.0401 -0.2731  0.1061
  677loPI    C1 9469  12.762  11.589   6.237 -0.1279  0.2370 -0.0654
  677loPI    C2 9470  12.698  11.397   6.582  0.1155 -0.0692 -0.1854
  677loPI    C3 9471  12.390  11.548   6.377 -0.0641 -0.1866 -0.0061
  677loPI   PO4 9472  13.024  11.731   6.318 -0.1172 -0.0003 -0.0519
  677loPI   GL1 9473  13.209  11.766   6.699 -0.0475  0.1809  0.4008
  677loPI   GL2 9474  13.222  11.412   6.713 -0.2418  0.1478  0.0545
  677loPI   C1A 9475  13.326  11.927   7.108  0.2471 -0.2524  0.3151
  677loPI   C2A 9476  13.366  11.914   7.546 -0.0706 -0.0298 -0.1123
  677loPI   C3A 9477  13.236  11.909   7.943 -0.0527  0.2530  0.1650
  677loPI   C4A 9478  13.212  11.930   8.345  0.0800  0.1533 -0.0928
  677loPI   C5A 9479  13.463  11.916   8.640 -0.1514  0.0324  0.0166
  677loPI   C6A 9480  13.822  11.865   8.850  0.0429 -0.1136 -0.2231
  677loPI   C1B 9481  13.227  11.431   7.240 -0.0332  0.3476  0.2209
  677loPI   C2B 9482  13.133  11.477   7.701  0.2930  0.0385 -0.2201
  677loPI   C3B 9483  12.949  11.429   8.110 -0.0620  0.1223 -0.2026
  677loPI   C4B 9484  12.762  11.626   8.503  0.2393  0.2620  0.1271
  678loPI    C1 9485  16.029  15.692   6.188 -0.0376  0.1167 -0.1601
  678loPI    C2 9486  16.188  15.330   6.124  0.0198  0.1004  0.0658
  678loPI    C3 9487  15.876  15.453   5.905 -0.0262 -0.1019  0.0156
  678loPI   PO4 9488  16.329  15.692   6.406 -0.0301 -0.0987  0.2968
  678loPI   GL1 9489  16.481  15.678   6.804 -0.1174 -0.0379 -0.1403
  678loPI   GL2 9490  16.743  15.493   6.687 -0.2779 -0.0200 -0.4030
  678loPI   C1A 9491  16.683  15.722   7.225 -0.1669  0.1132  0.1078
  678loPI   C2A 9492  16.737  15.653   7.713  0.0474 -0.0940 -0.0342
  678loPI   C3A 9493  16.690  15.533   8.136  0.0784 -0.0527  0.1853
  678loPI   C4A 9494  16.647  15.477   8.497  0.0585 -0.3513  0.0091
  678loPI   C5A 9495  16.715  15.615   8.903 -0.1410  0.0563 -0.1179
  678loPI   C6A 9496  16.713  15.535   9.251  0.1708 -0.0821 -0.3468
  678loPI   C1B 9497  17.037  15.356   7.052  0.1569  0.2469  0.2310
  678loPI   C2B 9498  17.000  15.330   7.490 -0.2479  0.0105  0.2018
  678loPI   C3B 9499  17.031  15.149   7.858  0.0268  0.0734  0.3020
  678loPI   C4B 9500  17.049  15.080   8.257 -0.0809 -0.0424 -0.2558
  679loPI    C1 9501   7.690   4.617   5.777  0.1221  0.1039 -0.1533
  679loPI    C2 9502   7.641   4.328   5.504  0.1059  0.0622 -0.1065
  679loPI    C3 9503   7.634   4.713   5.393 -0.0442  0.0493 -0.1432
  679loPI   PO4 9504   7.724   4.402   6.053  0.0349  0.1179 -0.0428
  679loPI   GL1 9505   7.596   4.371   6.418  0.1606 -0.0061  0.0505
  679loPI   GL2 9506   7.858   4.537   6.561 -0.1133  0.1070 -0.0858
  679loPI   C1A 9507   7.510   4.379   6.891  0.0979 -0.1424 -0.2137
  679loPI   C2A 9508   7.633   4.395   7.274 -0.0484  0.1126 -0.1389
  679loPI   C3A 9509   7.443   4.448   7.676  0.0415 -0.0241  0.0051
  679loPI   C4A 9510   7.437   4.481   8.052 -0.1228 -0.0212 -0.2910
  679loPI   C5A 9511   7.532   4.383   8.455  0.3418 -0.0605  0.0687
  679loPI   C6A 9512   7.609   4.251   8.853 -0.0282 -0.1042  0.0998
  679loPI   C1B 9513   8.034   4.317   6.978 -0.2024 -0.3878 -0.4790
  679loPI   C2B 9514   8.099   4.464   7.332 -0.0867 -0.0383 -0.1383
  679loPI   C3B 9515   7.939   4.460   7.756  0.0536  0.0823 -0.1917
  679loPI   C4B 9516   7.979   4.515   8.206 -0.0611 -0.0843 -0.1303
  680loPI    C1 9517  16.038  17.113   6.218  0.1182  0.1464  0.0291
  680loPI    C2 9518  15.827  16.901   5.952  0.1655 -0.0412  0.1398
  680loPI    C3 9519  16.058  17.204   5.828  0.0205  0.0101 -0.0084
  680loPI   PO4 9520  15.885  17.122   6.418 -0.1170  0.2538  0.0330
  680loPI   GL1 9521  15.944  17.155   6.839  0.1297  0.1829  0.0044
  680loPI   GL2 9522  16.182  17.021   7.119  0.1752  0.0264 -0.0986
  680loPI   C1A 9523  15.717  16.919   7.258 -0.1558  0.3116  0.1626
  680loPI   C2A 9524  15.791  16.894   7.782  0.2712  0.2256  0.0048
  680loPI   C3A 9525  15.696  16.793   8.220  0.1983  0.4068 -0.2406
  680loPI   C4A 9526  15.663  16.631   8.636 -0.0586 -0.0522  0.0353
  680loPI   C5A 9527  15.454  16.283   8.897  0.0983  0.0385  0.0853
  680loPI   C6A 9528  15.141  16.429   9.333 -0.0940 -0.0076  0.0001
  680loPI   C1B 9529  16.367  16.974   7.511  0.3546  0.1521  0.0358
  680loPI   C2B 9530  16.311  16.911   7.891 -0.0362 -0.2742  0.0628
  680loPI   C3B 9531  16.238  16.884   8.229 -0.1570  0.0271 -0.1029
  680loPI   C4B 9532  16.221  16.770   8.645 -0.2043  0.1444 -0.0951
  681loPI    C1 9533   1.067  15.933   6.020 -0.0260  0.1040  0.0946
  681loPI    C2 9534   1.268  16.278   6.002  0.1468 -0.0076 -0.1821
  681loPI    C3 9535   0.908  16.248   5.831  0.2213 -0.0219 -0.3386
  681loPI   PO4 9536   0.982  15.868   6.309 -0.0407 -0.1045 -0.0314
  681loPI   GL1 9537   0.926  15.919   6.678 -0.0196  0.0886 -0.0445
  681loPI   GL2 9538   0.716  15.845   6.845  0.0154  0.1915 -0.1125
  681loPI   C1A 9539   1.077  15.965   7.109 -0.0185  0.1149 -0.1627
  681loPI   C2A 9540   1.068  15.932   7.520  0.0714 -0.3287 -0.2323
  681loPI   C3A 9541   1.102  15.748   7.931 -0.1281 -0.2761  0.4176
  681loPI   C4A 9542   1.090  15.647   8.383 -0.1763 -0.1245  0.1881
  681loPI   C5A 9543   0.868  15.799   8.696 -0.1532 -0.0035  0.1783
  681loPI   C6A 9544   0.984  15.997   9.066 -0.1359 -0.0098  0.0910
  681loPI   C1B 9545   0.595  15.803   7.312  0.3189 -0.2085 -0.4790
  681loPI   C2B 9546   0.607  15.772   7.754 -0.1483  0.0563 -0.0100
  681loPI   C3B 9547   0.509  15.659   8.243  0.1975  0.1546  0.2893
  681loPI   C4B 9548   0.468  15.529   8.568  0.0077  0.0547  0.1973
  682loPI    C1 9549  16.641   9.840   5.701 -0.0003 -0.0670 -0.1499
  682loPI    C2 9550  16.374   9.886   5.407 -0.0560 -0.0897 -0.1029
  682loPI    C3 9551  16.586   9.548   5.433  0.1088  0.0011 -0.2474
  682loPI   PO4 9552  16.542   9.909   5.882 -0.1609 -0.1948 -0.2660
  682loPI   GL1 9553  16.536  10.139   6.272  0.1975 -0.1291  0.0652
  682loPI   GL2 9554  16.208  10.365   6.464  0.1606 -0.1835  0.0932
  682loPI   C1A 9555  16.424   9.962   6.752 -0.0909 -0.2510 -0.2260
  682loPI   C2A 9556  16.464   9.980   7.235  0.1654 -0.1830  0.1833
  682loPI   C3A 9557  16.366   9.980   7.658 -0.1860 -0.0089 -0.1245
  682loPI   C4A 9558  16.448  10.069   8.099 -0.0129  0.1427 -0.1042
  682loPI   C5A 9559  16.295  10.212   8.554  0.2532 -0.1390  0.2813
  682loPI   C6A 9560  16.479  10.412   8.858  0.0957  0.0936 -0.0289
  682loPI   C1B 9561  16.117  10.438   6.947  0.3080 -0.0224  0.0908
  682loPI   C2B 9562  16.210  10.447   7.455 -0.0932 -0.1538 -0.0957
  682loPI   C3B 9563  16.116  10.549   7.830 -0.0014  0.0569 -0.1059
  682loPI   C4B 9564  16.090  10.524   8.183 -0.1620 -0.0203 -0.0608
  683loPI    C1 9565  16.308  16.666   6.280 -0.0727  0.0537 -0.0174
  683loPI    C2 9566  16.518  16.984   6.157  0.4663 -0.1918  0.2365
  683loPI    C3 9567  16.356  16.735   5.889  0.0232  0.2947  0.0353
  683loPI   PO4 9568  16.292  16.731   6.558  0.2128  0.2695  0.1854
  683loPI   GL1 9569  16.400  16.610   6.923  0.1624 -0.1358 -0.0140
  683loPI   GL2 9570  16.637  16.615   7.191  0.1449  0.1512 -0.4281
  683loPI   C1A 9571  16.419  16.163   7.085  0.0498  0.0780 -0.0715
  683loPI   C2A 9572  16.379  16.025   7.567 -0.0704 -0.1420 -0.1509
  683loPI   C3A 9573  16.343  16.095   7.940  0.0993  0.0421 -0.0369
  683loPI   C4A 9574  16.334  15.860   8.331 -0.0100  0.1452 -0.1725
  683loPI   C5A 9575  16.227  15.664   8.698  0.1649 -0.1586 -0.3590
  683loPI   C6A 9576  16.205  15.752   9.080 -0.4728  0.0301 -0.1090
  683loPI   C1B 9577  16.665  16.450   7.491  0.1293  0.2159  0.0200
  683loPI   C2B 9578  16.614  16.520   7.975  0.0456  0.1828 -0.2115
  683loPI   C3B 9579  16.564  16.467   8.288  0.0981 -0.1753  0.1715
  683loPI   C4B 9580  16.378  16.264   8.737  0.2869 -0.1171 -0.0945
  684loPI    C1 9581  16.303   8.332   6.071 -0.0334  0.0069  0.1723
  684loPI    C2 9582  16.035   8.464   5.805  0.2803  0.2271 -0.0410
  684loPI    C3 9583  16.129   8.075   5.818  0.0542  0.1705 -0.0576
  684loPI   PO4 9584  16.205   8.416   6.320 -0.0309 -0.2695  0.2469
  684loPI   GL1 9585  16.418   8.582   6.683  0.1129 -0.0466 -0.2758
  684loPI   GL2 9586  16.426   8.204   6.767  0.2697 -0.3092  0.2586
  684loPI   C1A 9587  16.331   8.591   7.250  0.1510 -0.2020 -0.2524
  684loPI   C2A 9588  16.405   8.681   7.704 -0.1113  0.1757  0.1747
  684loPI   C3A 9589  16.688   8.717   8.082  0.0716 -0.0532 -0.1733
  684loPI   C4A 9590  16.868   8.930   8.521 -0.1500 -0.1334 -0.0232
  684loPI   C5A 9591  16.511   8.974   8.874 -0.2094 -0.0891  0.0591
  684loPI   C6A 9592  16.621   9.314   9.141 -0.1302  0.5059  0.2112
  684loPI   C1B 9593  16.606   8.186   7.112 -0.1020  0.0018  0.1461
  684loPI   C2B 9594  16.578   8.268   7.521 -0.1246  0.1714  0.1179
  684loPI   C3B 9595  16.740   8.240   7.964 -0.3368 -0.2268 -0.1658
  684loPI   C4B 9596  17.017   8.331   8.260 -0.2973  0.0937 -0.2073
  685loPI    C1 9597  17.083  17.112   6.494  0.1526  0.1400 -0.1915
  685loPI    C2 9598  17.307  17.049   6.169 -0.1187 -0.0946 -0.3385
  685loPI    C3 9599  16.968  16.844   6.221 -0.1497  0.0402  0.0276
  685loPI   PO4 9600  17.286  17.229   6.643 -0.2734 -0.1640  0.1190
  685loPI   GL1 9601  17.623  17.336   6.984  0.2145 -0.1887 -0.2365
  685loPI   GL2 9602  17.936  17.194   6.949 -0.0932  0.0508 -0.2577
  685loPI   C1A 9603  17.452  17.518   7.381  0.0480 -0.0804  0.0471
  685loPI   C2A 9604  17.407  17.593   7.798 -0.0496 -0.0095 -0.0347
  685loPI   C3A 9605  17.446  17.626   8.300  0.0355  0.3021  0.0195
  685loPI   C4A 9606  17.381  17.663   8.735  0.0690  0.0870  0.0375
  685loPI   C5A 9607  17.186  17.559   9.158 -0.4217 -0.2321 -0.3020
  685loPI   C6A 9608  16.880  17.840   9.249  0.0046 -0.3226 -0.2809
  685loPI   C1B 9609  17.839  17.188   7.445  0.2552 -0.0682  0.2039
  685loPI   C2B 9610  17.903  17.083   7.863 -0.4836 -0.0178  0.0382
  685loPI   C3B 9611  17.770  17.152   8.317  0.1164  0.0023  0.3148
  685loPI   C4B 9612  17.832  17.305   8.688 -0.1610  0.2663 -0.0373
  686loPI    C1 9613   5.674   4.841   6.046 -0.0595 -0.1038 -0.1488
  686loPI    C2 9614   5.842   4.583   5.790  0.2073 -0.2738  0.1907
  686loPI    C3 9615   6.045   4.905   5.912 -0.0417 -0.0164 -0.0581
  686loPI   PO4 9616   5.573   4.723   6.219  0.2696 -0.1341  0.0563
  686loPI   GL1 9617   5.524   4.485   6.595 -0.0895  0.1165 -0.0909
  686loPI   GL2 9618   5.571   4.790   6.708  0.0840 -0.0843  0.4847
  686loPI   C1A 9619   5.347   4.404   6.946  0.0191  0.0275 -0.2702
  686loPI   C2A 9620   5.376   4.363   7.338  0.0302  0.0078  0.1118
  686loPI   C3A 9621   5.482   4.407   7.802  0.3708  0.0591  0.1533
  686loPI   C4A 9622   5.423   4.489   8.140 -0.2258  0.1258  0.1163
  686loPI   C5A 9623   5.335   4.514   8.525 -0.0421  0.1778 -0.1367
  686loPI   C6A 9624   5.378   4.103   8.810  0.2138 -0.0255  0.1249
  686loPI   C1B 9625   5.568   4.834   7.145 -0.0004  0.1422 -0.0168
  686loPI   C2B 9626   5.687   4.839   7.541 -0.1715  0.1627  0.1329
  686loPI   C3B 9627   5.600   4.923   8.026  0.1504 -0.0637 -0.0406
  686loPI   C4B 9628   5.544   4.954   8.535 -0.1071 -0.3538 -0.0327
  687loPI    C1 9629  10.608  14.852   5.906 -0.1806  0.1309  0.0505
  687loPI    C2 9630  10.654  15.231   5.787  0.0787  0.1369  0.1641
  687loPI    C3 9631  10.593  14.943   5.517 -0.1084  0.2568  0.0766
  687loPI   PO4 9632  10.748  14.692   6.031 -0.0138  0.0933 -0.1235
  687loPI   GL1 9633  10.892  14.525   6.393  0.2205  0.3897 -0.2738
  687loPI   GL2 9634  10.496  14.739   6.479  0.0999 -0.2452 -0.0821
  687loPI   C1A 9635  10.747  14.363   6.823 -0.0724  0.2002 -0.0062
  687loPI   C2A 9636  10.809  14.245   7.188 -0.4516 -0.0308 -0.1868
  687loPI   C3A 9637  10.842  14.209   7.589 -0.1156  0.1624  0.0009
  687loPI   C4A 9638  10.868  14.242   7.992  0.1735  0.6062 -0.3787
  687loPI   C5A 9639  10.996  14.289   8.434  0.2615 -0.1092  0.1739
  687loPI   C6A 9640  11.317  14.419   8.676  0.3776  0.0181  0.2314
  687loPI   C1B 9641  10.456  14.786   6.924  0.0138  0.0253  0.2499
  687loPI   C2B 9642  10.442  14.775   7.324  0.0873 -0.1749  0.1202
  687loPI   C3B 9643  10.573  14.676   7.775  0.3786  0.0196  0.4149
  687loPI   C4B 9644  10.581  14.593   8.191  0.0626  0.2164  0.0940
  688loPI    C1 9645  10.652   6.668   5.951 -0.0159  0.1373  0.0669
  688loPI    C2 9646  10.733   7.009   5.758  0.2232 -0.0020 -0.0846
  688loPI    C3 9647  10.729   6.663   5.558  0.1683 -0.1116  0.1041
  688loPI   PO4 9648  10.748   6.659   6.171  0.1772 -0.0206 -0.1085
  688loPI   GL1 9649  10.861   6.663   6.599  0.1069  0.0315  0.0367
  688loPI   GL2 9650  10.613   6.346   6.706 -0.3252 -0.2164  0.1510
  688loPI   C1A 9651  10.854   6.765   6.994 -0.0878  0.0251 -0.0177
  688loPI   C2A 9652  10.825   6.801   7.459  0.2477  0.1847  0.2983
  688loPI   C3A 9653  10.908   6.846   7.852 -0.0020  0.0560 -0.0705
  688loPI   C4A 9654  10.906   6.734   8.346 -0.1475 -0.3098 -0.0005
  688loPI   C5A 9655  11.001   6.316   8.660  0.0274 -0.0115 -0.2633
  688loPI   C6A 9656  10.942   6.035   9.000 -0.1104  0.1034  0.0192
  688loPI   C1B 9657  10.536   6.332   7.172  0.0203  0.2318  0.1323
  688loPI   C2B 9658  10.502   6.352   7.637  0.0639  0.0205 -0.0905
  688loPI   C3B 9659  10.467   6.311   8.083  0.0194 -0.0275 -0.2259
  688loPI   C4B 9660  10.476   6.186   8.560  0.0856  0.2215  0.1118
  689loPI    C1 9661  15.442  10.362   5.864 -0.0136 -0.1141 -0.1118
  689loPI    C2 9662  15.405  10.275   5.475  0.1394 -0.1806 -0.1124
  689loPI    C3 9663  15.768  10.327   5.634  0.0766 -0.1410  0.0192
  689loPI   PO4 9664  15.380  10.164   6.033  0.2180 -0.0411 -0.0438
  689loPI   GL1 9665  15.605  10.142   6.478 -0.1148  0.0128  0.1256
  689loPI   GL2 9666  15.346   9.892   6.429  0.0983 -0.0890 -0.2857
  689loPI   C1A 9667  15.827   9.947   6.874  0.0950  0.0519  0.2255
  689loPI   C2A 9668  15.951   9.994   7.385 -0.0921  0.0171  0.2075
  689loPI   C3A 9669  15.946  10.094   7.936 -0.0122 -0.0362 -0.1289
  689loPI   C4A 9670  15.924  10.005   8.370  0.0613 -0.0235  0.0563
  689loPI   C5A 9671  15.900   9.819   8.683 -0.2612 -0.2336 -0.1311
  689loPI   C6A 9672  15.702   9.895   9.164 -0.0083 -0.1014  0.0603
  689loPI   C1B 9673  15.362   9.767   6.812  0.2124  0.0862 -0.1244
  689loPI   C2B 9674  15.398   9.765   7.266 -0.0891 -0.0493  0.1338
  689loPI   C3B 9675  15.380   9.946   7.728 -0.2435 -0.0210 -0.2632
  689loPI   C4B 9676  15.311   9.990   8.214 -0.0252  0.1225 -0.0391
  690loPI    C1 9677   5.606   1.902   6.020  0.1071  0.0427  0.0291
  690loPI    C2 9678   5.328   2.139   5.858 -0.0110 -0.0066  0.1573
  690loPI    C3 9679   5.587   1.944   5.623 -0.1668 -0.0610  0.0292
  690loPI   PO4 9680   5.699   2.017   6.232  0.0561  0.0077 -0.0954
  690loPI   GL1 9681   5.542   2.112   6.672 -0.1498 -0.1163  0.2529
  690loPI   GL2 9682   5.437   2.453   6.848  0.1386  0.1657  0.0859
  690loPI   C1A 9683   5.744   2.152   7.065  0.0159 -0.3185 -0.0449
  690loPI   C2A 9684   5.765   2.163   7.514 -0.0882 -0.0287 -0.1045
  690loPI   C3A 9685   5.728   2.204   7.919  0.0180 -0.0627 -0.0363
  690loPI   C4A 9686   5.641   2.097   8.269  0.0477 -0.6286  0.1768
  690loPI   C5A 9687   5.473   2.048   8.698 -0.1601  0.0978  0.1114
  690loPI   C6A 9688   5.092   2.031   8.827 -0.1590  0.0402  0.1220
  690loPI   C1B 9689   5.480   2.591   7.159 -0.3151  0.0281  0.2053
  690loPI   C2B 9690   5.516   2.593   7.616  0.1584 -0.0511 -0.1570
  690loPI   C3B 9691   5.388   2.537   8.093 -0.0386  0.0947 -0.0171
  690loPI   C4B 9692   5.388   2.492   8.529 -0.2894 -0.0798 -0.0748
  691loPI    C1 9693   8.013  10.964   5.774 -0.1692 -0.0314  0.0112
  691loPI    C2 9694   7.628  10.962   5.666 -0.1395 -0.2877 -0.0970
  691loPI    C3 9695   7.881  11.220   5.496 -0.2794 -0.0558  0.0405
  691loPI   PO4 9696   8.003  10.979   6.079  0.1198  0.0346 -0.0587
  691loPI   GL1 9697   7.925  11.115   6.473  0.1887  0.0400  0.0002
  691loPI   GL2 9698   7.853  10.799   6.486 -0.1492 -0.0815 -0.0293
  691loPI   C1A 9699   8.014  11.241   6.886 -0.2427  0.2174  0.0429
  691loPI   C2A 9700   8.064  11.254   7.328 -0.2224 -0.3195  0.1718
  691loPI   C3A 9701   7.998  11.314   7.794 -0.2936  0.0804  0.0165
  691loPI   C4A 9702   8.112  11.222   8.195 -0.0279 -0.2427 -0.1274
  691loPI   C5A 9703   8.139  11.375   8.646 -0.1220 -0.0002  0.0406
  691loPI   C6A 9704   8.217  11.414   9.020  0.0385 -0.1543 -0.0207
  691loPI   C1B 9705   7.875  10.757   7.043 -0.2033  0.0300  0.1451
  691loPI   C2B 9706   7.947  10.766   7.448 -0.1149 -0.1562  0.2128
  691loPI   C3B 9707   7.838  10.799   7.874 -0.0266  0.0624 -0.0002
  691loPI   C4B 9708   7.881  10.680   8.198 -0.2768  0.0637  0.0368
  692loPI    C1 9709  11.786  13.458   5.718  0.1054 -0.0495 -0.0592
  692loPI    C2 9710  11.406  13.336   5.737  0.0916  0.0094  0.0495
  692loPI    C3 9711  11.553  13.481   5.394  0.0119 -0.0002  0.0112
  692loPI   PO4 9712  11.807  13.631   5.840 -0.4026 -0.2651  0.4345
  692loPI   GL1 9713  11.792  13.746   6.300 -0.2392  0.1834 -0.0548
  692loPI   GL2 9714  11.625  13.483   6.353 -0.1803 -0.3006 -0.3590
  692loPI   C1A 9715  11.552  13.941   6.551  0.1774  0.0810 -0.3357
  692loPI   C2A 9716  11.621  13.873   7.021 -0.0225  0.5868 -0.1659
  692loPI   C3A 9717  11.672  13.891   7.434 -0.1371  0.3246 -0.1247
  692loPI   C4A 9718  11.618  13.952   7.844 -0.0663  0.1516 -0.1455
  692loPI   C5A 9719  11.727  14.065   8.258  0.0604 -0.2244  0.1450
  692loPI   C6A 9720  11.755  14.177   8.763 -0.1944 -0.1873 -0.0837
  692loPI   C1B 9721  11.421  13.489   6.747 -0.1144 -0.1341 -0.1624
  692loPI   C2B 9722  11.427  13.403   7.265 -0.0401 -0.0448 -0.4410
  692loPI   C3B 9723  11.436  13.408   7.697  0.1643  0.1637  0.2281
  692loPI   C4B 9724  11.490  13.448   8.114  0.0803  0.2110  0.1944
  693loPI    C1 9725  15.655   2.630   6.535 -0.1136 -0.0786  0.1453
  693loPI    C2 9726  15.788   2.831   6.215 -0.0439 -0.1141  0.1517
  693loPI    C3 9727  15.923   2.462   6.290 -0.0509 -0.1013  0.2289
  693loPI   PO4 9728  15.671   2.789   6.832 -0.0438 -0.2178 -0.0655
  693loPI   GL1 9729  15.684   3.081   7.128 -0.1634 -0.1335  0.0899
  693loPI   GL2 9730  15.319   3.101   7.012  0.3145  0.2324 -0.0238
  693loPI   C1A 9731  15.751   3.151   7.513 -0.1865  0.0626 -0.0228
  693loPI   C2A 9732  15.904   3.214   7.811 -0.1083 -0.1160 -0.0378
  693loPI   C3A 9733  16.059   2.999   8.110  0.0587  0.1721 -0.1151
  693loPI   C4A 9734  15.994   2.886   8.510 -0.0461  0.0624 -0.0461
  693loPI   C5A 9735  16.031   2.834   8.952 -0.1179  0.3548  0.2864
  693loPI   C6A 9736  16.229   2.962   9.329  0.1100  0.0734  0.0342
  693loPI   C1B 9737  15.394   3.430   7.421  0.1121 -0.0865 -0.0730
  693loPI   C2B 9738  15.434   3.390   7.892 -0.1252  0.2200  0.0276
  693loPI   C3B 9739  15.678   3.276   8.259 -0.1907 -0.0045  0.1410
  693loPI   C4B 9740  15.612   3.161   8.762 -0.2223  0.0454 -0.2487
  694loPI    C1 9741   5.900   3.408   6.099  0.1149 -0.1154  0.1349
  694loPI    C2 9742   5.798   3.155   5.806  0.1249 -0.0619  0.0850
  694loPI    C3 9743   5.762   3.550   5.751  0.1941 -0.0490  0.1301
  694loPI   PO4 9744   5.874   3.331   6.294  0.0610 -0.0362 -0.0561
  694loPI   GL1 9745   5.935   2.911   6.600 -0.1738 -0.0898  0.0084
  694loPI   GL2 9746   5.671   2.915   6.801 -0.0436  0.1958 -0.1385
  694loPI   C1A 9747   6.135   3.055   7.044 -0.2695 -0.2329 -0.0120
  694loPI   C2A 9748   6.248   3.068   7.530  0.0492  0.1381 -0.0469
  694loPI   C3A 9749   6.195   3.050   7.965 -0.0704 -0.0203 -0.3251
  694loPI   C4A 9750   6.346   3.087   8.359  0.3813 -0.0749 -0.1977
  694loPI   C5A 9751   6.675   3.134   8.676 -0.1897 -0.3380 -0.1274
  694loPI   C6A 9752   6.598   3.293   9.183  0.0055 -0.3196 -0.0509
  694loPI   C1B 9753   5.710   3.110   7.165  0.0344 -0.1231  0.2791
  694loPI   C2B 9754   5.758   3.011   7.480 -0.0135  0.0570  0.0118
  694loPI   C3B 9755   5.666   3.019   7.933  0.0105 -0.1574 -0.0236
  694loPI   C4B 9756   5.684   3.014   8.386 -0.0691  0.1207 -0.2667
  695loPI    C1 9757   3.644   1.658   6.350  0.0790  0.2487 -0.1881
  695loPI    C2 9758   3.678   1.783   5.972  0.0716 -0.0238 -0.2810
  695loPI    C3 9759   3.317   1.707   6.125  0.0876 -0.1080 -0.2845
  695loPI   PO4 9760   3.819   1.773   6.594 -0.0412 -0.1655 -0.2301
  695loPI   GL1 9761   4.058   2.016   6.701  0.0580 -0.1888 -0.1541
  695loPI   GL2 9762   4.305   1.832   6.795 -0.0174  0.0686 -0.0206
  695loPI   C1A 9763   4.073   2.205   7.217 -0.2204  0.0987  0.2807
  695loPI   C2A 9764   4.013   2.210   7.649  0.3410  0.1612  0.3400
  695loPI   C3A 9765   4.227   2.165   8.022  0.0063 -0.0422 -0.0068
  695loPI   C4A 9766   4.145   2.079   8.459 -0.1312 -0.3171  0.0885
  695loPI   C5A 9767   4.097   2.188   8.954  0.1476 -0.1786  0.1258
  695loPI   C6A 9768   4.061   2.164   9.398 -0.1515 -0.0738 -0.0647
  695loPI   C1B 9769   4.442   1.745   7.137 -0.0464  0.0331  0.1075
  695loPI   C2B 9770   4.440   1.643   7.549  0.1794 -0.1029  0.0437
  695loPI   C3B 9771   4.511   1.684   7.995  0.1756  0.2941  0.0296
  695loPI   C4B 9772   4.399   1.660   8.512  0.2077 -0.1774 -0.4072
  696loPI    C1 9773  14.810   7.741   6.013 -0.0598 -0.0650 -0.2018
  696loPI    C2 9774  15.099   7.531   5.832 -0.1031 -0.1575 -0.1643
  696loPI    C3 9775  14.716   7.463   5.741 -0.1283 -0.2434  0.0012
  696loPI   PO4 9776  14.796   7.665   6.279 -0.1466 -0.0453 -0.1402
  696loPI   GL1 9777  14.404   7.714   6.616  0.2611  0.1076  0.1463
  696loPI   GL2 9778  14.164   7.740   6.834  0.1559 -0.5519  0.2289
  696loPI   C1A 9779  14.648   7.710   7.017  0.0329 -0.2429  0.1556
  696loPI   C2A 9780  14.662   7.824   7.439 -0.2210  0.1370  0.0704
  696loPI   C3A 9781  14.566   8.002   7.869 -0.0754  0.0298  0.1553
  696loPI   C4A 9782  14.397   7.841   8.170  0.2780  0.0220 -0.2833
  696loPI   C5A 9783  14.701   7.924   8.546  0.0384  0.0984  0.1939
  696loPI   C6A 9784  15.030   7.895   8.843 -0.1133 -0.3739  0.1894
  696loPI   C1B 9785  14.182   7.710   7.333 -0.2760  0.1524  0.0299
  696loPI   C2B 9786  14.283   7.585   7.699 -0.0865  0.1246  0.0875
  696loPI   C3B 9787  14.242   7.311   7.952  0.0931 -0.0314 -0.0535
  696loPI   C4B 9788  14.579   7.418   8.210 -0.0737 -0.1148  0.3522
  697loPI    C1 9789  13.793   0.269   6.351 -0.0449 -0.0370  0.1274
  697loPI    C2 9790  13.960  -0.034   6.150 -0.0133  0.0281  0.0549
  697loPI    C3 9791  14.162   0.307   6.201 -0.0743  0.0607  0.0794
  697loPI   PO4 9792  13.737   0.186   6.594  0.2496 -0.2237  0.3181
  697loPI   GL1 9793  13.856   0.003   7.030 -0.0409  0.1618 -0.1165
  697loPI   GL2 9794  13.548  -0.173   6.952 -0.1561  0.1879  0.1072
  697loPI   C1A 9795  13.965   0.099   7.377  0.0958 -0.0297  0.0978
  697loPI   C2A 9796  13.970   0.115   7.756 -0.3915  0.0076 -0.0751
  697loPI   C3A 9797  13.951   0.170   8.132 -0.1350  0.2106  0.2876
  697loPI   C4A 9798  14.105   0.153   8.552  0.0208  0.1041  0.0230
  697loPI   C5A 9799  14.105   0.208   8.944 -0.2861 -0.1411 -0.0849
  697loPI   C6A 9800  13.800   0.243   9.200  0.2564  0.1051 -0.3046
  697loPI   C1B 9801  13.519  -0.251   7.309 -0.0781 -0.4101 -0.0394
  697loPI   C2B 9802  13.428  -0.207   7.624 -0.3455  0.0579  0.0389
  697loPI   C3B 9803  13.433  -0.261   8.090 -0.3522  0.0019  0.0189
  697loPI   C4B 9804  13.488  -0.102   8.476  0.0478 -0.0446  0.0893
  698loPI    C1 9805   6.248   0.820   5.942  0.0846 -0.0592 -0.1141
  698loPI    C2 9806   6.167   0.447   5.824 -0.2530 -0.0029 -0.0704
  698loPI    C3 9807   6.459   0.654   5.645 -0.2648 -0.1803 -0.3002
  698loPI   PO4 9808   6.301   0.845   6.166 -0.2433 -0.1095 -0.0759
  698loPI   GL1 9809   6.463   0.764   6.519  0.0795 -0.1840  0.0555
  698loPI   GL2 9810   6.509   0.545   6.543  0.0938  0.0627  0.1436
  698loPI   C1A 9811   6.469   0.731   7.042 -0.0957 -0.1228 -0.3012
  698loPI   C2A 9812   6.498   0.817   7.349  0.1161 -0.0280  0.0719
  698loPI   C3A 9813   6.585   0.782   7.851 -0.0597  0.0217 -0.0788
  698loPI   C4A 9814   6.554   0.797   8.261  0.3639  0.0582  0.2826
  698loPI   C5A 9815   6.659   0.601   8.515  0.0017  0.2659 -0.0080
  698loPI   C6A 9816   6.862   0.619   8.909 -0.2777 -0.0067  0.0432
  698loPI   C1B 9817   6.724   0.275   6.952 -0.1014 -0.0847  0.1292
  698loPI   C2B 9818   6.741   0.357   7.349 -0.4048  0.1733  0.2439
  698loPI   C3B 9819   6.843   0.415   7.754  0.1594  0.0591  0.0751
  698loPI   C4B 9820   6.937   0.374   8.142  0.2356  0.2791 -0.2273
  699loPI    C1 9821   6.554  11.734   6.330 -0.2649  0.1818  0.0262
  699loPI    C2 9822   6.752  12.077   6.272 -0.0832  0.0657 -0.0465
  699loPI    C3 9823   6.422  11.997   6.059  0.1188  0.0044 -0.3427
  699loPI   PO4 9824   6.757  11.562   6.301 -0.1712  0.1290 -0.1548
  699loPI   GL1 9825   7.083  11.622   6.607  0.2160  0.1252 -0.4856
  699loPI   GL2 9826   6.913  11.817   6.721 -0.4113  0.1764  0.0603
  699loPI   C1A 9827   7.169  11.447   6.996 -0.1805  0.0741  0.2582
  699loPI   C2A 9828   7.236  11.557   7.452 -0.1335  0.1535 -0.1721
  699loPI   C3A 9829   7.286  11.679   7.922 -0.1155 -0.0733 -0.0050
  699loPI   C4A 9830   7.244  11.750   8.258 -0.2766 -0.1796  0.0877
  699loPI   C5A 9831   7.327  11.790   8.690 -0.0185  0.0913  0.0328
  699loPI   C6A 9832   7.401  11.679   9.092  0.1226  0.0545  0.1336
  699loPI   C1B 9833   6.883  11.946   7.038  0.5064 -0.1427  0.1456
  699loPI   C2B 9834   6.910  11.982   7.511 -0.0013  0.0902 -0.0248
  699loPI   C3B 9835   6.974  12.094   7.851  0.0068 -0.1767 -0.2299
  699loPI   C4B 9836   7.044  12.187   8.327  0.2122  0.0749  0.1320
  700loPI    C1 9837  16.746  15.973   6.463 -0.1475 -0.2740  0.0152
  700loPI    C2 9838  16.765  16.185   6.802  0.1726  0.0518 -0.1992
  700loPI    C3 9839  16.456  16.233   6.553  0.0544 -0.0164 -0.0671
  700loPI   PO4 9840  17.020  15.886   6.505  0.1790  0.1898  0.2649
  700loPI   GL1 9841  17.119  15.870   6.923  0.2162 -0.0653  0.2458
  700loPI   GL2 9842  17.335  15.751   6.992 -0.2927 -0.0515  0.0160
  700loPI   C1A 9843  16.947  16.137   7.284 -0.5275  0.1551  0.0240
  700loPI   C2A 9844  16.943  16.144   7.803  0.0525 -0.0211 -0.2960
  700loPI   C3A 9845  16.810  16.029   8.182  0.0806  0.0586  0.3200
  700loPI   C4A 9846  16.811  16.034   8.601 -0.0547 -0.0780  0.2353
  700loPI   C5A 9847  17.163  16.017   8.871 -0.0328 -0.2753  0.0236
  700loPI   C6A 9848  17.618  15.883   9.009  0.1207 -0.0510  0.2716
  700loPI   C1B 9849  17.216  15.773   7.466 -0.1001 -0.1765  0.0522
  700loPI   C2B 9850  17.220  15.756   7.879 -0.1226  0.5214  0.1789
  700loPI   C3B 9851  17.200  15.681   8.240  0.0019  0.3022 -0.3278
  700loPI   C4B 9852  17.108  15.441   8.597  0.0356  0.1578 -0.2872
  701loPI    C1 9853   4.028   3.994   6.341 -0.0010  0.0297  0.0070
  701loPI    C2 9854   4.316   3.766   6.183 -0.1006  0.0600 -0.2231
  701loPI    C3 9855   3.932   3.670   6.127 -0.1379  0.0046  0.1051
  701loPI   PO4 9856   4.130   4.064   6.597  0.0366 -0.1768  0.1656
  701loPI   GL1 9857   4.185   4.255   6.880 -0.2970  0.1890 -0.0470
  701loPI   GL2 9858   4.060   4.540   6.764 -0.1214  0.3688 -0.0657
  701loPI   C1A 9859   4.341   4.392   7.331  0.0582 -0.2635 -0.2856
  701loPI   C2A 9860   4.433   4.392   7.774  0.0101 -0.2831 -0.0932
  701loPI   C3A 9861   4.361   4.347   8.160  0.2377  0.2852 -0.2453
  701loPI   C4A 9862   4.344   4.508   8.616 -0.0450 -0.0971  0.0898
  701loPI   C5A 9863   4.448   4.843   8.835  0.2050 -0.2260  0.2894
  701loPI   C6A 9864   4.862   4.833   9.123 -0.0186 -0.0904  0.1026
  701loPI   C1B 9865   4.159   4.774   7.093  0.1176 -0.0235 -0.0917
  701loPI   C2B 9866   4.107   4.799   7.487  0.2964 -0.1283 -0.2677
  701loPI   C3B 9867   4.059   4.910   7.901  0.0158 -0.0138 -0.0126
  701loPI   C4B 9868   4.008   4.765   8.318 -0.1565 -0.2741 -0.3385
  702loPI    C1 9869  16.028   5.989   6.323 -0.1840  0.0092 -0.1060
  702loPI    C2 9870  15.859   6.291   6.123 -0.2177 -0.0157 -0.1154
  702loPI    C3 9871  16.133   6.061   5.944  0.0318  0.1969 -0.0122
  702loPI   PO4 9872  15.764   5.944   6.488  0.2157 -0.1554 -0.1063
  702loPI   GL1 9873  15.673   5.961   6.845  0.3460  0.2027 -0.0709
  702loPI   GL2 9874  15.776   5.677   6.935 -0.4610 -0.1450  0.0885
  702loPI   C1A 9875  15.617   6.109   7.206 -0.0031 -0.3670 -0.3249
  702loPI   C2A 9876  15.665   5.933   7.602 -0.0550 -0.1206  0.0095
  702loPI   C3A 9877  15.613   5.949   7.958 -0.4275 -0.3866 -0.4272
  702loPI   C4A 9878  15.661   5.966   8.425  0.3618  0.0146  0.1942
  702loPI   C5A 9879  15.917   5.971   8.794  0.1148  0.0229  0.1292
  702loPI   C6A 9880  16.221   5.763   9.137  0.2626  0.1521 -0.2811
  702loPI   C1B 9881  15.932   5.556   7.345 -0.0588  0.2123  0.2062
  702loPI   C2B 9882  15.863   5.508   7.795 -0.2368  0.0883  0.0956
  702loPI   C3B 9883  15.863   5.522   8.110  0.1284 -0.0583  0.0057
  702loPI   C4B 9884  15.922   5.549   8.539 -0.1443 -0.2389  0.0105
  703loPI    C1 9885   4.548   3.222   6.538 -0.0874  0.1059  0.1963
  703loPI    C2 9886   4.419   2.854   6.628 -0.2031  0.0437 -0.2050
  703loPI    C3 9887   4.742   2.902   6.398 -0.1200  0.1956 -0.0590
  703loPI   PO4 9888   4.561   3.362   6.769 -0.0053  0.0909  0.1873
  703loPI   GL1 9889   4.280   3.527   7.037  0.0881  0.0590  0.2473
  703loPI   GL2 9890   4.119   3.727   7.015 -0.3003 -0.1275  0.2533
  703loPI   C1A 9891   4.339   3.417   7.464 -0.2343 -0.1572  0.1574
  703loPI   C2A 9892   4.305   3.527   7.754 -0.2009 -0.0443  0.0670
  703loPI   C3A 9893   4.398   3.497   8.085  0.1199  0.0196 -0.1854
  703loPI   C4A 9894   4.334   3.569   8.535 -0.1494  0.1555 -0.4673
  703loPI   C5A 9895   4.335   3.497   9.002  0.1038  0.0992 -0.3574
  703loPI   C6A 9896   4.094   3.833   9.244  0.4787  0.0668  0.1043
  703loPI   C1B 9897   4.101   3.891   7.408  0.1831 -0.1659  0.1290
  703loPI   C2B 9898   4.119   3.986   7.869  0.0456  0.3717 -0.0075
  703loPI   C3B 9899   4.132   3.921   8.254  0.3489 -0.2790 -0.2304
  703loPI   C4B 9900   4.210   4.049   8.662  0.0152  0.1079 -0.1085
  704loPI    C1 9901   5.744   0.240   6.244 -0.0857  0.0253  0.0698
  704loPI    C2 9902   5.983   0.048   6.501 -0.0671 -0.0698 -0.0177
  704loPI    C3 9903   6.119   0.367   6.302 -0.0393 -0.0750 -0.0071
  704loPI   PO4 9904   5.480   0.109   6.390 -0.0917 -0.2589  0.1238
  704loPI   GL1 9905   5.433   0.167   6.816  0.2343  0.1573 -0.1988
  704loPI   GL2 9906   5.172   0.001   6.938  0.5127 -0.0869  0.5439
  704loPI   C1A 9907   5.767   0.226   7.110  0.2461  0.1917  0.1050
  704loPI   C2A 9908   5.812   0.308   7.502  0.0946 -0.2933  0.1068
  704loPI   C3A 9909   5.783   0.318   7.918 -0.1723  0.0946 -0.1563
  704loPI   C4A 9910   5.742   0.356   8.372 -0.0674  0.2063  0.0774
  704loPI   C5A 9911   5.589   0.360   8.828  0.1857  0.2155  0.0240
  704loPI   C6A 9912   5.343   0.227   9.202  0.2740  0.3537  0.1386
  704loPI   C1B 9913   5.192   0.196   7.320  0.1125 -0.1285  0.2963
  704loPI   C2B 9914   5.270   0.308   7.637 -0.1042 -0.1925  0.1835
  704loPI   C3B 9915   5.328   0.331   8.062  0.2826 -0.0210  0.0797
  704loPI   C4B 9916   5.244   0.404   8.441  0.0395 -0.0495  0.1741
  705loPI    C1 9917  12.339   0.649   6.627  0.2073 -0.0345 -0.0825
  705loPI    C2 9918  12.386   0.533   6.247 -0.1819  0.2020 -0.2082
  705loPI    C3 9919  12.019   0.592   6.395 -0.0414 -0.0197  0.2493
  705loPI   PO4 9920  12.595   0.800   6.646 -0.0640 -0.0162 -0.2967
  705loPI   GL1 9921  12.756   0.881   7.021 -0.2219 -0.1322  0.3379
  705loPI   GL2 9922  12.980   0.663   6.936 -0.0888  0.0795  0.0116
  705loPI   C1A 9923  12.595   0.764   7.437  0.1142 -0.3363 -0.2787
  705loPI   C2A 9924  12.514   0.736   7.849 -0.0242  0.1337 -0.0906
  705loPI   C3A 9925  12.293   0.843   8.167  0.1475 -0.3942 -0.0391
  705loPI   C4A 9926  12.127   0.725   8.510  0.1035  0.0378 -0.1496
  705loPI   C5A 9927  12.185   0.749   8.881  0.0587  0.0253 -0.2929
  705loPI   C6A 9928  12.438   0.845   9.260 -0.0720  0.0521 -0.0164
  705loPI   C1B 9929  13.003   0.476   7.330  0.1448 -0.1990 -0.2278
  705loPI   C2B 9930  12.941   0.393   7.771  0.0836  0.1285 -0.0103
  705loPI   C3B 9931  12.820   0.538   8.188 -0.0471  0.0480 -0.0458
  705loPI   C4B 9932  12.654   0.679   8.615  0.0427 -0.0436 -0.3050
  706loPI    C1 9933  14.142   1.290   6.086 -0.1459  0.2096 -0.1789
  706loPI    C2 9934  13.818   1.519   6.135 -0.2982 -0.0098 -0.1469
  706loPI    C3 9935  13.810   1.214   5.876 -0.1201 -0.0229 -0.1381
  706loPI   PO4 9936  14.125   1.201   6.367  0.2460  0.0101  0.2334
  706loPI   GL1 9937  14.029   1.182   6.902 -0.0649 -0.0310  0.1451
  706loPI   GL2 9938  13.854   1.365   7.104  0.1299  0.0561 -0.0592
  706loPI   C1A 9939  14.305   1.293   7.325  0.0054  0.2304 -0.3102
  706loPI   C2A 9940  14.432   1.344   7.733  0.0909  0.3461  0.1824
  706loPI   C3A 9941  14.487   1.390   8.206  0.0667 -0.1324  0.0389
  706loPI   C4A 9942  14.454   1.353   8.553  0.3925 -0.1175 -0.2623
  706loPI   C5A 9943  14.516   1.466   8.931 -0.0741 -0.1583  0.0495
  706loPI   C6A 9944  14.287   1.443   9.338 -0.2453 -0.0790 -0.3095
  706loPI   C1B 9945  13.842   1.073   7.398 -0.2136  0.2235  0.1535
  706loPI   C2B 9946  13.756   1.078   7.895  0.0095 -0.1273 -0.0221
  706loPI   C3B 9947  13.550   1.127   8.270  0.0375 -0.2365 -0.0411
  706loPI   C4B 9948  13.572   0.920   8.730 -0.1182  0.2765  0.1292
  707loPI    C1 9949  14.426   3.514   6.664  0.0493 -0.2197  0.1026
  707loPI    C2 9950  14.439   3.622   6.279 -0.0294 -0.0632  0.1429
  707loPI    C3 9951  14.467   3.236   6.380  0.1906 -0.0886 -0.0076
  707loPI   PO4 9952  14.225   3.631   6.734  0.1482 -0.0384 -0.0263
  707loPI   GL1 9953  14.066   4.030   6.863 -0.0504 -0.0150 -0.0728
  707loPI   GL2 9954  13.799   3.859   6.934 -0.0130  0.0035 -0.2102
  707loPI   C1A 9955  14.109   4.063   7.272  0.2017 -0.0021 -0.0973
  707loPI   C2A 9956  14.066   4.128   7.662 -0.0108  0.0217 -0.1493
  707loPI   C3A 9957  14.087   4.126   8.152  0.0426  0.2345 -0.0642
  707loPI   C4A 9958  14.024   4.335   8.460  0.4490  0.2068 -0.1062
  707loPI   C5A 9959  14.098   4.522   8.986 -0.2647  0.0245  0.0351
  707loPI   C6A 9960  14.100   4.919   9.025  0.0041 -0.1610 -0.2097
  707loPI   C1B 9961  13.604   4.067   7.405 -0.2383 -0.0288  0.1202
  707loPI   C2B 9962  13.584   4.098   7.850  0.0498  0.0130  0.2048
  707loPI   C3B 9963  13.509   4.229   8.354 -0.1017  0.2792  0.1411
  707loPI   C4B 9964  13.639   4.156   8.804  0.0336 -0.0383  0.0848
  708loPI    C1 9965   1.296   5.327   6.350  0.0729  0.1552  0.0979
  708loPI    C2 9966   1.035   5.537   6.131 -0.0021  0.1496  0.1815
  708loPI    C3 9967   1.347   5.360   5.955 -0.2017 -0.0684  0.0401
  708loPI   PO4 9968   1.278   5.422   6.677 -0.0036 -0.3334  0.0828
  708loPI   GL1 9969   1.399   5.402   7.097  0.1012 -0.3228  0.0832
  708loPI   GL2 9970   1.072   5.335   7.067  0.3171 -0.0458  0.1119
  708loPI   C1A 9971   1.561   5.693   7.450 -0.1961 -0.0697  0.0952
  708loPI   C2A 9972   1.513   5.707   7.903 -0.1458 -0.0150  0.0161
  708loPI   C3A 9973   1.345   5.656   8.284  0.0848  0.0745  0.1188
  708loPI   C4A 9974   1.472   5.715   8.606  0.0623  0.0605 -0.2790
  708loPI   C5A 9975   1.343   5.555   8.985  0.0298 -0.0907 -0.2275
  708loPI   C6A 9976   1.269   5.500   9.471  0.0191 -0.0250 -0.2154
  708loPI   C1B 9977   1.188   5.356   7.570 -0.3650 -0.1249  0.1263
  708loPI   C2B 9978   1.118   5.329   7.994  0.2165  0.0937  0.0668
  708loPI   C3B 9979   1.181   5.190   8.413  0.4423 -0.0279 -0.0562
  708loPI   C4B 9980   1.212   5.096   8.825  0.1727 -0.1774 -0.2214
  709loPI    C1 9981  10.135  15.439   5.776 -0.0975  0.0988 -0.0513
  709loPI    C2 9982  10.143  15.040   5.808  0.0030  0.1184  0.1917
  709loPI    C3 9983   9.980  15.212   5.486 -0.1871 -0.1153  0.1605
  709loPI   PO4 9984  10.025  15.511   6.016  0.1534  0.1515 -0.2368
  709loPI   GL1 9985  10.366  15.435   6.274  0.0778 -0.0304  0.1937
  709loPI   GL2 9986  10.492  15.192   6.278  0.1000  0.1796  0.4983
  709loPI   C1A 9987  10.608  15.771   6.562  0.0316  0.1301 -0.1603
  709loPI   C2A 9988  10.464  15.753   7.021 -0.0196  0.2001 -0.0094
  709loPI   C3A 9989  10.342  15.737   7.373 -0.0078 -0.0187  0.1968
  709loPI   C4A 9990  10.403  15.500   7.718 -0.2562 -0.1277 -0.1444
  709loPI   C5A 9991  10.361  15.552   8.206 -0.0862  0.0770 -0.0215
  709loPI   C6A 9992  10.425  15.664   8.672  0.4673  0.0826  0.0105
  709loPI   C1B 9993  10.655  15.317   6.689 -0.1848 -0.4224 -0.2589
  709loPI   C2B 9994  10.646  15.278   7.076 -0.0918 -0.0861 -0.2026
  709loPI   C3B 9995  10.670  15.166   7.486 -0.1903  0.1349 -0.3115
  709loPI   C4B 9996  10.739  15.212   7.999 -0.0764 -0.3144 -0.0410
  710loPI    C1 9997   9.488   6.145   5.790  0.1699 -0.1131 -0.0448
  710loPI    C2 9998   9.340   5.934   5.483  0.1141  0.0763 -0.1497
  710loPI    C3 9999   9.278   6.329   5.503  0.2544  0.0911  0.0227
  710loPI   PO410000   9.378   6.011   6.074 -0.1105  0.1329 -0.1838
  710loPI   GL110001   9.459   5.918   6.552  0.0687 -0.2709  0.0959
  710loPI   GL210002   9.201   5.751   6.556  0.0639  0.1448  0.2146
  710loPI   C1A10003   9.075   6.240   6.658 -0.0114 -0.0568  0.0031
  710loPI   C2A10004   8.959   6.269   6.931  0.1189 -0.0062  0.1653
  710loPI   C3A10005   8.983   6.295   7.393 -0.2196 -0.2487 -0.1010
  710loPI   C4A10006   8.990   6.345   7.876 -0.4059 -0.0536 -0.0426
  710loPI   C5A10007   8.951   6.219   8.230 -0.0165  0.0128  0.0091
  710loPI   C6A10008   8.993   6.190   8.634  0.0029 -0.0541 -0.0571
  710loPI   C1B10009   9.333   5.871   7.010  0.3379  0.0879 -0.1230
  710loPI   C2B10010   9.275   5.851   7.490 -0.0203 -0.3374  0.2391
  710loPI   C3B10011   9.239   5.853   7.882  0.1894  0.0119  0.3357
  710loPI   C4B10012   9.174   5.804   8.373 -0.0618  0.3025 -0.1629
  711loPI    C110013   2.114  12.057   6.199 -0.1945  0.0304  0.1074
  711loPI    C210014   1.941  12.172   6.541  0.2326  0.4646  0.1881
  711loPI    C310015   1.874  12.377   6.204 -0.1283  0.0819  0.0177
  711loPI   PO410016   2.158  11.768   6.316 -0.0618  0.0681  0.1705
  711loPI   GL110017   2.260  11.632   6.665 -0.0415 -0.1053 -0.1748
  711loPI   GL210018   2.284  11.269   6.864  0.0189 -0.0681  0.0487
  711loPI   C1A10019   1.978  11.632   7.078 -0.0042  0.1371 -0.0635
  711loPI   C2A10020   2.032  11.609   7.490 -0.0989  0.0681  0.3606
  711loPI   C3A10021   1.970  11.748   7.933 -0.0427 -0.1547  0.0704
  711loPI   C4A10022   1.935  11.851   8.317  0.5260 -0.3002  0.0475
  711loPI   C5A10023   1.940  11.863   8.769 -0.0736  0.3367 -0.3489
  711loPI   C6A10024   2.019  12.111   9.191  0.1391 -0.0778 -0.0292
  711loPI   C1B10025   2.322  11.206   7.332 -0.0800 -0.2270 -0.1074
  711loPI   C2B10026   2.289  11.300   7.858 -0.2504  0.2631  0.1498
  711loPI   C3B10027   2.399  11.177   8.257  0.2601  0.2823  0.0628
  711loPI   C4B10028   2.542  11.075   8.697  0.2354 -0.1391  0.0055
  712loPI    C110029   5.132  10.231   5.897  0.2195 -0.0982  0.1786
  712loPI    C210030   4.915   9.899   5.842  0.1791 -0.0424 -0.0055
  712loPI    C310031   5.308   9.895   5.768  0.1741 -0.0429 -0.0324
  712loPI   PO410032   4.849  10.336   6.015  0.1025 -0.0295  0.3361
  712loPI   GL110033   4.603  10.383   6.384  0.1366 -0.1904  0.1170
  712loPI   GL210034   4.681  10.657   6.588  0.1691  0.1410  0.1140
  712loPI   C1A10035   4.348  10.351   6.883  0.0328 -0.0628  0.0105
  712loPI   C2A10036   4.381  10.348   7.337 -0.1075 -0.1919 -0.1318
  712loPI   C3A10037   4.378  10.268   7.734 -0.2202  0.4594  0.0725
  712loPI   C4A10038   4.512  10.371   8.103  0.0169 -0.2344 -0.0985
  712loPI   C5A10039   4.497  10.191   8.447 -0.1854 -0.0215  0.0257
  712loPI   C6A10040   4.219   9.937   8.656 -0.0140 -0.3735 -0.2658
  712loPI   C1B10041   4.629  10.713   7.017 -0.1410 -0.2032  0.1107
  712loPI   C2B10042   4.737  10.696   7.435  0.0003  0.0597  0.0698
  712loPI   C3B10043   4.770  10.735   7.855 -0.0674  0.2519  0.0478
  712loPI   C4B10044   4.936  10.923   8.250 -0.0424 -0.4345  0.1779
  713loPI    C110045   1.321  15.309   6.271  0.0637  0.0404 -0.0378
  713loPI    C210046   1.604  15.219   6.003 -0.0008 -0.0738 -0.0685
  713loPI    C310047   1.494  14.948   6.277  0.0204  0.0204  0.0339
  713loPI   PO410048   1.354  15.499   6.356 -0.2487  0.1006  0.1928
  713loPI   GL110049   1.443  15.660   6.749 -0.0733  0.2019 -0.0723
  713loPI   GL210050   1.285  15.384   6.840 -0.0984  0.3041 -0.1895
  713loPI   C1A10051   1.560  15.940   7.155  0.0893  0.1278  0.0784
  713loPI   C2A10052   1.600  15.855   7.499  0.1133 -0.0957 -0.0708
  713loPI   C3A10053   1.590  15.888   7.953 -0.0015  0.0005 -0.0165
  713loPI   C4A10054   1.543  15.803   8.410  0.2839 -0.1780 -0.1050
  713loPI   C5A10055   1.379  15.742   8.817  0.0920  0.1096  0.3130
  713loPI   C6A10056   1.382  15.764   9.246  0.0435  0.0863  0.0513
  713loPI   C1B10057   1.362  15.445   7.230  0.0472 -0.1412 -0.0133
  713loPI   C2B10058   1.443  15.371   7.639  0.2540  0.1553  0.1624
  713loPI   C3B10059   1.417  15.386   8.048  0.0738 -0.2224 -0.1317
  713loPI   C4B10060   1.385  15.252   8.493 -0.0724  0.1816 -0.0850
  714loPI    C110061   6.505  14.918   6.003  0.1207  0.0434 -0.1179
  714loPI    C210062   6.723  14.663   5.786 -0.1095 -0.2635  0.0048
  714loPI    C310063   6.400  14.837   5.626 -0.0838 -0.2255 -0.0059
  714loPI   PO410064   6.704  15.014   6.170  0.0684 -0.2403  0.1046
  714loPI   GL110065   6.720  14.803   6.549  0.1428  0.0805 -0.1410
  714loPI   GL210066   6.420  14.867   6.725 -0.1596 -0.2617 -0.0489
  714loPI   C1A10067   6.901  14.463   6.829  0.1337  0.0171  0.0489
  714loPI   C2A10068   6.886  14.298   7.230  0.0325  0.3940 -0.2640
  714loPI   C3A10069   6.943  14.373   7.682  0.1024  0.0990 -0.0306
  714loPI   C4A10070   6.905  14.343   8.130  0.0156  0.0994  0.1732
  714loPI   C5A10071   6.957  14.222   8.514 -0.0939 -0.1825  0.1196
  714loPI   C6A10072   6.805  14.174   8.959 -0.2321 -0.2095  0.0430
  714loPI   C1B10073   6.569  14.792   7.116  0.3912 -0.1852 -0.3951
  714loPI   C2B10074   6.654  14.777   7.577 -0.0663 -0.1376  0.0089
  714loPI   C3B10075   6.620  14.749   7.990  0.0730  0.2529 -0.0617
  714loPI   C4B10076   6.460  14.845   8.378  0.2114  0.0018  0.1482
  715loPI    C110077  16.248   1.965   6.604  0.0360  0.0006  0.0259
  715loPI    C210078  16.443   1.637   6.484 -0.0333 -0.0248 -0.0176
  715loPI    C310079  16.298   1.894   6.214  0.2150  0.1571  0.0186
  715loPI   PO410080  16.103   1.864   6.795 -0.2508  0.0520  0.0801
  715loPI   GL110081  16.137   2.090   7.200 -0.0509  0.1528 -0.1593
  715loPI   GL210082  16.389   2.236   7.135  0.1452 -0.0814 -0.1125
  715loPI   C1A10083  15.910   2.074   7.559  0.1048 -0.0705  0.1058
  715loPI   C2A10084  15.908   2.000   7.941 -0.0581  0.0158  0.2641
  715loPI   C3A10085  16.087   1.973   8.268  0.0418 -0.0794 -0.2664
  715loPI   C4A10086  16.205   1.876   8.705  0.1976  0.0044 -0.0090
  715loPI   C5A10087  16.474   1.982   9.074  0.2423  0.2185  0.1811
  715loPI   C6A10088  16.888   2.163   9.266 -0.0079 -0.1222 -0.0801
  715loPI   C1B10089  16.438   2.322   7.525  0.0017  0.2785 -0.0015
  715loPI   C2B10090  16.316   2.314   7.912 -0.1748 -0.0033  0.1916
  715loPI   C3B10091  16.357   2.382   8.362 -0.0530 -0.0708  0.1069
  715loPI   C4B10092  16.303   2.332   8.771 -0.0095  0.0950 -0.1683
  716loPI    C110093   9.698   9.295   5.758  0.2012  0.2917 -0.0690
  716loPI    C210094   9.895   8.954   5.829 -0.0508  0.1647  0.0342
  716loPI    C310095   9.940   9.142   5.478  0.0672  0.0107 -0.0349
  716loPI   PO410096   9.771   9.429   6.015  0.0106 -0.0142  0.1087
  716loPI   GL110097   9.817   9.177   6.333 -0.1722  0.4744  0.0566
  716loPI   GL210098   9.562   9.173   6.438  0.1946 -0.1909 -0.0398
  716loPI   C1A10099   9.980   9.051   6.694 -0.2090  0.1055  0.2819
  716loPI   C2A10100   9.984   8.974   7.134  0.0733 -0.1898  0.1593
  716loPI   C3A10101   9.950   8.933   7.624  0.1799 -0.4075  0.0679
  716loPI   C4A10102   9.840   8.939   8.052 -0.3021  0.2178  0.2306
  716loPI   C5A10103  10.050   8.908   8.454  0.0182  0.1590  0.0234
  716loPI   C6A10104  10.318   9.386   8.511  0.1522  0.1038 -0.2407
  716loPI   C1B10105   9.495   9.010   6.962  0.0915  0.1326  0.0956
  716loPI   C2B10106   9.430   8.977   7.443 -0.0391  0.0060 -0.2669
  716loPI   C3B10107   9.372   8.914   7.950  0.2281  0.0842  0.0806
  716loPI   C4B10108   9.331   9.018   8.381  0.0822  0.1041 -0.0189
  717loPI    C110109  16.269  11.280   6.330  0.1507 -0.0510 -0.0388
  717loPI    C210110  16.377  11.596   6.110  0.0755  0.0107  0.0125
  717loPI    C310111  16.064  11.373   6.000  0.0687  0.0118  0.0296
  717loPI   PO410112  16.487  11.196   6.411 -0.1975 -0.1845 -0.1063
  717loPI   GL110113  16.870  11.167   6.677 -0.2385 -0.0078  0.1111
  717loPI   GL210114  17.127  11.266   6.573  0.3950  0.0747  0.1463
  717loPI   C1A10115  16.893  11.022   7.047  0.3445 -0.1457 -0.0144
  717loPI   C2A10116  16.872  11.029   7.478  0.4458  0.0462 -0.2370
  717loPI   C3A10117  16.787  11.017   7.958 -0.0094 -0.1561  0.0910
  717loPI   C4A10118  16.835  10.953   8.400  0.1522 -0.2008 -0.1852
  717loPI   C5A10119  16.803  10.777   8.831  0.2012 -0.1042  0.1341
  717loPI   C6A10120  17.016  10.407   9.042  0.0451  0.0344  0.0146
  717loPI   C1B10121  17.112  11.502   7.015 -0.1610 -0.0755  0.0790
  717loPI   C2B10122  17.039  11.501   7.390 -0.0055 -0.1648  0.0678
  717loPI   C3B10123  16.983  11.446   7.797 -0.2701 -0.1212 -0.0225
  717loPI   C4B10124  16.988  11.467   8.278  0.2911  0.0482 -0.3245
  718loPI    C110125  15.293   7.282   6.203  0.0518 -0.1000  0.2210
  718loPI    C210126  15.217   7.016   5.914 -0.1092  0.2614 -0.0774
  718loPI    C310127  15.594   7.122   5.994 -0.0674  0.2032 -0.1952
  718loPI   PO410128  15.190   7.241   6.376  0.1151  0.2288  0.1707
  718loPI   GL110129  15.226   7.115   6.837  0.3032 -0.1208  0.2351
  718loPI   GL210130  15.038   6.962   6.997 -0.0678  0.0890 -0.1533
  718loPI   C1A10131  15.469   7.057   7.280  0.1066  0.2936 -0.0248
  718loPI   C2A10132  15.424   7.093   7.696 -0.0893 -0.0404  0.0357
  718loPI   C3A10133  15.363   7.209   8.119  0.1118  0.0353  0.0483
  718loPI   C4A10134  15.714   7.317   8.399 -0.1980  0.1343 -0.1167
  718loPI   C5A10135  15.839   7.631   8.638 -0.1300  0.0159 -0.0768
  718loPI   C6A10136  15.846   7.681   9.012  0.0840 -0.2966  0.0765
  718loPI   C1B10137  14.945   6.996   7.524  0.0025  0.1536 -0.2361
  718loPI   C2B10138  14.901   7.045   8.020  0.0620  0.0406  0.0936
  718loPI   C3B10139  14.929   7.017   8.454  0.1150 -0.1995 -0.0350
  718loPI   C4B10140  15.291   7.036   8.634 -0.3377 -0.1534 -0.0696
  719loPI    C110141   8.620   0.638   6.012  0.0012  0.1160 -0.1071
  719loPI    C210142   8.985   0.499   6.102  0.0744  0.2464 -0.1997
  719loPI    C310143   8.945   0.808   5.851 -0.1091  0.1201 -0.3282
  719loPI   PO410144   8.528   0.635   6.287  0.0480 -0.0445 -0.2851
  719loPI   GL110145   8.553   0.500   6.637 -0.1458  0.0004 -0.0623
  719loPI   GL210146   8.902   0.548   6.702  0.0513  0.3391 -0.1975
  719loPI   C1A10147   8.256   0.428   6.916 -0.0730 -0.1884 -0.3526
  719loPI   C2A10148   8.181   0.421   7.300 -0.1811 -0.0225  0.2399
  719loPI   C3A10149   8.308   0.400   7.710  0.1704  0.2365 -0.1425
  719loPI   C4A10150   8.371   0.447   8.128  0.2400  0.0139  0.0201
  719loPI   C5A10151   8.474   0.520   8.573 -0.3088 -0.0609 -0.1665
  719loPI   C6A10152   8.591   0.465   8.866 -0.1071 -0.3590  0.1312
  719loPI   C1B10153   9.106   0.485   7.075 -0.1064 -0.0399 -0.0136
  719loPI   C2B10154   9.085   0.473   7.495 -0.0725 -0.2411 -0.0228
  719loPI   C3B10155   8.843   0.448   7.914 -0.0985 -0.2691 -0.0911
  719loPI   C4B10156   8.906   0.497   8.312 -0.1378  0.0512 -0.2812
  720loPI    C110157   3.579  13.279   6.201 -0.0206  0.1577  0.0228
  720loPI    C210158   3.850  13.571   6.232  0.0320  0.1041  0.0718
  720loPI    C310159   3.902  13.277   5.966  0.0571  0.0566  0.1288
  720loPI   PO410160   3.555  13.175   6.456 -0.0814 -0.1889  0.1356
  720loPI   GL110161   3.738  12.930   6.705  0.1508 -0.1166 -0.2548
  720loPI   GL210162   3.442  12.663   6.733  0.1728  0.0476 -0.0774
  720loPI   C1A10163   3.864  12.929   7.175  0.0280 -0.3892  0.4219
  720loPI   C2A10164   3.923  12.956   7.518 -0.1317  0.2270  0.2135
  720loPI   C3A10165   3.819  12.934   7.889 -0.2748 -0.1430 -0.0593
  720loPI   C4A10166   3.883  12.925   8.291 -0.1415 -0.0997 -0.0247
  720loPI   C5A10167   3.839  12.913   8.772  0.0109 -0.0666 -0.1785
  720loPI   C6A10168   3.753  12.469   8.990  0.1641 -0.0833 -0.2425
  720loPI   C1B10169   3.619  12.533   7.070 -0.1924 -0.1444  0.2702
  720loPI   C2B10170   3.698  12.472   7.512 -0.0953  0.0248 -0.1084
  720loPI   C3B10171   3.682  12.489   7.999 -0.0921 -0.1247  0.1298
  720loPI   C4B10172   3.624  12.535   8.473 -0.0599  0.0710  0.0774
  721loPI    C110173  11.307   2.023   6.394 -0.0590 -0.2098 -0.1084
  721loPI    C210174  11.336   1.815   6.054 -0.4087 -0.1497 -0.1790
  721loPI    C310175  11.659   1.993   6.208 -0.2353 -0.2272 -0.4470
  721loPI   PO410176  11.082   2.087   6.418  0.2997  0.1187 -0.0215
  721loPI   GL110177  11.019   2.202   6.824  0.2717  0.1530 -0.3161
  721loPI   GL210178  11.070   2.438   6.896 -0.1217  0.1117 -0.1044
  721loPI   C1A10179  10.643   2.082   7.018  0.1886  0.2670  0.2522
  721loPI   C2A10180  10.375   2.362   7.357  0.1080 -0.2380 -0.0862
  721loPI   C3A10181  10.378   2.192   7.743  0.1074 -0.2776  0.1386
  721loPI   C4A10182  10.467   2.286   8.173 -0.1756  0.4423  0.0172
  721loPI   C5A10183  10.398   2.252   8.638 -0.2311 -0.1544 -0.1918
  721loPI   C6A10184  10.133   2.148   8.926  0.1680  0.1154  0.0800
  721loPI   C1B10185  10.963   2.327   7.353 -0.1566  0.1780  0.1940
  721loPI   C2B10186  10.964   2.246   7.780  0.2461  0.0567 -0.1616
  721loPI   C3B10187  11.002   2.265   8.176  0.2454  0.0282  0.0617
  721loPI   C4B10188  10.903   2.367   8.636 -0.1026  0.2372  0.1100
  722loPI    C110189   7.763   2.383   5.839 -0.2228  0.2534 -0.2456
  722loPI    C210190   7.583   2.031   5.778 -0.0057  0.0502  0.2335
  722loPI    C310191   7.694   2.256   5.466 -0.2059 -0.2719 -0.0783
  722loPI   PO410192   7.556   2.501   6.003 -0.0436 -0.1884  0.3309
  722loPI   GL110193   7.585   2.678   6.435 -0.1449 -0.0782 -0.3036
  722loPI   GL210194   7.898   2.695   6.621  0.4261 -0.0061 -0.0252
  722loPI   C1A10195   7.512   2.671   6.930 -0.3675  0.1055  0.3951
  722loPI   C2A10196   7.579   2.582   7.329  0.1748 -0.2192 -0.1721
  722loPI   C3A10197   7.470   2.682   7.816  0.4786 -0.1318 -0.0962
  722loPI   C4A10198   7.564   2.726   8.257 -0.4073  0.3205  0.0857
  722loPI   C5A10199   7.651   2.687   8.688  0.1268 -0.2498 -0.0132
  722loPI   C6A10200   7.525   3.006   8.888  0.2446 -0.1621 -0.1216
  722loPI   C1B10201   8.017   2.547   7.031  0.3521 -0.0994  0.2884
  722loPI   C2B10202   8.008   2.614   7.487  0.0560 -0.0089  0.1412
  722loPI   C3B10203   8.085   2.711   7.847  0.0388  0.0780 -0.2584
  722loPI   C4B10204   8.063   2.674   8.271  0.0685 -0.1886  0.2766
  723loPI    C110205   4.461   7.819   5.963  0.0663  0.0968 -0.0132
  723loPI    C210206   4.518   8.205   6.052 -0.2235  0.1175  0.0923
  723loPI    C310207   4.299   8.103   5.733  0.0495  0.0388 -0.0733
  723loPI   PO410208   4.443   7.761   6.304 -0.3223 -0.0270 -0.2508
  723loPI   GL110209   4.418   7.740   6.774 -0.1698 -0.2564 -0.2410
  723loPI   GL210210   4.491   7.485   6.732  0.0891 -0.0855  0.0160
  723loPI   C1A10211   4.335   7.930   7.196 -0.0022 -0.1907 -0.0326
  723loPI   C2A10212   4.285   7.903   7.606  0.0311  0.1049 -0.0877
  723loPI   C3A10213   4.219   8.061   8.004 -0.0259 -0.4819  0.1770
  723loPI   C4A10214   4.195   8.164   8.409  0.0442  0.1384 -0.0135
  723loPI   C5A10215   4.030   8.070   8.752 -0.1964 -0.0493  0.1483
  723loPI   C6A10216   3.695   7.800   8.890 -0.0039  0.1852 -0.2426
  723loPI   C1B10217   4.429   7.464   7.271  0.0213  0.0506  0.2365
  723loPI   C2B10218   4.528   7.449   7.706 -0.2766  0.1887 -0.0985
  723loPI   C3B10219   4.476   7.542   8.164 -0.1327 -0.0167  0.0793
  723loPI   C4B10220   4.375   7.651   8.593  0.0032  0.2488 -0.0015
  724loPI    C110221   1.212   8.346   6.202  0.2290  0.0101  0.1065
  724loPI    C210222   1.352   7.984   6.103  0.3349  0.0328  0.1719
  724loPI    C310223   1.440   8.302   5.877 -0.0879 -0.0445 -0.1137
  724loPI   PO410224   1.198   8.451   6.402 -0.0786 -0.3393 -0.1506
  724loPI   GL110225   1.326   8.307   6.789  0.1967  0.1262  0.0444
  724loPI   GL210226   1.319   8.042   6.955 -0.2375 -0.5217  0.0595
  724loPI   C1A10227   1.101   8.422   7.180 -0.1251  0.1771  0.0398
  724loPI   C2A10228   1.164   8.405   7.652 -0.0025 -0.1454  0.0359
  724loPI   C3A10229   1.414   8.463   7.968 -0.2977  0.2168 -0.0162
  724loPI   C4A10230   1.379   8.313   8.454  0.0107 -0.2947 -0.0212
  724loPI   C5A10231   1.261   8.101   8.821 -0.2519 -0.2555  0.0471
  724loPI   C6A10232   1.261   7.830   9.244 -0.1621 -0.2341  0.0412
  724loPI   C1B10233   1.469   8.016   7.356  0.0021 -0.1947  0.1617
  724loPI   C2B10234   1.561   7.991   7.732  0.0230  0.1825 -0.1453
  724loPI   C3B10235   1.578   7.954   8.181 -0.0952 -0.1155 -0.0730
  724loPI   C4B10236   1.666   7.868   8.550 -0.0162  0.1752 -0.3302
  725loPI    C110237   7.180  16.702   5.738 -0.1772  0.1082 -0.3273
  725loPI    C210238   7.410  16.379   5.681 -0.1838  0.0846 -0.2219
  725loPI    C310239   7.549  16.743   5.589 -0.1057  0.0699 -0.1628
  725loPI   PO410240   7.169  16.777   5.903 -0.2073  0.1643 -0.1852
  725loPI   GL110241   7.205  16.847   6.352 -0.0039  0.2817  0.2748
  725loPI   GL210242   7.377  16.998   6.528 -0.1444  0.2009 -0.2673
  725loPI   C1A10243   7.340  16.646   6.797 -0.3560  0.1169  0.3783
  725loPI   C2A10244   7.391  16.734   7.217 -0.2878 -0.0665 -0.2901
  725loPI   C3A10245   7.396  16.660   7.685  0.0333 -0.2713  0.2808
  725loPI   C4A10246   7.414  16.668   8.129 -0.0417  0.0601  0.0475
  725loPI   C5A10247   7.363  16.725   8.489 -0.3172  0.0017  0.0487
  725loPI   C6A10248   7.105  17.004   8.666 -0.0861 -0.0425 -0.3082
  725loPI   C1B10249   7.570  17.135   6.923 -0.3083  0.1333  0.3345
  725loPI   C2B10250   7.614  17.152   7.326  0.1967  0.1182 -0.3119
  725loPI   C3B10251   7.614  17.146   7.776 -0.0750 -0.0433  0.1904
  725loPI   C4B10252   7.560  17.232   8.150  0.0968 -0.2780 -0.1369
  726loPI    C110253   8.695  12.589   5.802 -0.0103  0.0452  0.1539
  726loPI    C210254   8.504  12.923   5.691 -0.2663 -0.1672 -0.0591
  726loPI    C310255   8.693  12.700   5.418  0.0340 -0.1194  0.1051
  726loPI   PO410256   8.590  12.550   6.108  0.1460 -0.0078 -0.1762
  726loPI   GL110257   8.293  12.472   6.421 -0.1336  0.1017 -0.1286
  726loPI   GL210258   8.115  12.623   6.601  0.0668 -0.1824 -0.1364
  726loPI   C1A10259   8.294  12.151   6.641 -0.0996 -0.2940  0.0068
  726loPI   C2A10260   8.403  12.162   7.051  0.1651 -0.0885 -0.1230
  726loPI   C3A10261   8.367  12.194   7.434  0.0732 -0.0190  0.2934
  726loPI   C4A10262   8.450  12.240   7.883  0.3515 -0.0155  0.0545
  726loPI   C5A10263   8.489  12.259   8.338  0.3277  0.2255 -0.0594
  726loPI   C6A10264   8.599  12.381   8.767 -0.0446 -0.1175 -0.2051
  726loPI   C1B10265   8.081  12.621   6.978  0.0308 -0.3337 -0.0923
  726loPI   C2B10266   8.098  12.602   7.490 -0.1827  0.0329  0.2994
  726loPI   C3B10267   8.134  12.688   7.916 -0.0236 -0.3570 -0.1891
  726loPI   C4B10268   8.184  12.677   8.378 -0.2338 -0.0486  0.2309
  727loPI    C110269   0.361   1.400   6.340  0.1170  0.1308  0.1601
  727loPI    C210270   0.303   1.783   6.237  0.0770  0.0865  0.0162
  727loPI    C310271   0.233   1.491   5.972 -0.1606 -0.0375  0.2123
  727loPI   PO410272   0.237   1.373   6.617  0.1219 -0.1744  0.1476
  727loPI   GL110273   0.106   1.300   6.981  0.0541  0.1419  0.1476
  727loPI   GL210274  -0.064   1.619   7.078 -0.2140  0.1201 -0.0317
  727loPI   C1A10275   0.186   1.261   7.405 -0.2422  0.1991 -0.2175
  727loPI   C2A10276   0.100   1.256   7.795  0.2601  0.3081 -0.1207
  727loPI   C3A10277   0.193   1.331   8.179  0.1705 -0.0106 -0.3160
  727loPI   C4A10278   0.262   1.361   8.591  0.2641  0.1768 -0.0099
  727loPI   C5A10279   0.367   1.540   8.974 -0.1072  0.0886  0.0838
  727loPI   C6A10280   0.120   1.781   9.292 -0.1702  0.1245  0.0593
  727loPI   C1B10281  -0.119   1.647   7.516 -0.1636  0.0540  0.1691
  727loPI   C2B10282  -0.127   1.650   7.959  0.0768 -0.3806 -0.0181
  727loPI   C3B10283  -0.110   1.779   8.388 -0.1251 -0.0728  0.0376
  727loPI   C4B10284  -0.008   2.045   8.855 -0.1354 -0.4460  0.0684
  728loPI    C110285  11.651   5.467   6.228  0.1232 -0.0913  0.0538
  728loPI    C210286  12.032   5.490   6.109  0.0216  0.1083 -0.2425
  728loPI    C310287  11.738   5.488   5.838 -0.2058  0.3485 -0.0031
  728loPI   PO410288  11.700   5.299   6.440  0.0222  0.1642 -0.1421
  728loPI   GL110289  11.918   5.209   6.788  0.0227 -0.0626 -0.0162
  728loPI   GL210290  11.767   4.989   6.916  0.2663 -0.1993 -0.2669
  728loPI   C1A10291  11.841   5.416   7.188  0.3405 -0.0885  0.1020
  728loPI   C2A10292  11.718   5.368   7.660 -0.1119  0.0668  0.3619
  728loPI   C3A10293  11.596   5.411   8.029  0.0684 -0.1619  0.0747
  728loPI   C4A10294  11.698   5.421   8.500 -0.0163 -0.0653 -0.0769
  728loPI   C5A10295  11.969   5.600   8.724 -0.1366 -0.1198 -0.2233
  728loPI   C6A10296  12.222   5.496   9.038 -0.2626 -0.0069 -0.2153
  728loPI   C1B10297  11.606   4.994   7.348  0.0580 -0.2338 -0.2376
  728loPI   C2B10298  11.396   5.032   7.785  0.0865  0.1583  0.0579
  728loPI   C3B10299  11.376   5.007   8.253 -0.0133  0.7696  0.1402
  728loPI   C4B10300  11.212   5.297   8.615  0.1567 -0.0364 -0.0373
  729loPI    C110301   6.817  12.966   5.942 -0.1058 -0.0568  0.2255
  729loPI    C210302   6.970  12.979   5.573 -0.0335 -0.0104  0.2568
  729loPI    C310303   6.574  12.960   5.625 -0.0512  0.1287  0.1785
  729loPI   PO410304   6.956  13.116   6.108 -0.0501  0.1779  0.0465
  729loPI   GL110305   7.242  13.335   6.391 -0.2929  0.0499 -0.0822
  729loPI   GL210306   7.588  13.449   6.449 -0.0393 -0.0791 -0.1698
  729loPI   C1A10307   7.058  13.472   6.720 -0.2774  0.1598  0.1611
  729loPI   C2A10308   6.986  13.459   7.076  0.0225 -0.3045 -0.0533
  729loPI   C3A10309   6.974  13.423   7.571  0.3241 -0.0974 -0.0095
  729loPI   C4A10310   6.982  13.457   7.990 -0.0585  0.1868 -0.2268
  729loPI   C5A10311   6.886  13.343   8.499 -0.0212  0.2442 -0.0960
  729loPI   C6A10312   6.897  13.359   8.944 -0.1974  0.3784 -0.2412
  729loPI   C1B10313   7.558  13.505   6.906 -0.0424  0.3230 -0.1278
  729loPI   C2B10314   7.465  13.533   7.426  0.0195  0.0296 -0.2173
  729loPI   C3B10315   7.442  13.504   7.880 -0.0545 -0.1684  0.0568
  729loPI   C4B10316   7.438  13.497   8.301 -0.0150 -0.5595  0.0155
  730loPI    C110317   1.739   8.800   6.174  0.0046 -0.1127  0.0552
  730loPI    C210318   1.557   8.835   5.820  0.0234 -0.1860  0.0382
  730loPI    C310319   1.860   8.578   5.865  0.3566  0.1844 -0.0287
  730loPI   PO410320   1.554   8.787   6.426 -0.1854  0.1703  0.2354
  730loPI   GL110321   1.791   8.556   6.803  0.0189  0.0157  0.0361
  730loPI   GL210322   1.721   8.871   6.908  0.0499 -0.0248  0.0963
  730loPI   C1A10323   1.632   8.436   7.152  0.0388  0.0663  0.1235
  730loPI   C2A10324   1.753   8.558   7.448 -0.0909  0.4848 -0.1283
  730loPI   C3A10325   1.887   8.433   7.855  0.0434 -0.1764  0.1206
  730loPI   C4A10326   1.886   8.362   8.221 -0.1287 -0.1755 -0.2277
  730loPI   C5A10327   1.894   8.312   8.633 -0.0782  0.0067  0.1877
  730loPI   C6A10328   1.656   8.177   9.039  0.0334 -0.1010 -0.2095
  730loPI   C1B10329   1.978   9.017   7.281  0.0029 -0.1070 -0.0489
  730loPI   C2B10330   2.047   9.030   7.688  0.0235  0.0746 -0.1786
  730loPI   C3B10331   2.100   8.854   8.048 -0.0982  0.3156 -0.1558
  730loPI   C4B10332   2.082   8.903   8.510  0.0669 -0.1356 -0.1824
  731loPI    C110333   8.795   4.476   6.122 -0.0067  0.0774  0.0852
  731loPI    C210334   8.497   4.433   5.859 -0.0936  0.0949  0.1797
  731loPI    C310335   8.853   4.263   5.788 -0.0274  0.3365 -0.0866
  731loPI   PO410336   8.710   4.396   6.334 -0.0998 -0.1612  0.3121
  731loPI   GL110337   8.593   4.396   6.677 -0.4072  0.0865  0.0509
  731loPI   GL210338   8.325   4.686   6.636 -0.0581 -0.1772 -0.1096
  731loPI   C1A10339   8.544   4.428   7.170 -0.1078  0.0802  0.3596
  731loPI   C2A10340   8.554   4.548   7.609 -0.0219  0.0427  0.0133
  731loPI   C3A10341   8.462   4.523   8.049 -0.0139 -0.2439 -0.1770
  731loPI   C4A10342   8.532   4.515   8.546 -0.0806  0.0335  0.0229
  731loPI   C5A10343   8.636   4.582   8.968  0.0006  0.0714 -0.0390
  731loPI   C6A10344   8.988   4.552   9.210  0.0854 -0.0416  0.0067
  731loPI   C1B10345   8.263   4.782   7.005 -0.1369 -0.0106  0.3319
  731loPI   C2B10346   8.233   4.952   7.400  0.0577 -0.0794  0.1357
  731loPI   C3B10347   8.218   4.865   7.784  0.0822  0.0472  0.0538
  731loPI   C4B10348   8.276   4.996   8.226  0.3475 -0.1636 -0.1816
  732loPI    C110349  11.314  10.249   5.800  0.0476 -0.1420 -0.0022
  732loPI    C210350  11.115  10.165   5.463  0.1210 -0.1597 -0.0413
  732loPI    C310351  11.343   9.885   5.636  0.3335 -0.0557 -0.1498
  732loPI   PO410352  11.198  10.302   5.993 -0.1380  0.0216  0.2271
  732loPI   GL110353  11.290  10.327   6.452  0.1515  0.1160  0.1033
  732loPI   GL210354  11.278  10.694   6.432 -0.2123 -0.1092  0.2572
  732loPI   C1A10355  11.184  10.400   6.810  0.1668 -0.3243 -0.1659
  732loPI   C2A10356  11.110  10.370   7.247 -0.0297 -0.2218  0.2212
  732loPI   C3A10357  11.053  10.345   7.683  0.1223 -0.3185 -0.3331
  732loPI   C4A10358  11.013  10.485   8.131  0.0658 -0.0216  0.0868
  732loPI   C5A10359  11.226  10.388   8.441 -0.0509 -0.2649  0.1612
  732loPI   C6A10360  11.577  10.264   8.719  0.0568 -0.1593 -0.1649
  732loPI   C1B10361  11.356  10.886   6.886 -0.0984 -0.3867 -0.0698
  732loPI   C2B10362  11.312  10.808   7.390 -0.1838  0.1325 -0.0576
  732loPI   C3B10363  11.289  10.743   7.777 -0.1849 -0.0499  0.0917
  732loPI   C4B10364  11.348  10.859   8.138  0.0287  0.1657  0.0747
  733loPI    C110365  15.296  14.225   6.030 -0.2923 -0.0668  0.2330
  733loPI    C210366  15.115  14.452   5.755 -0.0155  0.0417  0.1365
  733loPI    C310367  15.184  14.065   5.681  0.0114  0.0583  0.0741
  733loPI   PO410368  15.201  14.220   6.172  0.3326 -0.0456  0.2979
  733loPI   GL110369  15.131  14.259   6.603 -0.0635 -0.1984 -0.3733
  733loPI   GL210370  15.332  14.452   6.801 -0.2191 -0.1748 -0.0274
  733loPI   C1A10371  15.146  14.065   7.049  0.0880  0.1576 -0.0100
  733loPI   C2A10372  15.048  14.011   7.440  0.3078 -0.0286 -0.0242
  733loPI   C3A10373  15.135  13.927   7.790 -0.1355 -0.4897 -0.3578
  733loPI   C4A10374  15.184  13.886   8.227  0.1493 -0.0854 -0.0879
  733loPI   C5A10375  15.015  13.810   8.579  0.0298  0.1209  0.1506
  733loPI   C6A10376  14.624  13.581   8.684  0.1110 -0.1486 -0.2676
  733loPI   C1B10377  15.321  14.544   7.225 -0.0634 -0.1809 -0.2451
  733loPI   C2B10378  15.303  14.479   7.657 -0.0508  0.0590  0.2407
  733loPI   C3B10379  15.384  14.365   8.070  0.0791 -0.0348 -0.3244
  733loPI   C4B10380  15.166  14.318   8.429  0.0592 -0.4434 -0.0783
  734loPI    C110381   7.304  16.386   6.225  0.0855  0.0469 -0.0593
  734loPI    C210382   6.974  16.310   6.437  0.2184 -0.3132  0.0267
  734loPI    C310383   6.955  16.333   6.038  0.0509 -0.1003  0.0450
  734loPI   PO410384   7.536  16.192   6.357  0.2071 -0.0646  0.1726
  734loPI   GL110385   7.623  16.123   6.728  0.0239 -0.1576 -0.1830
  734loPI   GL210386   7.546  15.757   6.902 -0.0739  0.2083  0.0931
  734loPI   C1A10387   7.687  16.235   7.221  0.0916  0.0195  0.2735
  734loPI   C2A10388   7.622  16.151   7.639  0.0883  0.0218  0.0956
  734loPI   C3A10389   7.610  16.276   7.977 -0.0442 -0.1643 -0.3213
  734loPI   C4A10390   7.604  16.242   8.408 -0.2399 -0.1798  0.3799
  734loPI   C5A10391   7.764  15.917   8.642 -0.0464  0.0911 -0.2461
  734loPI   C6A10392   7.937  15.610   8.889  0.0334 -0.0978 -0.1131
  734loPI   C1B10393   7.501  15.761   7.352 -0.2962 -0.0320  0.0316
  734loPI   C2B10394   7.445  15.681   7.782  0.1687 -0.0720  0.0495
  734loPI   C3B10395   7.539  15.744   8.191 -0.1336  0.1568  0.0527
  734loPI   C4B10396   7.467  15.532   8.610 -0.2074 -0.0230 -0.3304
  735loPI    C110397   9.664  13.233   5.619  0.0385  0.1578  0.2244
  735loPI    C210398   9.739  13.541   5.375  0.0485  0.1079  0.1642
  735loPI    C310399  10.036  13.296   5.485  0.0517  0.1544  0.2593
  735loPI   PO410400   9.503  13.293   5.771 -0.0634 -0.3091  0.1413
  735loPI   GL110401   9.407  13.203   6.139  0.3448 -0.0002  0.1252
  735loPI   GL210402   9.320  13.317   6.302  0.0190  0.1465 -0.3912
  735loPI   C1A10403   9.725  13.201   6.555 -0.1008  0.3794  0.0427
  735loPI   C2A10404   9.806  13.229   6.966 -0.2528 -0.1229  0.0533
  735loPI   C3A10405   9.892  13.307   7.452  0.0036  0.0745 -0.1193
  735loPI   C4A10406   9.941  13.287   7.884  0.1562 -0.2288 -0.2032
  735loPI   C5A10407   9.894  13.380   8.330  0.3533 -0.0375  0.2190
  735loPI   C6A10408   9.712  13.686   8.542  0.0140  0.1507 -0.2018
  735loPI   C1B10409   9.277  13.142   6.710  0.0171 -0.2035 -0.1225
  735loPI   C2B10410   9.347  13.169   7.151 -0.1251 -0.1506  0.5664
  735loPI   C3B10411   9.414  13.212   7.503  0.2365 -0.2497 -0.0659
  735loPI   C4B10412   9.262  13.245   7.944  0.1242 -0.0540 -0.1277
  736loPI    C110413   9.573  10.697   5.797  0.0178 -0.2014  0.0793
  736loPI    C210414   9.749  10.639   5.442 -0.1636 -0.1039 -0.0275
  736loPI    C310415   9.376  10.508   5.505 -0.0879 -0.2291  0.1679
  736loPI   PO410416   9.550  10.723   6.127  0.2511 -0.0839 -0.0773
  736loPI   GL110417   9.197  10.635   6.426  0.0124  0.0086  0.1018
  736loPI   GL210418   9.338  10.976   6.566 -0.3079 -0.0253 -0.2351
  736loPI   C1A10419   9.139  10.476   6.825  0.1737 -0.0296 -0.1268
  736loPI   C2A10420   9.181  10.449   7.267  0.0681  0.2863 -0.2358
  736loPI   C3A10421   9.058  10.546   7.799  0.3200  0.0128 -0.4311
  736loPI   C4A10422   9.099  10.472   8.289 -0.0750 -0.0644  0.1575
  736loPI   C5A10423   9.226  10.687   8.545 -0.2281  0.0246 -0.3807
  736loPI   C6A10424   9.250  11.173   8.702 -0.1046  0.3886 -0.1498
  736loPI   C1B10425   9.314  10.917   6.961 -0.0562  0.3615 -0.1919
  736loPI   C2B10426   9.317  10.900   7.396 -0.0198  0.1705  0.1744
  736loPI   C3B10427   9.341  10.978   7.785 -0.2879 -0.2907  0.1183
  736loPI   C4B10428   9.238  11.053   8.221  0.0253  0.2481 -0.1269
  737loPI    C110429   1.721  10.930   6.175  0.1622  0.0452 -0.1099
  737loPI    C210430   1.433  11.103   6.392  0.2725  0.1201 -0.0221
  737loPI    C310431   1.382  11.050   5.999  0.0483 -0.0663  0.0295
  737loPI   PO410432   1.709  10.683   6.352  0.0520  0.0783  0.0855
  737loPI   GL110433   1.559  10.786   6.768 -0.3839 -0.1745 -0.1757
  737loPI   GL210434   1.827  11.066   6.809  0.2127  0.2881  0.0752
  737loPI   C1A10435   1.458  10.796   7.084 -0.0801  0.2359  0.1752
  737loPI   C2A10436   1.537  10.817   7.543  0.0110  0.1266  0.1777
  737loPI   C3A10437   1.529  10.746   7.984  0.1889 -0.1045 -0.3248
  737loPI   C4A10438   1.694  10.682   8.420  0.1030 -0.1155 -0.1717
  737loPI   C5A10439   1.822  10.502   8.739  0.2131  0.2881 -0.2310
  737loPI   C6A10440   1.782  10.105   8.985  0.3661  0.2268  0.2024
  737loPI   C1B10441   1.748  11.208   7.302  0.1909  0.0043  0.0330
  737loPI   C2B10442   1.687  11.298   7.733  0.0228 -0.2041 -0.0238
  737loPI   C3B10443   1.885  11.291   8.188  0.0182  0.3125 -0.1553
  737loPI   C4B10444   2.025  11.123   8.610 -0.0398  0.2310 -0.1707
  738loPI    C110445  11.169  15.328   5.843  0.2255  0.0018  0.0982
  738loPI    C210446  10.944  15.615   5.679 -0.2474 -0.2678  0.2532
  738loPI    C310447  11.325  15.569   5.565 -0.3131  0.0921 -0.1378
  738loPI   PO410448  11.222  15.281   6.089 -0.0004 -0.0311 -0.0692
  738loPI   GL110449  11.343  15.510   6.381  0.0281 -0.1028 -0.1090
  738loPI   GL210450  11.136  15.816   6.527 -0.0459  0.2144  0.1834
  738loPI   C1A10451  11.253  15.288   6.766 -0.4150  0.0901  0.0991
  738loPI   C2A10452  11.198  15.267   7.293 -0.0777 -0.2229  0.0921
  738loPI   C3A10453  11.254  15.260   7.667 -0.2591 -0.0096  0.3148
  738loPI   C4A10454  11.227  15.179   8.138 -0.0141 -0.3463 -0.0657
  738loPI   C5A10455  11.043  14.821   8.287 -0.1492  0.1408 -0.2016
  738loPI   C6A10456  10.924  14.762   8.593  0.0855  0.1159 -0.2029
  738loPI   C1B10457  10.962  15.736   6.927 -0.2304 -0.2146 -0.0810
  738loPI   C2B10458  10.866  15.662   7.370 -0.0806 -0.0390  0.1794
  738loPI   C3B10459  10.938  15.637   7.835  0.1460  0.2041  0.2197
  738loPI   C4B10460  10.906  15.774   8.268 -0.0824  0.0044  0.2578
  739loPI    C110461  15.596  11.574   6.027 -0.1332 -0.0344  0.0364
  739loPI    C210462  15.453  11.212   6.122 -0.0340 -0.0890 -0.0208
  739loPI    C310463  15.526  11.305   5.739 -0.1781  0.0360 -0.0189
  739loPI   PO410464  15.464  11.703   6.192  0.1559  0.1196  0.2241
  739loPI   GL110465  15.194  11.738   6.608  0.0143  0.0959  0.0032
  739loPI   GL210466  15.397  12.086   6.539 -0.2661 -0.1104 -0.2678
  739loPI   C1A10467  15.118  11.644   6.981  0.0637 -0.2420  0.0975
  739loPI   C2A10468  15.184  11.715   7.459  0.2054  0.1967  0.1880
  739loPI   C3A10469  15.188  11.740   7.843 -0.4664  0.0045  0.0206
  739loPI   C4A10470  15.181  11.685   8.236  0.2239  0.0883  0.4204
  739loPI   C5A10471  15.283  11.798   8.565 -0.2879  0.2332 -0.0256
  739loPI   C6A10472  15.268  12.174   8.738  0.2602  0.4444 -0.1162
  739loPI   C1B10473  15.290  12.136   6.917  0.3225  0.0884 -0.1089
  739loPI   C2B10474  15.386  12.204   7.405  0.0091 -0.0244  0.0269
  739loPI   C3B10475  15.386  12.210   7.795 -0.0104 -0.0131 -0.0649
  739loPI   C4B10476  15.346  12.184   8.260  0.0334 -0.0594 -0.0223
  740loPI    C110477   6.376   6.768   5.625 -0.2580  0.0009  0.1387
  740loPI    C210478   6.329   7.157   5.703  0.1319  0.0824 -0.0136
  740loPI    C310479   6.517   7.041   5.369 -0.1586 -0.2418 -0.0701
  740loPI   PO410480   6.447   6.718   5.925 -0.1371 -0.0714  0.1940
  740loPI   GL110481   6.418   6.741   6.301 -0.2564  0.0966  0.0799
  740loPI   GL210482   6.088   6.751   6.436 -0.0152 -0.1564  0.1026
  740loPI   C1A10483   6.670   6.631   6.666  0.2184 -0.2238 -0.0030
  740loPI   C2A10484   6.680   6.673   7.105  0.0265  0.2327 -0.0032
  740loPI   C3A10485   6.619   6.713   7.555  0.3568  0.3270  0.1819
  740loPI   C4A10486   6.515   6.749   7.969  0.1687 -0.3541 -0.0086
  740loPI   C5A10487   6.655   6.761   8.417 -0.0485  0.1032  0.2287
  740loPI   C6A10488   6.999   6.793   8.658  0.1368 -0.1496  0.2814
  740loPI   C1B10489   6.069   6.630   6.780  0.0403  0.1236 -0.3098
  740loPI   C2B10490   6.153   6.635   7.223 -0.2776  0.0187 -0.2050
  740loPI   C3B10491   6.087   6.688   7.646  0.0798 -0.1308 -0.3668
  740loPI   C4B10492   6.018   6.666   8.083  0.1316 -0.2252  0.0452
  741loPI    C110493   5.561  15.001   6.024  0.0617  0.1347  0.2371
  741loPI    C210494   5.313  15.277   5.875  0.0468 -0.1364 -0.2618
  741loPI    C310495   5.629  15.156   5.661  0.4061 -0.0636  0.2122
  741loPI   PO410496   5.623  15.028   6.298  0.0914 -0.0406 -0.1329
  741loPI   GL110497   5.699  15.029   6.702 -0.0242  0.2304  0.0493
  741loPI   GL210498   5.939  14.811   6.723  0.3165  0.0742  0.1814
  741loPI   C1A10499   5.703  15.084   7.138 -0.4235  0.6613 -0.1241
  741loPI   C2A10500   5.714  15.099   7.577  0.1236 -0.1506 -0.0524
  741loPI   C3A10501   5.680  15.120   8.021 -0.0326  0.0110  0.1388
  741loPI   C4A10502   5.670  15.269   8.519 -0.2462  0.0725  0.0347
  741loPI   C5A10503   5.947  15.514   8.773  0.0875  0.0482 -0.1724
  741loPI   C6A10504   6.105  15.971   8.860 -0.1843  0.1194 -0.0290
  741loPI   C1B10505   6.077  14.756   7.145  0.1437 -0.1018 -0.2637
  741loPI   C2B10506   6.101  14.738   7.543 -0.0856  0.0860  0.1465
  741loPI   C3B10507   6.097  14.719   7.969 -0.0458 -0.1241  0.2713
  741loPI   C4B10508   5.964  14.774   8.366 -0.0753 -0.0416 -0.0344
  742loPI    C110509   9.008   7.448   5.827  0.0230  0.2784 -0.0471
  742loPI    C210510   9.101   7.415   5.439 -0.0364  0.0950 -0.0469
  742loPI    C310511   8.769   7.610   5.549 -0.1678 -0.0934 -0.1057
  742loPI   PO410512   9.000   7.234   5.902 -0.5183  0.1116 -0.1110
  742loPI   GL110513   8.866   7.225   6.333 -0.1734 -0.0896 -0.0410
  742loPI   GL210514   8.895   7.497   6.321  0.0559  0.0298  0.0511
  742loPI   C1A10515   8.978   7.136   6.760  0.0363  0.0383 -0.3600
  742loPI   C2A10516   8.955   7.262   7.131 -0.1689 -0.1049 -0.0021
  742loPI   C3A10517   8.987   7.228   7.556 -0.2588 -0.0268 -0.1644
  742loPI   C4A10518   8.895   7.191   8.006 -0.0409  0.1445 -0.0189
  742loPI   C5A10519   8.858   7.237   8.442 -0.0835 -0.2857  0.2419
  742loPI   C6A10520   8.478   7.110   8.664 -0.2440  0.1280 -0.1317
  742loPI   C1B10521   8.724   7.670   6.586 -0.4032 -0.0439  0.0294
  742loPI   C2B10522   8.681   7.647   7.005 -0.2612  0.0241 -0.1120
  742loPI   C3B10523   8.623   7.608   7.430 -0.0657 -0.2725 -0.0713
  742loPI   C4B10524   8.606   7.559   7.882 -0.1839  0.3090 -0.1755
  743loPI    C110525   1.749  14.057   6.149 -0.1228 -0.1161  0.2499
  743loPI    C210526   1.439  14.016   5.900 -0.0200 -0.0416  0.1085
  743loPI    C310527   1.813  14.015   5.757  0.0331  0.1800  0.2404
  743loPI   PO410528   1.597  13.931   6.357  0.1294 -0.2058  0.0586
  743loPI   GL110529   1.496  13.899   6.662 -0.0332 -0.1797  0.2148
  743loPI   GL210530   1.636  13.685   6.840 -0.4398  0.0284 -0.0458
  743loPI   C1A10531   1.406  14.074   7.067 -0.3197 -0.2551  0.0580
  743loPI   C2A10532   1.423  14.024   7.523  0.0162 -0.0092  0.4491
  743loPI   C3A10533   1.314  13.956   8.054 -0.0594  0.0046  0.3909
  743loPI   C4A10534   1.363  14.113   8.473  0.1502 -0.0914  0.5186
  743loPI   C5A10535   1.591  14.011   8.794 -0.2258  0.1874 -0.1210
  743loPI   C6A10536   2.114  14.033   8.710  0.1794 -0.0638 -0.2433
  743loPI   C1B10537   1.509  13.495   7.205 -0.0982 -0.0035  0.2743
  743loPI   C2B10538   1.700  13.591   7.491 -0.1177  0.3679  0.1927
  743loPI   C3B10539   1.708  13.583   7.960 -0.1712 -0.0383  0.0922
  743loPI   C4B10540   1.692  13.719   8.377 -0.1554  0.0172  0.0575
  744loPI    C110541   6.655   6.289   5.953 -0.2306  0.2763 -0.0080
  744loPI    C210542   6.478   5.949   5.842  0.1241  0.0897 -0.0159
  744loPI    C310543   6.390   6.291   5.654 -0.1759 -0.0095 -0.0607
  744loPI   PO410544   6.704   6.352   6.144  0.2690 -0.0768 -0.1220
  744loPI   GL110545   6.625   6.179   6.483 -0.2111  0.0271 -0.1528
  744loPI   GL210546   6.305   6.247   6.618 -0.2075 -0.2178  0.0880
  744loPI   C1A10547   6.905   6.142   6.798  0.1544 -0.0182 -0.3663
  744loPI   C2A10548   6.968   6.266   7.089 -0.0443  0.2181 -0.0802
  744loPI   C3A10549   6.946   6.318   7.473 -0.2025 -0.0820 -0.0246
  744loPI   C4A10550   6.889   6.324   7.910  0.0499  0.2542 -0.0708
  744loPI   C5A10551   6.879   6.206   8.298  0.0433 -0.0510 -0.3113
  744loPI   C6A10552   7.112   5.793   8.446 -0.0562 -0.1698 -0.2361
  744loPI   C1B10553   6.468   6.210   7.021  0.0554  0.0349 -0.1628
  744loPI   C2B10554   6.462   6.264   7.354 -0.1887 -0.0918 -0.0234
  744loPI   C3B10555   6.374   6.305   7.792  0.0509  0.1227 -0.1083
  744loPI   C4B10556   6.361   6.287   8.312  0.0667 -0.0149 -0.1023
  745loPI    C110557  13.575   5.796   6.062  0.1141  0.2180 -0.1366
  745loPI    C210558  13.502   5.472   5.840  0.2096  0.0795  0.0316
  745loPI    C310559  13.849   5.667   5.801  0.3349 -0.0970  0.2394
  745loPI   PO410560  13.540   5.692   6.343  0.1452 -0.0528 -0.3490
  745loPI   GL110561  13.651   5.395   6.570 -0.1931  0.1278  0.4231
  745loPI   GL210562  13.588   5.168   6.640  0.1521  0.2188  0.1809
  745loPI   C1A10563  13.340   5.425   6.986 -0.2083  0.0737 -0.1953
  745loPI   C2A10564  13.280   5.490   7.375 -0.2172  0.0471 -0.0253
  745loPI   C3A10565  13.229   5.598   7.691  0.1415 -0.0533  0.0151
  745loPI   C4A10566  13.283   5.549   8.102 -0.0234  0.0351 -0.3895
  745loPI   C5A10567  13.110   5.514   8.445 -0.2901  0.1208  0.1688
  745loPI   C6A10568  12.838   5.653   8.806  0.1326  0.3400  0.0069
  745loPI   C1B10569  13.553   4.993   7.027  0.2377  0.1895  0.2294
  745loPI   C2B10570  13.596   5.021   7.482  0.1653  0.0923 -0.1149
  745loPI   C3B10571  13.502   5.122   7.905 -0.3032  0.0724 -0.0211
  745loPI   C4B10572  13.386   5.036   8.369  0.1397  0.2066 -0.2516
  746loPI    C110573  14.494  11.821   6.084 -0.1230  0.0257  0.1853
  746loPI    C210574  14.726  11.944   5.783 -0.1953  0.1261  0.1702
  746loPI    C310575  14.357  12.093   5.825 -0.2597 -0.0366  0.1906
  746loPI   PO410576  14.644  11.844   6.300 -0.0192  0.1335  0.1544
  746loPI   GL110577  14.838  12.211   6.616  0.1458 -0.1030  0.2939
  746loPI   GL210578  14.826  11.989   6.844  0.1620  0.4424 -0.1624
  746loPI   C1A10579  14.675  12.466   6.923  0.1168 -0.0802  0.0177
  746loPI   C2A10580  14.642  12.597   7.407 -0.0186 -0.1405 -0.2548
  746loPI   C3A10581  14.622  12.579   7.803  0.0468 -0.3496  0.3236
  746loPI   C4A10582  14.409  12.523   8.238  0.0010 -0.2564  0.2546
  746loPI   C5A10583  14.471  12.247   8.646  0.0774  0.1482 -0.0904
  746loPI   C6A10584  14.401  11.936   8.943 -0.0440 -0.0692 -0.0001
  746loPI   C1B10585  14.896  12.128   7.241  0.1031  0.1901  0.1498
  746loPI   C2B10586  14.876  12.166   7.622  0.1415 -0.0305  0.2163
  746loPI   C3B10587  14.857  12.133   8.021 -0.4141 -0.0203 -0.0866
  746loPI   C4B10588  14.872  12.015   8.471 -0.0038  0.2301  0.3724
  747loPI    C110589  12.210   8.685   5.989  0.0947 -0.2095 -0.0005
  747loPI    C210590  12.518   8.778   5.751 -0.1856  0.1232 -0.2420
  747loPI    C310591  12.306   8.445   5.684 -0.1346  0.1082 -0.3305
  747loPI   PO410592  12.357   8.654   6.241 -0.0583  0.0273 -0.0858
  747loPI   GL110593  12.257   8.792   6.635  0.0366 -0.1601 -0.4462
  747loPI   GL210594  11.884   8.685   6.742 -0.1297 -0.0807 -0.2579
  747loPI   C1A10595  12.299   8.713   7.101 -0.2683 -0.1700  0.2372
  747loPI   C2A10596  12.234   8.601   7.588 -0.0344  0.0754 -0.0138
  747loPI   C3A10597  12.295   8.583   8.053  0.1189 -0.0131 -0.0909
  747loPI   C4A10598  12.218   8.577   8.407  0.1748  0.4714  0.2949
  747loPI   C5A10599  12.064   8.265   8.696  0.0279  0.2323  0.0317
  747loPI   C6A10600  12.053   7.945   9.105 -0.0935 -0.0169  0.0345
  747loPI   C1B10601  11.809   8.730   7.123 -0.1427 -0.0767  0.1763
  747loPI   C2B10602  11.716   8.616   7.483  0.1414 -0.1206  0.1578
  747loPI   C3B10603  11.715   8.563   7.859  0.0994  0.0770  0.3029
  747loPI   C4B10604  11.826   8.309   8.260 -0.2132 -0.0794 -0.2156
  748loPI    C110605  14.091  12.832   5.998 -0.0024  0.1046  0.0716
  748loPI    C210606  14.490  12.865   5.979 -0.0120  0.0571 -0.2829
  748loPI    C310607  14.298  12.614   5.733 -0.2369 -0.1446  0.0889
  748loPI   PO410608  14.060  12.754   6.276  0.4159 -0.0420  0.1983
  748loPI   GL110609  14.128  12.895   6.672  0.1202 -0.0431 -0.1041
  748loPI   GL210610  14.285  13.015   6.863 -0.0354  0.2692  0.3745
  748loPI   C1A10611  14.129  12.472   6.907 -0.1447 -0.0002  0.0858
  748loPI   C2A10612  14.174  12.496   7.376 -0.2630  0.0682  0.0986
  748loPI   C3A10613  14.017  12.471   7.816 -0.0071  0.2782 -0.0614
  748loPI   C4A10614  13.831  12.456   8.097  0.3849  0.0190 -0.1138
  748loPI   C5A10615  13.823  12.259   8.559 -0.1842 -0.2186  0.1169
  748loPI   C6A10616  13.771  12.425   8.997  0.0839 -0.0112  0.4174
  748loPI   C1B10617  14.393  12.983   7.291  0.0016  0.1641  0.2101
  748loPI   C2B10618  14.303  12.947   7.721 -0.0683 -0.2082  0.1500
  748loPI   C3B10619  14.086  12.977   8.081 -0.1108  0.2067 -0.1144
  748loPI   C4B10620  14.148  12.786   8.566 -0.0287  0.0758 -0.0202
  749loPI    C110621   5.433  14.022   5.983  0.0055 -0.1169  0.0616
  749loPI    C210622   5.035  14.059   5.959 -0.0015 -0.2304 -0.0049
  749loPI    C310623   5.270  14.236   5.687 -0.0073 -0.1852  0.0192
  749loPI   PO410624   5.499  14.106   6.206  0.1701  0.4183 -0.0438
  749loPI   GL110625   5.488  14.095   6.598 -0.0607  0.0443 -0.2474
  749loPI   GL210626   5.169  13.956   6.505 -0.1662  0.0107 -0.3255
  749loPI   C1A10627   5.818  14.164   6.909 -0.0524 -0.0382  0.1023
  749loPI   C2A10628   5.792  14.219   7.351  0.2779  0.0266  0.2034
  749loPI   C3A10629   5.909  14.169   7.842 -0.0621  0.0134 -0.1639
  749loPI   C4A10630   5.933  14.278   8.271 -0.0014  0.0809 -0.0909
  749loPI   C5A10631   5.807  14.238   8.613 -0.1872 -0.0426  0.0456
  749loPI   C6A10632   5.691  14.387   8.989  0.1144 -0.1186  0.1014
  749loPI   C1B10633   5.223  14.045   7.036  0.1903 -0.0321  0.1428
  749loPI   C2B10634   5.279  14.061   7.487 -0.2800 -0.0700  0.1522
  749loPI   C3B10635   5.369  14.178   7.834  0.0821 -0.0966  0.1687
  749loPI   C4B10636   5.447  14.124   8.240 -0.1212  0.0139  0.1378
  750loPI    C110637  12.404  10.548   6.105  0.0295  0.2565 -0.3131
  750loPI    C210638  12.172  10.500   5.783 -0.0476 -0.0179 -0.2198
  750loPI    C310639  12.486  10.259   5.840  0.0346  0.1051 -0.1486
  750loPI   PO410640  12.198  10.667   6.290  0.0896  0.1679  0.4076
  750loPI   GL110641  11.945  10.468   6.513 -0.0003 -0.0006  0.0775
  750loPI   GL210642  11.762  10.357   6.694  0.1153 -0.4198  0.1175
  750loPI   C1A10643  12.150  10.441   6.943 -0.0461 -0.0240  0.1554
  750loPI   C2A10644  12.133  10.440   7.310  0.1542 -0.0058  0.0720
  750loPI   C3A10645  12.171  10.441   7.760  0.1853 -0.0694  0.1384
  750loPI   C4A10646  12.162  10.463   8.185 -0.1077  0.0567 -0.1692
  750loPI   C5A10647  12.166  10.489   8.689  0.2141  0.1684 -0.2797
  750loPI   C6A10648  12.327  10.836   8.895  0.0247  0.0300  0.1082
  750loPI   C1B10649  11.602  10.447   7.109  0.1622 -0.0081  0.0549
  750loPI   C2B10650  11.588  10.371   7.582 -0.1783 -0.0943 -0.0855
  750loPI   C3B10651  11.538  10.326   8.005 -0.0309  0.1617 -0.3103
  750loPI   C4B10652  11.679  10.519   8.333 -0.0820  0.1823 -0.2824
  751loPI    C110653   2.802  16.020   6.163 -0.0021 -0.1550  0.1499
  751loPI    C210654   2.510  16.282   6.081  0.0943 -0.0287  0.2064
  751loPI    C310655   2.690  16.084   5.784 -0.1478 -0.2166  0.1818
  751loPI   PO410656   2.706  15.969   6.453  0.0494 -0.1327 -0.0809
  751loPI   GL110657   2.433  15.806   6.873 -0.1323 -0.0681  0.0156
  751loPI   GL210658   2.675  16.011   7.059 -0.1415  0.0962  0.2046
  751loPI   C1A10659   2.393  15.557   7.155  0.0260 -0.0527  0.1202
  751loPI   C2A10660   2.384  15.582   7.600 -0.4818  0.0593 -0.0979
  751loPI   C3A10661   2.411  15.469   7.976  0.1712 -0.2658  0.1357
  751loPI   C4A10662   2.391  15.441   8.402 -0.0258 -0.0020  0.1075
  751loPI   C5A10663   2.451  15.467   8.782  0.1391  0.2835 -0.0484
  751loPI   C6A10664   2.666  15.691   9.113  0.0893  0.1074 -0.1794
  751loPI   C1B10665   2.684  16.040   7.555 -0.1029 -0.1822  0.0195
  751loPI   C2B10666   2.686  16.018   7.962 -0.0189 -0.2547 -0.2392
  751loPI   C3B10667   2.642  15.945   8.342  0.2174  0.0336 -0.1530
  751loPI   C4B10668   2.419  15.919   8.650  0.2335 -0.1278 -0.1365
  752loPI    C110669   8.581  16.358   5.988 -0.0345 -0.0402  0.0172
  752loPI    C210670   8.307  16.076   5.912 -0.0332 -0.0488  0.0446
  752loPI    C310671   8.345  16.390   5.667 -0.1381  0.0058  0.0975
  752loPI   PO410672   8.489  16.417   6.239 -0.3771 -0.1009 -0.2791
  752loPI   GL110673   8.395  16.180   6.526  0.2519  0.1849 -0.1684
  752loPI   GL210674   8.528  15.848   6.353 -0.1986 -0.1016  0.1242
  752loPI   C1A10675   8.118  16.284   6.871 -0.1134 -0.2813  0.2929
  752loPI   C2A10676   8.236  16.277   7.361  0.3187  0.0600 -0.0480
  752loPI   C3A10677   8.259  16.333   7.683  0.3713 -0.1973 -0.0897
  752loPI   C4A10678   8.159  16.283   8.107  0.0224  0.0217  0.1099
  752loPI   C5A10679   8.125  16.279   8.496  0.0101 -0.2085 -0.0645
  752loPI   C6A10680   8.090  16.165   8.925 -0.1363 -0.0663  0.0455
  752loPI   C1B10681   8.696  15.802   6.755  0.0795 -0.1018  0.3104
  752loPI   C2B10682   8.458  15.805   7.180 -0.1315  0.1601 -0.0582
  752loPI   C3B10683   8.581  15.868   7.583 -0.1919  0.3704 -0.2284
  752loPI   C4B10684   8.446  15.875   7.951 -0.0018  0.1899 -0.0231
  753loPI    C110685   1.857  15.630   6.221  0.2073 -0.0079 -0.1518
  753loPI    C210686   1.584  15.805   5.988 -0.0274 -0.1050  0.0465
  753loPI    C310687   1.887  15.604   5.823 -0.2230 -0.2225 -0.1764
  753loPI   PO410688   1.833  15.801   6.462 -0.1489 -0.0165 -0.1228
  753loPI   GL110689   1.958  15.874   6.888  0.5534  0.0086 -0.2536
  753loPI   GL210690   1.857  15.551   6.956 -0.0419 -0.1484 -0.0069
  753loPI   C1A10691   2.119  15.943   7.300  0.0618  0.0515 -0.1191
  753loPI   C2A10692   2.184  16.005   7.726 -0.0026 -0.0736  0.3174
  753loPI   C3A10693   2.134  15.836   8.118 -0.1610  0.0146  0.0456
  753loPI   C4A10694   1.995  15.972   8.458 -0.1771  0.2546 -0.0089
  753loPI   C5A10695   1.881  15.981   8.829 -0.0302  0.0548  0.0571
  753loPI   C6A10696   2.056  15.699   9.126 -0.2561  0.1553  0.0217
  753loPI   C1B10697   1.955  15.481   7.394 -0.1197 -0.1127  0.2432
  753loPI   C2B10698   1.904  15.510   7.833 -0.0274 -0.0842  0.1225
  753loPI   C3B10699   1.930  15.424   8.256  0.1451 -0.1635  0.0651
  753loPI   C4B10700   1.967  15.472   8.698 -0.0250  0.2401 -0.0968
  754loPI    C110701   9.796   6.898   5.969 -0.2398 -0.2831  0.0511
  754loPI    C210702   9.568   6.582   5.880 -0.0639 -0.3312 -0.2460
  754loPI    C310703   9.703   6.819   5.588 -0.2118  0.0355 -0.0250
  754loPI   PO410704   9.844   6.903   6.261 -0.1761 -0.0287 -0.0684
  754loPI   GL110705   9.888   6.602   6.527 -0.0123 -0.2102  0.0004
  754loPI   GL210706   9.739   6.758   6.702 -0.0830 -0.1914 -0.1420
  754loPI   C1A10707   9.598   6.309   6.835  0.0133  0.2269 -0.2762
  754loPI   C2A10708   9.440   6.272   7.186  0.0542 -0.0854 -0.0134
  754loPI   C3A10709   9.472   6.302   7.644 -0.0382  0.0872  0.1414
  754loPI   C4A10710   9.454   6.264   8.088 -0.1296  0.1275  0.0830
  754loPI   C5A10711   9.512   6.219   8.491 -0.2821  0.0482 -0.0246
  754loPI   C6A10712   9.490   5.860   8.757  0.1286 -0.1328 -0.0711
  754loPI   C1B10713   9.682   6.760   7.124 -0.1230 -0.0359 -0.0601
  754loPI   C2B10714   9.605   6.764   7.513 -0.1105  0.0100 -0.3827
  754loPI   C3B10715   9.860   6.716   7.932 -0.0754  0.2855 -0.2962
  754loPI   C4B10716   9.726   6.682   8.305  0.0813 -0.0743 -0.0725
  755loPI    C110717  13.914   3.383   6.331 -0.1300 -0.0525 -0.0036
  755loPI    C210718  13.684   3.169   6.084 -0.0305 -0.1044 -0.0520
  755loPI    C310719  14.036   3.309   5.957 -0.0598  0.0211  0.0046
  755loPI   PO410720  13.904   3.296   6.534 -0.0805  0.0162 -0.2121
  755loPI   GL110721  13.800   3.356   6.964  0.0287  0.1399  0.0848
  755loPI   GL210722  13.554   3.224   6.938 -0.2437 -0.0285 -0.0876
  755loPI   C1A10723  13.843   3.549   7.298 -0.0979 -0.0514 -0.0194
  755loPI   C2A10724  13.777   3.656   7.659 -0.0597 -0.2917  0.1114
  755loPI   C3A10725  13.794   3.679   8.068  0.0404  0.1465  0.1155
  755loPI   C4A10726  13.857   3.862   8.492 -0.1268  0.1287 -0.0857
  755loPI   C5A10727  14.159   3.988   8.820 -0.1627  0.0051 -0.0956
  755loPI   C6A10728  14.601   3.953   8.949  0.1636 -0.2650 -0.1283
  755loPI   C1B10729  13.514   3.219   7.409 -0.1101  0.0091  0.0095
  755loPI   C2B10730  13.555   3.215   7.847  0.0042 -0.3856  0.1429
  755loPI   C3B10731  13.638   3.309   8.289  0.0427 -0.0478  0.2541
  755loPI   C4B10732  13.490   3.286   8.738  0.0358 -0.3660 -0.0942
  756loPI    C110733  10.221  16.077   5.668  0.2038  0.0360 -0.1269
  756loPI    C210734  10.108  15.793   5.411  0.1954  0.1035 -0.1984
  756loPI    C310735  10.063  16.178   5.315  0.1633  0.1291 -0.0825
  756loPI   PO410736  10.071  16.066   5.904 -0.0933  0.1539 -0.0230
  756loPI   GL110737  10.020  15.875   6.370  0.1730 -0.1739 -0.2386
  756loPI   GL210738   9.931  16.162   6.462 -0.1967  0.2881  0.1164
  756loPI   C1A10739  10.154  15.437   6.722  0.0806 -0.0113 -0.0607
  756loPI   C2A10740  10.190  15.236   7.178 -0.0549  0.1654  0.0202
  756loPI   C3A10741  10.105  15.156   7.553  0.0413 -0.0452  0.1605
  756loPI   C4A10742  10.132  15.053   7.952 -0.1083 -0.1253 -0.1235
  756loPI   C5A10743  10.345  15.090   8.382 -0.3877 -0.4389  0.0661
  756loPI   C6A10744  10.266  15.166   8.808 -0.1093 -0.0964 -0.1484
  756loPI   C1B10745  10.064  16.128   6.850  0.1059 -0.0313 -0.0137
  756loPI   C2B10746  10.119  16.129   7.250 -0.0072  0.0420  0.1089
  756loPI   C3B10747  10.093  16.045   7.683  0.3729 -0.0167 -0.0037
  756loPI   C4B10748  10.080  15.957   8.034 -0.0594  0.0950 -0.4154
  757loPI    C110749  12.959  17.071   6.070  0.0175 -0.0709 -0.0913
  757loPI    C210750  12.683  16.848   5.885 -0.0327 -0.0187 -0.0801
  757loPI    C310751  12.964  16.673   6.110 -0.0279 -0.0755 -0.1299
  757loPI   PO410752  12.820  17.257   6.184 -0.0337  0.1982  0.2029
  757loPI   GL110753  12.825  17.288   6.685  0.1176  0.0348  0.1779
  757loPI   GL210754  13.011  17.103   7.017 -0.0616 -0.2117 -0.2574
  757loPI   C1A10755  12.628  17.473   7.028  0.1923 -0.1850 -0.2250
  757loPI   C2A10756  12.559  17.399   7.455 -0.0324  0.1893  0.0087
  757loPI   C3A10757  12.462  17.392   7.940 -0.0039 -0.2014  0.1362
  757loPI   C4A10758  12.398  17.514   8.330  0.0289  0.1486 -0.3819
  757loPI   C5A10759  12.619  17.306   8.582 -0.0957  0.2024 -0.0192
  757loPI   C6A10760  12.461  16.996   8.811  0.2535  0.2847  0.0573
  757loPI   C1B10761  12.970  17.118   7.426  0.2661 -0.1837  0.0501
  757loPI   C2B10762  12.965  17.075   7.849 -0.0225 -0.0301 -0.3328
  757loPI   C3B10763  12.976  17.069   8.314 -0.1900  0.0233  0.1537
  757loPI   C4B10764  12.953  16.974   8.751  0.1297 -0.1536  0.1592
  758loPI    C110765  15.285   2.121   6.376 -0.1502  0.1273 -0.0510
  758loPI    C210766  15.239   2.504   6.267  0.2309  0.2243  0.1121
  758loPI    C310767  15.475   2.262   6.053 -0.0364  0.0683 -0.0105
  758loPI   PO410768  15.351   2.247   6.724  0.1903  0.1670  0.0900
  758loPI   GL110769  15.214   2.212   7.144 -0.0803 -0.1736  0.1217
  758loPI   GL210770  15.494   2.178   7.237 -0.1920 -0.0166  0.1675
  758loPI   C1A10771  15.070   2.008   7.418 -0.0199  0.4796 -0.0228
  758loPI   C2A10772  15.030   1.963   7.821  0.1695  0.1709  0.2941
  758loPI   C3A10773  15.115   1.820   8.179 -0.0485 -0.2190  0.0780
  758loPI   C4A10774  15.175   1.738   8.600 -0.0591  0.0633 -0.0588
  758loPI   C5A10775  15.068   1.455   8.925 -0.1819  0.2180  0.1666
  758loPI   C6A10776  14.842   1.205   9.272  0.1724  0.0111  0.1561
  758loPI   C1B10777  15.455   2.249   7.638 -0.2560 -0.1089  0.1144
  758loPI   C2B10778  15.492   2.203   8.167 -0.0349  0.2618  0.0434
  758loPI   C3B10779  15.611   1.945   8.393  0.2707 -0.0421 -0.2635
  758loPI   C4B10780  15.740   1.851   8.814  0.1423  0.0030  0.0042
  759loPI    C110781   2.650   3.125   6.373  0.3394 -0.2007  0.1990
  759loPI    C210782   2.589   2.803   6.145  0.0877  0.0342 -0.0735
  759loPI    C310783   2.537   3.169   5.992  0.3200  0.2059  0.2467
  759loPI   PO410784   2.556   3.041   6.651 -0.1559 -0.1225 -0.1298
  759loPI   GL110785   2.705   3.100   6.993 -0.1360 -0.0511  0.0459
  759loPI   GL210786   3.047   3.068   7.102 -0.0449  0.1952 -0.0448
  759loPI   C1A10787   2.555   2.942   7.416  0.2732 -0.2151  0.4067
  759loPI   C2A10788   2.549   2.931   7.880  0.0120  0.0570 -0.1204
  759loPI   C3A10789   2.597   3.073   8.269 -0.2084 -0.1269 -0.0566
  759loPI   C4A10790   2.571   2.968   8.664  0.0409 -0.1527  0.0686
  759loPI   C5A10791   2.388   3.062   9.050 -0.0795 -0.0510 -0.1506
  759loPI   C6A10792   2.531   3.187   9.475  0.0585 -0.1186 -0.0169
  759loPI   C1B10793   3.051   2.969   7.613 -0.1113 -0.1541  0.0121
  759loPI   C2B10794   3.049   2.965   8.037  0.0936 -0.1209 -0.1871
  759loPI   C3B10795   3.082   3.017   8.501 -0.1404 -0.1344  0.2055
  759loPI   C4B10796   3.213   2.993   8.818 -0.1484 -0.0652  0.1140
  760loPI    C110797   0.407  16.093   6.578  0.3465 -0.1295  0.0657
  760loPI    C210798   0.543  16.092   6.202 -0.2182 -0.1400 -0.1475
  760loPI    C310799   0.459  15.746   6.385  0.0785 -0.1361  0.0016
  760loPI   PO410800   0.572  16.283   6.671  0.2374  0.1622 -0.0455
  760loPI   GL110801   0.699  16.497   7.056 -0.1690  0.0133  0.0258
  760loPI   GL210802   0.461  16.800   7.060 -0.3656  0.0352 -0.0321
  760loPI   C1A10803   0.758  16.308   7.428  0.2890 -0.1614 -0.0518
  760loPI   C2A10804   0.830  16.230   7.882  0.1259 -0.2657 -0.0417
  760loPI   C3A10805   0.760  16.120   8.263  0.0545  0.2421  0.0973
  760loPI   C4A10806   0.709  16.301   8.781  0.2539  0.1575  0.0457
  760loPI   C5A10807   0.570  16.439   9.132 -0.1777 -0.0118 -0.1217
  760loPI   C6A10808   0.275  16.732   9.151  0.0110  0.0328  0.1111
  760loPI   C1B10809   0.495  16.754   7.441 -0.1602  0.0021  0.3085
  760loPI   C2B10810   0.529  16.641   7.846  0.0249 -0.2009 -0.1813
  760loPI   C3B10811   0.447  16.633   8.251  0.1665 -0.3810 -0.1359
  760loPI   C4B10812   0.419  16.722   8.679 -0.2692 -0.0793  0.2334
  761loPI    C110813   8.197   7.210   5.731  0.3768  0.2353  0.0603
  761loPI    C210814   7.980   7.541   5.789 -0.2583 -0.1166 -0.2072
  761loPI    C310815   8.269   7.536   5.512 -0.2225  0.2189 -0.1790
  761loPI   PO410816   8.156   7.091   5.962 -0.1175  0.0631 -0.0741
  761loPI   GL110817   8.056   7.133   6.449 -0.0486 -0.1687  0.1591
  761loPI   GL210818   8.326   7.220   6.418 -0.0140 -0.3166  0.1272
  761loPI   C1A10819   7.964   7.171   6.893  0.4082  0.1004 -0.1275
  761loPI   C2A10820   7.916   7.172   7.352  0.0791  0.0446  0.2182
  761loPI   C3A10821   7.835   7.174   7.738  0.1648  0.3254 -0.2071
  761loPI   C4A10822   7.774   7.109   8.085  0.0645 -0.0554  0.0152
  761loPI   C5A10823   7.764   6.959   8.526  0.1557 -0.0298 -0.0211
  761loPI   C6A10824   8.037   6.925   8.882  0.1017  0.2011  0.1750
  761loPI   C1B10825   8.503   7.207   6.794 -0.1325  0.0628  0.0311
  761loPI   C2B10826   8.425   7.205   7.184 -0.2021  0.0021  0.0866
  761loPI   C3B10827   8.329   7.139   7.646  0.1087 -0.1366  0.0441
  761loPI   C4B10828   8.316   7.104   8.140  0.2643  0.2864  0.1709
  762loPI    C110829   4.152  10.489   6.180  0.1674 -0.0203 -0.1353
  762loPI    C210830   4.172  10.116   6.323 -0.0100  0.0802  0.1594
  762loPI    C310831   3.959  10.193   5.993  0.2191 -0.1161 -0.0376
  762loPI   PO410832   3.942  10.650   6.409  0.0977  0.0288 -0.0463
  762loPI   GL110833   3.881  10.395   6.681 -0.1749  0.0077 -0.1273
  762loPI   GL210834   3.712  10.199   6.535  0.2805  0.3589 -0.0506
  762loPI   C1A10835   3.802  10.213   7.082  0.2102 -0.1298  0.0930
  762loPI   C2A10836   3.823  10.270   7.396 -0.1944  0.1802 -0.2216
  762loPI   C3A10837   3.932  10.284   7.820  0.1043  0.1137  0.1932
  762loPI   C4A10838   3.994  10.266   8.236 -0.2114  0.0551 -0.0783
  762loPI   C5A10839   4.147  10.502   8.654 -0.3258  0.0876  0.0968
  762loPI   C6A10840   3.973  10.470   9.120  0.0184 -0.2157 -0.0441
  762loPI   C1B10841   3.386  10.289   6.902 -0.0474  0.1160 -0.5770
  762loPI   C2B10842   3.314  10.225   7.328  0.1207 -0.1194 -0.2533
  762loPI   C3B10843   3.332  10.250   7.795 -0.2361 -0.0349 -0.1187
  762loPI   C4B10844   3.394  10.297   8.277  0.0092  0.0029  0.3042
  763loPI    C110845   0.468  10.207   5.816  0.0284  0.0116 -0.1095
  763loPI    C210846   0.178  10.373   5.597  0.0598 -0.1109 -0.2451
  763loPI    C310847   0.558  10.390   5.472  0.1341  0.1879  0.0101
  763loPI   PO410848   0.314  10.250   6.061 -0.1894 -0.0185  0.1990
  763loPI   GL110849   0.320  10.260   6.404  0.0590  0.3107  0.0525
  763loPI   GL210850   0.421   9.895   6.499  0.0860 -0.0858 -0.0437
  763loPI   C1A10851   0.463  10.533   6.683 -0.2841 -0.1183  0.0105
  763loPI   C2A10852   0.582  10.648   7.095 -0.0088 -0.0341 -0.2092
  763loPI   C3A10853   0.504  10.740   7.503 -0.3121  0.1612 -0.1594
  763loPI   C4A10854   0.438  10.648   7.908 -0.2306  0.3495 -0.2269
  763loPI   C5A10855   0.623  10.585   8.234 -0.0344 -0.0191 -0.0088
  763loPI   C6A10856   0.761  10.736   8.619  0.1587 -0.0220  0.3756
  763loPI   C1B10857   0.272  10.090   6.879  0.1360 -0.1291 -0.0986
  763loPI   C2B10858   0.160  10.064   7.343 -0.0349  0.0981  0.2172
  763loPI   C3B10859   0.228  10.176   7.803 -0.2699  0.0006 -0.2238
  763loPI   C4B10860   0.294  10.121   8.231  0.0286  0.0379 -0.1526
  764loPI    C110861   7.195   7.299   5.953  0.0745  0.2924 -0.0597
  764loPI    C210862   6.961   7.104   5.694 -0.0924 -0.0542  0.3405
  764loPI    C310863   6.963   7.504   5.699 -0.0929 -0.0405 -0.1802
  764loPI   PO410864   7.153   7.199   6.135  0.0341 -0.1800 -0.0596
  764loPI   GL110865   7.033   7.171   6.500 -0.0421 -0.1029 -0.0443
  764loPI   GL210866   6.744   7.126   6.572 -0.1721  0.4918  0.0563
  764loPI   C1A10867   7.060   7.501   6.742 -0.3524 -0.0089 -0.0247
  764loPI   C2A10868   7.129   7.555   7.110  0.0909 -0.1193 -0.3714
  764loPI   C3A10869   7.123   7.555   7.535 -0.2722  0.1213 -0.3372
  764loPI   C4A10870   7.067   7.652   7.992 -0.1350 -0.0877 -0.1333
  764loPI   C5A10871   7.222   7.655   8.448  0.0933 -0.1131 -0.1679
  764loPI   C6A10872   7.621   7.898   8.522 -0.1119 -0.2224  0.1495
  764loPI   C1B10873   6.888   7.095   7.035 -0.1008  0.0112 -0.2837
  764loPI   C2B10874   6.799   7.151   7.482  0.3748  0.0482 -0.2292
  764loPI   C3B10875   6.851   7.132   7.874 -0.0230  0.0577  0.1399
  764loPI   C4B10876   6.770   7.199   8.302  0.0153 -0.0805  0.1497
  765loPI    C110877  16.825  11.845   6.108  0.0896  0.1217 -0.1354
  765loPI    C210878  16.525  12.020   5.909 -0.0037  0.0128 -0.0920
  765loPI    C310879  16.898  12.164   5.877 -0.0430  0.0867 -0.2263
  765loPI   PO410880  16.768  11.800   6.326  0.3500  0.1459 -0.2238
  765loPI   GL110881  16.806  11.828   6.671 -0.1205  0.1890  0.0020
  765loPI   GL210882  16.753  12.085   6.754 -0.0230  0.0038  0.1921
  765loPI   C1A10883  16.631  11.485   7.032 -0.0548  0.1408  0.2841
  765loPI   C2A10884  16.583  11.434   7.496 -0.0776 -0.0892  0.0470
  765loPI   C3A10885  16.507  11.466   7.969 -0.0996  0.3033 -0.0120
  765loPI   C4A10886  16.478  11.302   8.320 -0.0841 -0.2168  0.0902
  765loPI   C5A10887  16.508  11.304   8.733  0.1944 -0.0870  0.3076
  765loPI   C6A10888  16.383  10.884   9.028 -0.1143  0.0000  0.2048
  765loPI   C1B10889  16.840  11.912   7.157  0.1564 -0.1959 -0.0846
  765loPI   C2B10890  16.737  11.906   7.599  0.2711  0.2634  0.2109
  765loPI   C3B10891  16.776  11.853   8.047  0.1570 -0.2041 -0.1546
  765loPI   C4B10892  16.668  11.731   8.477  0.1767  0.0044  0.2192
  766loPI    C110893   0.583   5.723   6.306  0.1206  0.0826 -0.1592
  766loPI    C210894   0.204   5.827   6.377  0.0542 -0.2689  0.0254
  766loPI    C310895   0.313   5.707   6.011  0.0194 -0.0417 -0.0611
  766loPI   PO410896   0.733   5.838   6.534 -0.0750  0.1563  0.0316
  766loPI   GL110897   0.577   5.843   6.823  0.0417 -0.1114 -0.1857
  766loPI   GL210898   0.618   6.143   6.989 -0.1052  0.1944 -0.2461
  766loPI   C1A10899   0.466   5.880   7.366  0.0801  0.1077  0.0631
  766loPI   C2A10900   0.493   6.035   7.777 -0.3229  0.0155 -0.1751
  766loPI   C3A10901   0.657   6.151   8.143 -0.0752  0.0434 -0.0837
  766loPI   C4A10902   0.551   6.034   8.488 -0.0490  0.0650 -0.1185
  766loPI   C5A10903   0.345   6.228   8.812  0.0893 -0.2214  0.4019
  766loPI   C6A10904   0.019   5.885   8.941 -0.0066 -0.0129 -0.0343
  766loPI   C1B10905   0.652   6.365   7.419  0.1946 -0.0853 -0.0267
  766loPI   C2B10906   0.817   6.512   7.729  0.3341  0.1759 -0.0906
  766loPI   C3B10907   0.881   6.543   8.251 -0.1363  0.1373 -0.1243
  766loPI   C4B10908   0.748   6.507   8.670 -0.1383 -0.0158  0.3350
  767loPI    C110909   0.830  16.893   6.382 -0.3893 -0.1252 -0.2506
  767loPI    C210910   0.549  17.177   6.401 -0.1501  0.1357 -0.5041
  767loPI    C310911   0.936  17.279   6.393 -0.0308 -0.2257  0.0528
  767loPI   PO410912   0.778  16.751   6.547 -0.1443 -0.0859 -0.1961
  767loPI   GL110913   1.125  16.736   6.830 -0.0197 -0.1787  0.1518
  767loPI   GL210914   1.366  16.387   6.848  0.1666  0.1166 -0.0220
  767loPI   C1A10915   0.962  16.846   7.228 -0.1268  0.2800 -0.4512
  767loPI   C2A10916   1.014  16.704   7.608  0.1305  0.1456  0.0571
  767loPI   C3A10917   1.028  16.691   8.039 -0.2841 -0.0268  0.1681
  767loPI   C4A10918   0.872  16.575   8.393 -0.1284 -0.1367 -0.2027
  767loPI   C5A10919   1.058  16.670   8.790 -0.0004  0.0464 -0.0027
  767loPI   C6A10920   1.423  16.859   9.036 -0.2859  0.3738  0.0964
  767loPI   C1B10921   1.359  16.384   7.305 -0.2125 -0.0746 -0.0996
  767loPI   C2B10922   1.288  16.275   7.778  0.2452 -0.0656 -0.2460
  767loPI   C3B10923   1.254  16.292   8.191  0.0824  0.1246 -0.0079
  767loPI   C4B10924   1.374  16.237   8.645 -0.0813 -0.1867  0.0100
  768loPI    C110925  16.380   0.088   6.539 -0.1130  0.0382  0.0080
  768loPI    C210926  16.377   0.486   6.582  0.2329  0.0270  0.1709
  768loPI    C310927  16.392   0.324   6.217  0.1920  0.1639  0.1080
  768loPI   PO410928  16.553  -0.066   6.761 -0.0404 -0.1395  0.1758
  768loPI   GL110929  16.952  -0.113   6.993  0.0432 -0.2131  0.2210
  768loPI   GL210930  16.775  -0.096   7.241  0.1372  0.1530 -0.3743
  768loPI   C1A10931  17.289  -0.076   7.279  0.0417 -0.2653  0.0376
  768loPI   C2A10932  17.412  -0.079   7.694  0.0710 -0.2350 -0.0442
  768loPI   C3A10933  17.263  -0.118   8.091 -0.2813 -0.1876 -0.2163
  768loPI   C4A10934  17.190  -0.101   8.541  0.2885 -0.0945  0.0206
  768loPI   C5A10935  17.010  -0.118   8.941 -0.2485  0.0453 -0.0196
  768loPI   C6A10936  16.768   0.093   9.146 -0.1745 -0.1244 -0.1278
  768loPI   C1B10937  16.826  -0.233   7.738 -0.0167  0.1069  0.1108
  768loPI   C2B10938  16.768  -0.210   8.219  0.2314 -0.2319  0.2477
  768loPI   C3B10939  16.740  -0.461   8.636 -0.3552 -0.3122 -0.0861
  768loPI   C4B10940  16.544  -0.400   9.011  0.0268 -0.1245  0.0905
  769loPI    C110941  15.957  10.803   5.761 -0.0962 -0.2373 -0.2085
  769loPI    C210942  15.971  11.131   5.531  0.0684  0.0546  0.2046
  769loPI    C310943  15.895  10.774   5.367  0.0307  0.2754 -0.2742
  769loPI   PO410944  15.852  10.891   5.964 -0.2325 -0.1136  0.0622
  769loPI   GL110945  15.790  10.854   6.411  0.2220 -0.0508 -0.1693
  769loPI   GL210946  15.949  10.857   6.627 -0.1270 -0.1395 -0.1942
  769loPI   C1A10947  15.585  10.527   6.749 -0.0495 -0.1807  0.3731
  769loPI   C2A10948  15.720  10.400   7.188  0.0417 -0.0871 -0.0318
  769loPI   C3A10949  15.661  10.467   7.617 -0.0167 -0.2153  0.0350
  769loPI   C4A10950  15.610  10.394   8.089 -0.1333 -0.0749 -0.4139
  769loPI   C5A10951  15.596  10.425   8.514 -0.1022 -0.1096  0.0998
  769loPI   C6A10952  15.471  10.421   8.991 -0.2046  0.1132 -0.0263
  769loPI   C1B10953  15.856  10.897   7.036  0.0113  0.1066 -0.1021
  769loPI   C2B10954  15.897  10.891   7.440  0.0000 -0.2651  0.0718
  769loPI   C3B10955  15.742  10.919   7.860  0.0706  0.0835  0.0689
  769loPI   C4B10956  15.780  10.946   8.269  0.1153 -0.1433  0.2020
  770loPI    C110957  10.206  16.896   6.246 -0.0005 -0.0671 -0.0215
  770loPI    C210958  10.418  17.018   5.930 -0.0772 -0.0884 -0.0814
  770loPI    C310959  10.024  16.961   5.896 -0.1216  0.1129  0.0731
  770loPI   PO410960  10.353  16.739   6.380 -0.3234 -0.2569  0.0205
  770loPI   GL110961  10.261  16.519   6.670 -0.0570  0.0784  0.0318
  770loPI   GL210962  10.375  16.677   6.868  0.0123 -0.0258  0.0579
  770loPI   C1A10963   9.921  16.602   7.045  0.2826  0.4455 -0.2049
  770loPI   C2A10964   9.841  16.541   7.507 -0.0421  0.2457 -0.1744
  770loPI   C3A10965   9.782  16.392   7.880  0.1648  0.1290  0.1173
  770loPI   C4A10966   9.933  16.408   8.237  0.1343 -0.1880 -0.1450
  770loPI   C5A10967   9.734  16.387   8.582  0.2548 -0.0107  0.0333
  770loPI   C6A10968   9.451  16.399   8.889 -0.2326  0.0174  0.2939
  770loPI   C1B10969  10.390  16.515   7.352 -0.1372 -0.0407 -0.1226
  770loPI   C2B10970  10.398  16.477   7.749  0.0651  0.2387  0.0093
  770loPI   C3B10971  10.418  16.526   8.176  0.1361  0.0392  0.0722
  770loPI   C4B10972  10.290  16.531   8.538 -0.0323  0.1309 -0.0951
  771loPI    C110973  10.491  10.330   5.945  0.0146 -0.2149  0.2406
  771loPI    C210974  10.777  10.072   5.836  0.2262  0.1122  0.0044
  771loPI    C310975  10.525  10.220   5.562 -0.0507 -0.0265  0.1795
  771loPI   PO410976  10.355  10.150   6.182 -0.1641 -0.0214 -0.0306
  771loPI   GL110977  10.265  10.042   6.583  0.1961 -0.0314  0.0005
  771loPI   GL210978  10.003  10.073   6.751 -0.2068 -0.2494  0.0008
  771loPI   C1A10979  10.382   9.965   7.005  0.1849  0.0040 -0.0603
  771loPI   C2A10980  10.466   9.838   7.419 -0.1177  0.0540 -0.1464
  771loPI   C3A10981  10.284   9.831   7.870 -0.0253  0.0291 -0.1557
  771loPI   C4A10982  10.300   9.819   8.309 -0.0124  0.0516  0.0681
  771loPI   C5A10983  10.518   9.968   8.660  0.0698  0.1335 -0.1395
  771loPI   C6A10984  10.954  10.035   8.665 -0.0418  0.2526  0.0843
  771loPI   C1B10985  10.016  10.085   7.353  0.1790 -0.0556 -0.4321
  771loPI   C2B10986   9.990  10.250   7.761 -0.1913 -0.0234  0.0379
  771loPI   C3B10987   9.903  10.152   8.131 -0.0637  0.0904  0.2031
  771loPI   C4B10988  10.083  10.246   8.520  0.1509 -0.2363  0.0011
  772loPI    C110989   9.254  11.771   5.607 -0.2056 -0.2056  0.0322
  772loPI    C210990   9.060  11.888   5.277 -0.1900  0.2340  0.1735
  772loPI    C310991   9.447  11.786   5.257 -0.2314  0.1022  0.0288
  772loPI   PO410992   9.264  11.979   5.800 -0.0753 -0.0714 -0.1048
  772loPI   GL110993   9.248  11.962   6.310  0.0246  0.3267 -0.1971
  772loPI   GL210994   9.015  11.896   6.423 -0.1848 -0.3703 -0.3322
  772loPI   C1A10995   9.306  12.230   6.643 -0.0024 -0.2529  0.0156
  772loPI   C2A10996   9.401  12.195   7.011 -0.1008 -0.1248  0.0457
  772loPI   C3A10997   9.364  12.346   7.391 -0.1515 -0.1836 -0.1228
  772loPI   C4A10998   9.484  12.393   7.818 -0.1399  0.0577  0.1773
  772loPI   C5A10999   9.543  12.540   8.229 -0.0851  0.0478  0.0683
  772loPI   C6A11000   9.362  12.514   8.587 -0.0225 -0.2548  0.0385
  772loPI   C1B11001   9.227  11.769   6.834  0.1644 -0.0284 -0.0156
  772loPI   C2B11002   9.192  11.807   7.293 -0.0274 -0.0764  0.0548
  772loPI   C3B11003   9.248  11.877   7.687 -0.0683  0.0350  0.2408
  772loPI   C4B11004   9.257  11.903   8.057 -0.3283  0.1560 -0.0131
  773loPI    C111005   2.016   7.728   6.064  0.1247 -0.2698  0.1122
  773loPI    C211006   1.911   8.069   5.883 -0.0014 -0.1757  0.3593
  773loPI    C311007   2.087   7.778   5.673 -0.0242 -0.0164  0.1155
  773loPI   PO411008   1.846   7.865   6.339 -0.2478 -0.1951  0.0272
  773loPI   GL111009   1.726   7.747   6.660 -0.0546  0.1206  0.1227
  773loPI   GL211010   2.002   7.641   6.795  0.0069  0.0210 -0.1179
  773loPI   C1A11011   1.854   7.977   7.053 -0.0795 -0.1857 -0.1189
  773loPI   C2A11012   1.963   8.065   7.464  0.1281 -0.0744 -0.4790
  773loPI   C3A11013   2.035   7.932   7.995 -0.3184 -0.1386 -0.2606
  773loPI   C4A11014   2.139   7.869   8.408 -0.1784  0.2367 -0.3155
  773loPI   C5A11015   2.384   7.636   8.761  0.3498  0.0471  0.1803
  773loPI   C6A11016   2.442   7.511   9.182  0.0069 -0.2851  0.0609
  773loPI   C1B11017   2.273   7.457   7.070 -0.2023 -0.1100  0.1527
  773loPI   C2B11018   2.329   7.413   7.471 -0.0332 -0.1473  0.1716
  773loPI   C3B11019   2.266   7.511   7.882  0.0392 -0.1620 -0.1118
  773loPI   C4B11020   2.401   7.499   8.269 -0.1439 -0.1172 -0.2902
  774loPI    C111021  13.476  10.211   5.745 -0.0593  0.1183  0.1438
  774loPI    C211022  13.294   9.864   5.824  0.1668 -0.0230  0.0536
  774loPI    C311023  13.558   9.888   5.525  0.0883  0.2497  0.0035
  774loPI   PO411024  13.353  10.360   5.971 -0.1723  0.0481 -0.3386
  774loPI   GL111025  13.362  10.353   6.457 -0.1075 -0.0486 -0.1069
  774loPI   GL211026  13.384  10.672   6.466 -0.0797 -0.1543  0.2822
  774loPI   C1A11027  13.257  10.535   6.893 -0.1403  0.1763  0.1726
  774loPI   C2A11028  13.269  10.499   7.269 -0.2741 -0.2337 -0.1253
  774loPI   C3A11029  13.287  10.623   7.710  0.0211 -0.3936  0.1269
  774loPI   C4A11030  13.123  10.540   8.130 -0.2210 -0.0987 -0.0435
  774loPI   C5A11031  13.103  10.632   8.528  0.2813  0.0326  0.4088
  774loPI   C6A11032  13.022  10.743   8.931 -0.1274  0.1437  0.1032
  774loPI   C1B11033  13.737  10.658   6.764 -0.1155 -0.2247  0.0239
  774loPI   C2B11034  13.778  10.569   7.225 -0.0908 -0.0648 -0.2527
  774loPI   C3B11035  13.786  10.682   7.593  0.2583 -0.0624  0.0258
  774loPI   C4B11036  13.718  10.669   7.981 -0.0917 -0.0074 -0.0031
  775loPI    C111037   5.341  13.602   6.217 -0.0933 -0.0133  0.0917
  775loPI    C211038   5.629  13.561   5.943 -0.0663 -0.1547  0.1401
  775loPI    C311039   5.245  13.548   5.833 -0.0554  0.0295  0.0761
  775loPI   PO411040   5.445  13.455   6.377 -0.0601  0.1966 -0.0525
  775loPI   GL111041   5.617  13.606   6.801 -0.0502 -0.1303  0.4300
  775loPI   GL211042   5.469  13.274   6.864 -0.3432 -0.0590  0.2120
  775loPI   C1A11043   5.543  13.660   7.223 -0.1086 -0.0195  0.4073
  775loPI   C2A11044   5.652  13.756   7.668  0.0014  0.0926  0.1467
  775loPI   C3A11045   5.691  13.726   8.062  0.0272  0.4136 -0.1389
  775loPI   C4A11046   5.778  13.793   8.485  0.0644 -0.0366 -0.0471
  775loPI   C5A11047   5.983  13.704   8.834 -0.1047  0.0871 -0.2777
  775loPI   C6A11048   6.316  14.059   8.962  0.3005 -0.1501 -0.1573
  775loPI   C1B11049   5.370  13.132   7.222  0.0876  0.0189 -0.1933
  775loPI   C2B11050   5.415  13.176   7.600 -0.0146 -0.0636 -0.0227
  775loPI   C3B11051   5.433  13.221   7.978  0.2217 -0.0470 -0.2186
  775loPI   C4B11052   5.650  13.270   8.284 -0.0514  0.0994  0.2991
  776loPI    C111053   6.735   2.355   5.807 -0.2644  0.0249 -0.0041
  776loPI    C211054   6.541   2.074   5.599  0.0043 -0.1244 -0.0587
  776loPI    C311055   6.759   2.349   5.408 -0.2392  0.1113 -0.0039
  776loPI   PO411056   6.704   2.328   6.158 -0.0155 -0.1928  0.0847
  776loPI   GL111057   6.664   2.225   6.526 -0.0991  0.2234  0.1307
  776loPI   GL211058   6.554   1.888   6.616 -0.1630  0.1184  0.0941
  776loPI   C1A11059   6.695   2.187   6.955 -0.2251 -0.1817 -0.0224
  776loPI   C2A11060   6.723   2.224   7.420 -0.5312 -0.0077 -0.0659
  776loPI   C3A11061   6.723   2.210   7.819 -0.0561 -0.0796 -0.1332
  776loPI   C4A11062   6.767   2.167   8.158 -0.0401 -0.1670  0.1222
  776loPI   C5A11063   6.668   2.175   8.531  0.0221 -0.0855  0.1051
  776loPI   C6A11064   6.770   2.275   8.990 -0.0513 -0.2315 -0.2700
  776loPI   C1B11065   6.788   1.684   6.894  0.0175 -0.0297  0.2688
  776loPI   C2B11066   6.942   1.657   7.241 -0.0037  0.1636 -0.0283
  776loPI   C3B11067   6.981   1.795   7.746 -0.0775 -0.0438 -0.2834
  776loPI   C4B11068   7.160   1.776   8.146 -0.0273  0.0593 -0.3606
  777loPI    C111069  13.334   7.767   5.766  0.3325  0.0472 -0.0558
  777loPI    C211070  13.222   8.149   5.725 -0.0675 -0.0533  0.0510
  777loPI    C311071  13.325   7.934   5.403 -0.4512 -0.0333 -0.0896
  777loPI   PO411072  13.505   7.855   6.066  0.0206 -0.2601  0.0743
  777loPI   GL111073  13.443   7.827   6.448 -0.4745  0.1829 -0.5694
  777loPI   GL211074  13.532   7.594   6.554 -0.0274 -0.2552 -0.2251
  777loPI   C1A11075  13.103   7.737   6.808 -0.4260 -0.0910 -0.0019
  777loPI   C2A11076  13.018   7.734   7.252  0.0767 -0.0822 -0.1182
  777loPI   C3A11077  12.964   7.743   7.677 -0.0806  0.0065  0.2128
  777loPI   C4A11078  12.894   7.817   8.099 -0.1554  0.0043 -0.1722
  777loPI   C5A11079  12.699   7.854   8.502  0.2979  0.4021 -0.0070
  777loPI   C6A11080  12.473   8.111   8.865 -0.1263 -0.2530  0.0009
  777loPI   C1B11081  13.646   7.709   6.947 -0.0444  0.1150  0.0615
  777loPI   C2B11082  13.623   7.712   7.412  0.0058 -0.0236  0.0599
  777loPI   C3B11083  13.406   7.730   7.874  0.0299  0.0714 -0.0684
  777loPI   C4B11084  13.378   7.840   8.225  0.1562 -0.1263  0.4211
  778loPI    C111085   2.470   9.229   6.285  0.2473  0.2458  0.2062
  778loPI    C211086   2.487   8.858   6.434 -0.1982  0.2948  0.3951
  778loPI    C311087   2.824   9.062   6.365  0.0620 -0.2201  0.0844
  778loPI   PO411088   2.342   9.329   6.429 -0.2172 -0.2845 -0.1139
  778loPI   GL111089   2.114   9.508   6.701 -0.4592 -0.0854  0.2703
  778loPI   GL211090   1.852   9.805   6.562 -0.2545  0.1051  0.0036
  778loPI   C1A11091   2.224   9.449   7.105 -0.2711  0.1973 -0.2284
  778loPI   C2A11092   2.319   9.442   7.546 -0.0679  0.1371 -0.1724
  778loPI   C3A11093   2.292   9.352   7.993 -0.0979  0.2351 -0.0068
  778loPI   C4A11094   2.488   9.313   8.418  0.0413  0.2247  0.1480
  778loPI   C5A11095   2.617   9.348   8.855  0.0283  0.3529  0.0020
  778loPI   C6A11096   2.388   9.705   9.149 -0.0564  0.0035 -0.0673
  778loPI   C1B11097   1.970   9.901   7.008 -0.1546  0.2532 -0.1913
  778loPI   C2B11098   2.003   9.920   7.459 -0.2385 -0.2723 -0.1048
  778loPI   C3B11099   2.051   9.976   7.836 -0.2578 -0.1426  0.0617
  778loPI   C4B11100   2.077   9.754   8.238 -0.1394  0.3509  0.3051
  779loPI    C111101  11.212   0.822   6.300 -0.1078 -0.1121  0.0497
  779loPI    C211102  11.511   0.584   6.180 -0.1532 -0.0921 -0.1052
  779loPI    C311103  11.180   0.618   5.958 -0.3391 -0.2373  0.1440
  779loPI   PO411104  11.236   0.783   6.538 -0.0482  0.0481  0.0879
  779loPI   GL111105  10.862   0.808   6.827  0.2289  0.2016 -0.2762
  779loPI   GL211106  11.115   0.569   7.058  0.0792  0.0346  0.2035
  779loPI   C1A11107  10.793   0.957   7.237 -0.0479  0.0176 -0.1315
  779loPI   C2A11108  10.665   0.946   7.686 -0.0037  0.1601  0.0176
  779loPI   C3A11109  10.620   0.954   8.115  0.0089 -0.0958  0.1092
  779loPI   C4A11110  10.475   0.816   8.514  0.0044  0.1372  0.0337
  779loPI   C5A11111  10.365   0.933   8.920 -0.1214  0.1796 -0.1648
  779loPI   C6A11112  10.417   0.973   9.285  0.3342 -0.0874  0.1723
  779loPI   C1B11113  10.925   0.514   7.546 -0.1590  0.5198 -0.1880
  779loPI   C2B11114  10.816   0.543   7.963 -0.0186  0.0247 -0.0958
  779loPI   C3B11115  10.799   0.443   8.298 -0.0426 -0.2951 -0.0038
  779loPI   C4B11116  10.923   0.652   8.610  0.0885  0.1215 -0.0306
  780loPI    C111117   2.014  14.881   6.144  0.0178 -0.0462 -0.0651
  780loPI    C211118   2.136  15.247   6.040 -0.2937  0.1213  0.1430
  780loPI    C311119   1.988  14.999   5.763  0.0089  0.1134 -0.0155
  780loPI   PO411120   2.025  14.882   6.355 -0.1299  0.0312  0.1536
  780loPI   GL111121   2.170  14.809   6.696 -0.3412 -0.1755 -0.1548
  780loPI   GL211122   2.216  15.096   6.827 -0.1289  0.0199  0.2411
  780loPI   C1A11123   2.020  14.681   7.057  0.1765 -0.0501 -0.1834
  780loPI   C2A11124   2.046  14.655   7.447 -0.0844  0.2571  0.2155
  780loPI   C3A11125   2.126  14.570   7.912  0.2140  0.0922  0.0856
  780loPI   C4A11126   2.074  14.631   8.362  0.1280 -0.1691  0.0164
  780loPI   C5A11127   2.179  14.661   8.756 -0.2035 -0.2089  0.0119
  780loPI   C6A11128   2.095  15.066   9.057  0.0723 -0.0054  0.2218
  780loPI   C1B11129   2.249  15.093   7.325 -0.1899 -0.1179 -0.0612
  780loPI   C2B11130   2.213  15.128   7.738 -0.1109 -0.0299  0.2701
  780loPI   C3B11131   2.283  15.002   8.143  0.1601 -0.0956  0.1849
  780loPI   C4B11132   2.499  14.998   8.602  0.0404  0.1530  0.0141
  781loPI    C111133  15.062   5.545   6.012 -0.1288  0.1937 -0.0427
  781loPI    C211134  14.744   5.679   5.809 -0.1537  0.1826 -0.0110
  781loPI    C311135  15.114   5.763   5.681 -0.1692  0.2761  0.0048
  781loPI   PO411136  14.908   5.491   6.306 -0.1396 -0.2544 -0.0121
  781loPI   GL111137  14.907   5.369   6.724 -0.2362 -0.0564 -0.1973
  781loPI   GL211138  15.231   5.362   6.772  0.0824 -0.0878 -0.2102
  781loPI   C1A11139  14.842   5.568   7.136 -0.1341  0.1503 -0.0963
  781loPI   C2A11140  14.780   5.525   7.498 -0.1242  0.0447 -0.1524
  781loPI   C3A11141  14.800   5.568   7.923  0.2096  0.2144  0.2378
  781loPI   C4A11142  14.775   5.599   8.281 -0.1992 -0.2062 -0.0312
  781loPI   C5A11143  14.799   5.757   8.642 -0.0289 -0.0902  0.0125
  781loPI   C6A11144  14.898   6.186   8.886  0.0510  0.1089 -0.1854
  781loPI   C1B11145  15.387   5.567   7.205  0.0216 -0.0822  0.0866
  781loPI   C2B11146  15.417   5.512   7.533 -0.4360  0.1539  0.1433
  781loPI   C3B11147  15.344   5.507   7.923  0.2068 -0.1902  0.1774
  781loPI   C4B11148  15.398   5.442   8.392 -0.0249 -0.3046 -0.0103
  782loPI    C111149  16.031  11.863   5.739 -0.0099  0.0240  0.0727
  782loPI    C211150  15.653  11.881   5.610 -0.0327  0.0970  0.1483
  782loPI    C311151  15.899  11.598   5.470 -0.1153  0.0485  0.0998
  782loPI   PO411152  15.987  11.848   5.951  0.0246  0.2006 -0.0321
  782loPI   GL111153  15.920  11.662   6.365 -0.1125 -0.0133 -0.1265
  782loPI   GL211154  15.814  11.342   6.554  0.1069  0.3266  0.0361
  782loPI   C1A11155  15.707  11.769   6.809  0.0107  0.2067  0.0646
  782loPI   C2A11156  15.611  11.808   7.173 -0.1407 -0.1151 -0.3522
  782loPI   C3A11157  15.670  11.757   7.625  0.0675  0.1219 -0.0354
  782loPI   C4A11158  15.662  11.830   7.994 -0.0441  0.0721 -0.2841
  782loPI   C5A11159  15.777  11.822   8.376  0.0027  0.0295  0.0250
  782loPI   C6A11160  15.685  11.755   8.828 -0.0216 -0.0999 -0.0697
  782loPI   C1B11161  16.056  11.301   6.868  0.2589 -0.1784 -0.0579
  782loPI   C2B11162  16.117  11.330   7.276 -0.2636  0.4470 -0.1855
  782loPI   C3B11163  16.011  11.361   7.651 -0.1442  0.2556 -0.0245
  782loPI   C4B11164  15.970  11.458   8.065  0.1522  0.3128 -0.1332
  783loPI    C111165   8.593   8.153   5.708 -0.1166  0.2474  0.0126
  783loPI    C211166   8.420   8.103   5.350 -0.0931 -0.0813  0.0442
  783loPI    C311167   8.815   8.162   5.375 -0.1049  0.0121  0.0123
  783loPI   PO411168   8.483   7.956   5.818 -0.1151  0.1313  0.1006
  783loPI   GL111169   8.362   7.840   6.294  0.4407  0.0911 -0.0491
  783loPI   GL211170   8.591   8.033   6.306 -0.2680 -0.0199 -0.2201
  783loPI   C1A11171   8.171   7.578   6.672  0.2086 -0.1118 -0.1889
  783loPI   C2A11172   8.167   7.664   7.149  0.3935 -0.1502  0.1357
  783loPI   C3A11173   8.113   7.605   7.633  0.1324 -0.2238  0.0978
  783loPI   C4A11174   8.098   7.546   8.028 -0.1020  0.0831  0.3246
  783loPI   C5A11175   8.139   7.892   8.403  0.1934  0.0784 -0.2161
  783loPI   C6A11176   8.056   7.935   8.851  0.1945  0.3824 -0.3203
  783loPI   C1B11177   8.481   8.091   6.735  0.0712  0.1179 -0.1063
  783loPI   C2B11178   8.471   8.072   7.220 -0.1918  0.1061 -0.1049
  783loPI   C3B11179   8.360   7.988   7.594 -0.3854  0.2827 -0.2161
  783loPI   C4B11180   8.368   8.012   7.950 -0.0932 -0.0480  0.2750
  784loPI    C111181   6.377   9.209   5.535 -0.2476 -0.0556 -0.0159
  784loPI    C211182   6.478   8.851   5.389 -0.2190 -0.1364  0.1989
  784loPI    C311183   6.206   9.075   5.199  0.2821  0.0419 -0.3360
  784loPI   PO411184   6.408   9.095   5.792  0.2012 -0.3095 -0.0712
  784loPI   GL111185   6.257   9.129   6.197  0.1539 -0.1024 -0.0904
  784loPI   GL211186   6.326   8.878   6.330 -0.1350 -0.1119  0.1747
  784loPI   C1A11187   6.460   9.309   6.569 -0.1450  0.1496 -0.0129
  784loPI   C2A11188   6.549   9.352   7.042  0.0832  0.0693  0.0401
  784loPI   C3A11189   6.608   9.387   7.456 -0.0816  0.1057 -0.0071
  784loPI   C4A11190   6.542   9.381   7.923 -0.2834  0.0861  0.0025
  784loPI   C5A11191   6.746   9.407   8.368  0.0143 -0.2338 -0.2504
  784loPI   C6A11192   6.816   9.710   8.635 -0.1377 -0.0273  0.1358
  784loPI   C1B11193   6.267   8.873   6.778 -0.1228 -0.0031  0.3181
  784loPI   C2B11194   6.323   8.901   7.172  0.3847 -0.2485 -0.0167
  784loPI   C3B11195   6.273   8.941   7.584  0.0469 -0.0804 -0.1430
  784loPI   C4B11196   6.368   8.906   8.006  0.2273  0.1883  0.0265
  785loPI    C111197   4.547   0.476   6.378 -0.2148  0.1577 -0.0199
  785loPI    C211198   4.475   0.162   6.615  0.0446  0.1739  0.0838
  785loPI    C311199   4.172   0.346   6.428 -0.1164 -0.0946  0.0753
  785loPI   PO411200   4.726   0.619   6.526  0.0117  0.0027 -0.0484
  785loPI   GL111201   5.041   0.515   6.866  0.0458  0.1097 -0.1809
  785loPI   GL211202   5.375   0.666   6.971  0.3691  0.0279 -0.1128
  785loPI   C1A11203   4.926   0.673   7.252 -0.2104 -0.0357 -0.3385
  785loPI   C2A11204   4.976   0.705   7.616 -0.3691 -0.1718 -0.3045
  785loPI   C3A11205   4.944   0.734   8.050 -0.2037  0.1937  0.1080
  785loPI   C4A11206   4.911   0.863   8.513 -0.0191  0.0584 -0.1029
  785loPI   C5A11207   4.978   0.705   8.776 -0.3754 -0.1163  0.1110
  785loPI   C6A11208   4.681   0.466   8.984 -0.2217 -0.0910 -0.1976
  785loPI   C1B11209   5.521   0.700   7.381  0.4151 -0.1870 -0.2978
  785loPI   C2B11210   5.549   0.755   7.805 -0.0978  0.1278 -0.0562
  785loPI   C3B11211   5.534   0.780   8.181  0.0201  0.2521 -0.1058
  785loPI   C4B11212   5.462   0.818   8.597  0.0381 -0.2184  0.0619
  786loPI    C111213  13.641  16.538   6.024  0.1107  0.1601 -0.0451
  786loPI    C211214  13.293  16.390   5.893  0.1239  0.0200  0.0752
  786loPI    C311215  13.628  16.328   5.684  0.0665  0.2150 -0.0776
  786loPI   PO411216  13.654  16.481   6.305  0.3448  0.1516  0.1611
  786loPI   GL111217  13.588  16.440   6.700  0.0245 -0.2793 -0.0993
  786loPI   GL211218  13.959  16.238   6.730  0.0073 -0.0727  0.0360
  786loPI   C1A11219  13.530  16.443   7.083  0.0715  0.1774 -0.1532
  786loPI   C2A11220  13.513  16.426   7.483  0.2573 -0.1430 -0.2021
  786loPI   C3A11221  13.457  16.400   7.861  0.1843 -0.1900  0.1338
  786loPI   C4A11222  13.653  16.441   8.263  0.2951  0.0787 -0.0316
  786loPI   C5A11223  13.703  16.507   8.619 -0.0766 -0.2310  0.0324
  786loPI   C6A11224  13.875  16.168   8.861  0.1238 -0.1107  0.1182
  786loPI   C1B11225  14.044  16.098   7.110  0.1888  0.1496  0.2820
  786loPI   C2B11226  13.973  16.073   7.564  0.2337 -0.0479  0.0482
  786loPI   C3B11227  13.982  16.120   8.032 -0.1073 -0.1467  0.1403
  786loPI   C4B11228  14.148  16.397   8.381  0.0095 -0.0207 -0.0444
  787loPI    C111229   2.205   8.387   6.165 -0.0684 -0.0546  0.0490
  787loPI    C211230   2.585   8.426   6.047 -0.1335  0.1843 -0.0886
  787loPI    C311231   2.378   8.096   5.952  0.0415  0.0487 -0.0037
  787loPI   PO411232   2.129   8.530   6.415 -0.3115 -0.0495  0.3523
  787loPI   GL111233   2.278   8.702   6.847  0.2912  0.0635  0.0507
  787loPI   GL211234   2.380   8.934   6.907  0.0849 -0.0089 -0.0169
  787loPI   C1A11235   2.167   8.545   7.121 -0.0651 -0.2709  0.0011
  787loPI   C2A11236   2.294   8.518   7.521 -0.0799 -0.0011  0.0914
  787loPI   C3A11237   2.378   8.421   7.927  0.1876  0.0028 -0.0528
  787loPI   C4A11238   2.365   8.369   8.328  0.0705 -0.0598 -0.0718
  787loPI   C5A11239   2.463   8.348   8.739  0.0496  0.2633 -0.0062
  787loPI   C6A11240   2.309   8.098   9.076 -0.1202 -0.0253  0.0949
  787loPI   C1B11241   2.466   8.962   7.359  0.0822  0.2647  0.0379
  787loPI   C2B11242   2.564   8.942   7.781  0.1381  0.0252  0.0940
  787loPI   C3B11243   2.573   8.851   8.180 -0.2998  0.1117 -0.4040
  787loPI   C4B11244   2.554   8.826   8.616 -0.0017  0.2042 -0.3844
  788loPI    C111245   6.740   5.537   5.930 -0.0298  0.1063 -0.2998
  788loPI    C211246   6.916   5.873   6.056 -0.0484  0.0090 -0.0081
  788loPI    C311247   7.046   5.692   5.724  0.0526  0.2271 -0.0895
  788loPI   PO411248   6.707   5.399   6.170 -0.3037 -0.1368 -0.0478
  788loPI   GL111249   6.633   5.405   6.586 -0.0695  0.0305  0.2487
  788loPI   GL211250   6.345   5.189   6.738 -0.4358  0.1378  0.0393
  788loPI   C1A11251   6.755   5.670   6.893  0.4336 -0.0784 -0.1478
  788loPI   C2A11252   6.716   5.820   7.291 -0.4605 -0.1615 -0.2167
  788loPI   C3A11253   6.585   5.774   7.736  0.0601 -0.1590 -0.0278
  788loPI   C4A11254   6.635   5.729   8.231  0.3699  0.1603 -0.0194
  788loPI   C5A11255   6.667   5.771   8.612  0.0838 -0.3004 -0.0522
  788loPI   C6A11256   6.707   5.421   8.852 -0.0418 -0.0930  0.2440
  788loPI   C1B11257   6.444   5.284   7.082  0.1502 -0.0030 -0.2705
  788loPI   C2B11258   6.464   5.278   7.622  0.0022  0.0328 -0.1165
  788loPI   C3B11259   6.370   5.373   8.068  0.2163 -0.0734  0.4533
  788loPI   C4B11260   6.447   5.213   8.517  0.2675 -0.0527 -0.1331
  789loPI    C111261  10.216  11.480   5.643  0.0763 -0.0483  0.1710
  789loPI    C211262  10.611  11.434   5.607  0.0882  0.1404  0.0477
  789loPI    C311263  10.371  11.357   5.296  0.0099 -0.1477  0.1761
  789loPI   PO411264  10.105  11.710   5.845 -0.0189 -0.0380  0.3976
  789loPI   GL111265  10.143  11.830   6.231  0.1293  0.0156 -0.0928
  789loPI   GL211266   9.850  11.948   6.415  0.1031  0.0009 -0.0276
  789loPI   C1A11267  10.304  11.991   6.657 -0.1396  0.1954  0.0724
  789loPI   C2A11268  10.345  11.952   7.168 -0.1016  0.0867 -0.1184
  789loPI   C3A11269  10.307  12.018   7.565  0.2084 -0.0848  0.2416
  789loPI   C4A11270  10.278  12.104   7.944 -0.1399 -0.0677  0.1933
  789loPI   C5A11271  10.400  11.844   8.263 -0.2417  0.1967 -0.1654
  789loPI   C6A11272  10.687  11.815   8.525  0.0369 -0.0671 -0.1252
  789loPI   C1B11273   9.766  11.862   6.832 -0.2151  0.0232 -0.2425
  789loPI   C2B11274   9.797  11.882   7.304  0.1425 -0.1038  0.2184
  789loPI   C3B11275   9.732  11.932   7.748  0.1105  0.0935 -0.1513
  789loPI   C4B11276   9.731  12.085   8.091 -0.2060  0.2098  0.1718
  790loPI    C111277   4.908  12.374   6.148 -0.2418 -0.1319 -0.1636
  790loPI    C211278   4.948  12.016   5.974 -0.0486 -0.2256  0.0659
  790loPI    C311279   5.109  12.340   5.804 -0.5423 -0.1784 -0.3375
  790loPI   PO411280   4.636  12.365   6.252  0.0683 -0.1130  0.1456
  790loPI   GL111281   4.531  12.241   6.699  0.0885  0.1324 -0.0869
  790loPI   GL211282   4.682  12.039   6.792  0.0515 -0.0746  0.0458
  790loPI   C1A11283   4.601  12.548   6.945 -0.1325  0.0903  0.0850
  790loPI   C2A11284   4.650  12.621   7.358 -0.0528 -0.1718 -0.0215
  790loPI   C3A11285   4.725  12.585   7.796  0.3365 -0.1282  0.1089
  790loPI   C4A11286   4.847  12.655   8.213 -0.0329 -0.0265 -0.2687
  790loPI   C5A11287   4.741  12.735   8.647 -0.2841 -0.2140 -0.1933
  790loPI   C6A11288   4.736  12.442   9.012  0.0017  0.1788 -0.0186
  790loPI   C1B11289   4.408  12.117   7.184  0.2234 -0.2552 -0.0673
  790loPI   C2B11290   4.460  12.129   7.699 -0.0445 -0.1432  0.2107
  790loPI   C3B11291   4.572  12.247   8.112 -0.2621 -0.3563 -0.4032
  790loPI   C4B11292   4.621  12.277   8.495  0.0143  0.0049 -0.1820
  791loPI    C111293   8.484   2.099   5.961 -0.1074 -0.0048  0.1199
  791loPI    C211294   8.325   2.418   5.779 -0.0346 -0.0652 -0.0510
  791loPI    C311295   8.147   2.061   5.749  0.0431 -0.0997 -0.1058
  791loPI   PO411296   8.512   2.185   6.279  0.0136  0.2509 -0.0282
  791loPI   GL111297   8.786   1.991   6.534 -0.0288  0.2145  0.0608
  791loPI   GL211298   8.950   2.277   6.647  0.1236 -0.2062 -0.1096
  791loPI   C1A11299   8.598   1.886   6.896  0.2153 -0.2111 -0.1406
  791loPI   C2A11300   8.596   1.869   7.338 -0.2277  0.0178  0.1874
  791loPI   C3A11301   8.596   1.844   7.787  0.0469  0.1478  0.1390
  791loPI   C4A11302   8.549   1.803   8.283 -0.1233  0.1444  0.3429
  791loPI   C5A11303   8.818   1.714   8.592 -0.1389 -0.2354 -0.0549
  791loPI   C6A11304   9.085   1.426   8.787  0.1216 -0.0144  0.1518
  791loPI   C1B11305   8.843   2.268   7.034 -0.0265  0.2306  0.0622
  791loPI   C2B11306   8.815   2.263   7.491  0.0634  0.2790  0.0112
  791loPI   C3B11307   8.838   2.310   7.900 -0.3161 -0.1559  0.1267
  791loPI   C4B11308   8.855   2.176   8.307 -0.0852 -0.3079 -0.0224
  792loPI    C111309  10.416  13.540   5.743 -0.1134  0.0200  0.1935
  792loPI    C211310  10.582  13.900   5.689 -0.2944  0.0758 -0.0062
  792loPI    C311311  10.468  13.684   5.373 -0.0583 -0.2201  0.1062
  792loPI   PO411312  10.388  13.555   6.004 -0.3064  0.1043  0.0188
  792loPI   GL111313  10.643  13.412   6.394  0.1465 -0.2974  0.0730
  792loPI   GL211314  10.505  13.740   6.561 -0.2307  0.0222  0.1334
  792loPI   C1A11315  10.857  13.428   6.725  0.2887 -0.0063 -0.0310
  792loPI   C2A11316  10.805  13.305   7.120  0.2273 -0.2810 -0.1293
  792loPI   C3A11317  10.941  13.407   7.522 -0.2056 -0.1895  0.0531
  792loPI   C4A11318  10.992  13.405   8.027  0.3295 -0.0056 -0.1283
  792loPI   C5A11319  11.125  13.456   8.441  0.1714 -0.2269 -0.0282
  792loPI   C6A11320  11.248  13.429   8.860  0.0623  0.1851  0.0717
  792loPI   C1B11321  10.560  13.769   7.029 -0.0252 -0.1561  0.0146
  792loPI   C2B11322  10.625  13.818   7.418  0.2218  0.1822 -0.2337
  792loPI   C3B11323  10.624  13.790   7.872  0.0221  0.0941  0.1282
  792loPI   C4B11324  10.725  13.699   8.361  0.2320  0.2814 -0.0365
  793loPI    C111325   0.426   3.220   6.675  0.1831  0.0026  0.1622
  793loPI    C211326   0.307   3.580   6.803  0.0592 -0.0718  0.2586
  793loPI    C311327   0.691   3.517   6.712  0.0218  0.1837 -0.0985
  793loPI   PO411328   0.333   3.039   6.788  0.0166  0.0953  0.0364
  793loPI   GL111329   0.178   2.854   7.175 -0.3101 -0.1359 -0.1390
  793loPI   GL211330   0.263   2.674   7.338 -0.0688  0.1823  0.0737
  793loPI   C1A11331   0.356   3.106   7.600 -0.3396  0.1459 -0.1918
  793loPI   C2A11332   0.542   3.077   8.030  0.0714  0.5324  0.1974
  793loPI   C3A11333   0.517   2.917   8.515 -0.3199  0.1035  0.1631
  793loPI   C4A11334   0.385   2.949   8.921 -0.0234  0.1224  0.1847
  793loPI   C5A11335   0.071   3.160   9.120 -0.1071 -0.0357 -0.0838
  793loPI   C6A11336  -0.171   2.895   9.354  0.1325 -0.0488  0.0299
  793loPI   C1B11337   0.310   2.594   7.771  0.0315 -0.1323  0.1658
  793loPI   C2B11338   0.319   2.564   8.128  0.0142 -0.2737  0.0204
  793loPI   C3B11339   0.054   2.751   8.414  0.2049  0.0897 -0.2073
  793loPI   C4B11340  -0.147   2.882   8.752 -0.3635 -0.0098 -0.0940
  794loPI    C111341   7.220  15.907   5.928  0.1194 -0.2112  0.0974
  794loPI    C211342   7.617  15.942   5.895  0.1193 -0.0734  0.2314
  794loPI    C311343   7.395  15.865   5.571  0.2420 -0.0191  0.1337
  794loPI   PO411344   7.189  15.871   6.229 -0.0486  0.0813  0.1077
  794loPI   GL111345   7.163  15.827   6.616 -0.1873 -0.0440 -0.1640
  794loPI   GL211346   6.861  15.763   6.624  0.0215 -0.2519 -0.4924
  794loPI   C1A11347   7.144  16.185   6.921  0.2294  0.1386 -0.1319
  794loPI   C2A11348   7.165  16.110   7.331  0.3939 -0.3250 -0.1569
  794loPI   C3A11349   7.146  16.087   7.732 -0.1403 -0.0271  0.1509
  794loPI   C4A11350   7.176  16.147   8.208 -0.0931 -0.0202  0.1817
  794loPI   C5A11351   7.214  15.952   8.640 -0.0050 -0.0776 -0.1014
  794loPI   C6A11352   7.443  15.843   9.014  0.0076 -0.1036  0.0058
  794loPI   C1B11353   6.999  15.673   7.087 -0.1695 -0.0782  0.0203
  794loPI   C2B11354   7.008  15.602   7.580 -0.0044 -0.0082 -0.1481
  794loPI   C3B11355   6.990  15.675   8.049  0.3630  0.1087 -0.0365
  794loPI   C4B11356   6.765  15.853   8.428  0.0365 -0.0106  0.5585
  795loPI    C111357   4.614   4.134   6.345  0.2384  0.3764  0.0443
  795loPI    C211358   4.406   4.475   6.376 -0.1573  0.1316  0.1654
  795loPI    C311359   4.413   4.276   6.029 -0.1808  0.1051  0.1800
  795loPI   PO411360   4.780   4.250   6.575 -0.2748 -0.0371 -0.0785
  795loPI   GL111361   4.687   4.426   6.909 -0.1596 -0.2377  0.1286
  795loPI   GL211362   4.543   4.711   6.779 -0.1842 -0.1046 -0.2180
  795loPI   C1A11363   4.841   4.406   7.191  0.1905  0.1452 -0.1478
  795loPI   C2A11364   4.971   4.429   7.695  0.2290 -0.1253  0.0437
  795loPI   C3A11365   4.896   4.473   8.077  0.1082 -0.0837  0.2999
  795loPI   C4A11366   4.812   4.415   8.480  0.1276 -0.0088  0.1052
  795loPI   C5A11367   4.721   4.388   8.880 -0.0808  0.1576 -0.3365
  795loPI   C6A11368   4.390   4.419   9.139 -0.1175  0.0767 -0.2772
  795loPI   C1B11369   4.640   4.873   7.144 -0.0219  0.0269 -0.1039
  795loPI   C2B11370   4.620   4.843   7.572  0.1437  0.2133 -0.0500
  795loPI   C3B11371   4.548   4.872   7.943 -0.0198 -0.0685  0.2280
  795loPI   C4B11372   4.572   4.862   8.318  0.1775 -0.2399  0.1688
  796loPI    C111373   7.422  14.940   5.989 -0.2320  0.1233 -0.0683
  796loPI    C211374   7.095  15.023   5.774 -0.2661 -0.2427 -0.1633
  796loPI    C311375   7.441  14.942   5.589 -0.1408  0.0551 -0.0648
  796loPI   PO411376   7.377  15.068   6.220  0.0569 -0.0528 -0.0106
  796loPI   GL111377   7.282  14.821   6.627 -0.0890  0.1513  0.2262
  796loPI   GL211378   7.580  14.680   6.616  0.0844  0.0311 -0.0747
  796loPI   C1A11379   7.071  14.860   7.016 -0.0457  0.1413 -0.1506
  796loPI   C2A11380   7.118  14.809   7.419  0.1688 -0.1119 -0.0237
  796loPI   C3A11381   7.166  14.766   7.910  0.0225  0.1412  0.2032
  796loPI   C4A11382   7.078  14.856   8.352 -0.0623  0.1255  0.0905
  796loPI   C5A11383   7.275  14.914   8.703  0.2763  0.0990  0.2619
  796loPI   C6A11384   7.714  15.088   8.673 -0.1735  0.0036  0.0134
  796loPI   C1B11385   7.588  14.848   7.038  0.0569  0.0332 -0.0340
  796loPI   C2B11386   7.621  14.835   7.473  0.0975 -0.1639 -0.0731
  796loPI   C3B11387   7.721  14.913   7.857  0.2131 -0.1015  0.1434
  796loPI   C4B11388   7.651  14.879   8.207  0.0957 -0.1498  0.2689
  797loPI    C111389   6.224   4.354   5.954 -0.0843  0.0511 -0.1630
  797loPI    C211390   6.467   4.047   6.034 -0.3627 -0.1251  0.0234
  797loPI    C311391   6.293   4.076   5.675  0.0719  0.1029 -0.1774
  797loPI   PO411392   6.155   4.410   6.255  0.2168 -0.0638 -0.0618
  797loPI   GL111393   6.029   4.298   6.621 -0.4620  0.0677 -0.0598
  797loPI   GL211394   6.280   4.053   6.599  0.2386 -0.1141 -0.0839
  797loPI   C1A11395   5.843   4.373   7.053  0.0014  0.0456  0.0557
  797loPI   C2A11396   5.904   4.420   7.474  0.0955  0.4215  0.1912
  797loPI   C3A11397   5.944   4.379   7.906  0.1743 -0.0383 -0.1744
  797loPI   C4A11398   5.890   4.546   8.346  0.0471 -0.0183  0.1819
  797loPI   C5A11399   5.783   4.425   8.678 -0.1685  0.0967  0.2234
  797loPI   C6A11400   5.782   4.301   9.091 -0.0958  0.0707 -0.3296
  797loPI   C1B11401   6.219   3.960   7.112 -0.0633 -0.2543  0.0342
  797loPI   C2B11402   6.245   3.944   7.605 -0.0324 -0.2356  0.1720
  797loPI   C3B11403   6.201   3.910   8.071  0.0062 -0.1280  0.0982
  797loPI   C4B11404   6.123   4.079   8.441 -0.3189 -0.2201 -0.0242
  798loPI    C111405  13.649  13.556   6.067  0.0744 -0.0150  0.0045
  798loPI    C211406  13.838  13.267   6.270  0.1173  0.1010  0.1312
  798loPI    C311407  13.786  13.233   5.875 -0.0443 -0.1675  0.1729
  798loPI   PO411408  13.415  13.576   6.174  0.2121 -0.2092  0.0238
  798loPI   GL111409  13.409  13.372   6.571 -0.3247  0.1156  0.0832
  798loPI   GL211410  13.532  13.632   6.645  0.1927 -0.2408  0.1020
  798loPI   C1A11411  13.523  13.209   7.010 -0.1383 -0.0034 -0.0075
  798loPI   C2A11412  13.534  13.244   7.456  0.0766  0.2517  0.0783
  798loPI   C3A11413  13.259  13.268   7.767 -0.0011  0.0524 -0.0152
  798loPI   C4A11414  13.251  13.332   8.170  0.0867 -0.1447  0.1324
  798loPI   C5A11415  13.113  13.552   8.479 -0.0281 -0.2281  0.0865
  798loPI   C6A11416  13.221  13.677   8.993  0.2262  0.1534  0.1253
  798loPI   C1B11417  13.513  13.727   7.040  0.1198  0.1936  0.2507
  798loPI   C2B11418  13.640  13.724   7.389 -0.1726 -0.1209 -0.3089
  798loPI   C3B11419  13.458  13.754   7.848  0.1269 -0.1611 -0.0174
  798loPI   C4B11420  13.511  13.846   8.298 -0.0494 -0.0726 -0.0076
  799loPI    C111421   4.537   8.700   6.022 -0.0786 -0.1419  0.1071
  799loPI    C211422   4.286   8.932   5.814 -0.0212  0.0918  0.2940
  799loPI    C311423   4.508   8.658   5.625 -0.1564  0.1258  0.0824
  799loPI   PO411424   4.369   8.663   6.212 -0.0166 -0.0331 -0.0702
  799loPI   GL111425   4.127   8.692   6.544  0.0846  0.1726  0.2946
  799loPI   GL211426   4.277   8.947   6.574 -0.1450 -0.5736 -0.1367
  799loPI   C1A11427   3.785   8.560   6.859 -0.1965  0.0469  0.0558
  799loPI   C2A11428   3.868   8.528   7.298 -0.1998 -0.1964 -0.0786
  799loPI   C3A11429   3.936   8.373   7.725  0.1814  0.0771  0.1713
  799loPI   C4A11430   3.899   8.485   8.154 -0.0428 -0.3667  0.2638
  799loPI   C5A11431   3.847   8.585   8.550 -0.0097 -0.0113 -0.2545
  799loPI   C6A11432   3.974   8.499   8.941  0.0268 -0.1425 -0.2970
  799loPI   C1B11433   4.176   8.931   7.024  0.0527 -0.0590 -0.0226
  799loPI   C2B11434   4.084   8.933   7.476 -0.0583 -0.1006  0.1845
  799loPI   C3B11435   4.092   8.825   7.904  0.1016 -0.0035  0.1401
  799loPI   C4B11436   4.200   8.908   8.359 -0.0627 -0.1374  0.0257
  800loPI    C111437   7.922   1.625   5.979  0.0400  0.2359  0.1503
  800loPI    C211438   7.782   1.272   6.104 -0.1894  0.2650 -0.0174
  800loPI    C311439   8.135   1.292   5.917 -0.0620  0.1594  0.2073
  800loPI   PO411440   7.886   1.766   6.196  0.3063  0.0312  0.5529
  800loPI   GL111441   7.830   1.753   6.494  0.7073  0.0121 -0.1707
  800loPI   GL211442   7.513   1.655   6.563  0.0744  0.3591 -0.3836
  800loPI   C1A11443   8.023   1.764   6.908  0.0442  0.2408 -0.0789
  800loPI   C2A11444   8.031   1.695   7.332  0.4741  0.0727 -0.2279
  800loPI   C3A11445   8.156   1.742   7.719  0.0563  0.0698  0.0150
  800loPI   C4A11446   8.055   1.843   8.168  0.0286 -0.1515  0.0147
  800loPI   C5A11447   8.135   1.882   8.592 -0.0103  0.1152  0.0282
  800loPI   C6A11448   8.322   1.552   8.752  0.1795 -0.2411 -0.1859
  800loPI   C1B11449   7.559   1.701   7.014  0.0409 -0.0554 -0.0916
  800loPI   C2B11450   7.558   1.821   7.497  0.1921  0.0845  0.0443
  800loPI   C3B11451   7.587   1.843   7.948  0.0063 -0.0638 -0.0693
  800loPI   C4B11452   7.581   1.780   8.379 -0.1048 -0.4675 -0.1053
  801loPI    C111453  14.122   2.860   6.302  0.1157 -0.4576  0.3299
  801loPI    C211454  14.015   2.747   5.934  0.0537  0.0231  0.1947
  801loPI    C311455  14.397   2.833   6.013 -0.0114  0.4198  0.1002
  801loPI   PO411456  14.074   2.711   6.452  0.3846  0.0957 -0.0126
  801loPI   GL111457  13.922   2.820   6.939  0.1761 -0.1262 -0.1865
  801loPI   GL211458  14.105   2.528   6.928  0.0858  0.1192 -0.1302
  801loPI   C1A11459  13.830   2.735   7.429 -0.2389 -0.4507 -0.0148
  801loPI   C2A11460  13.861   2.788   7.856 -0.1113 -0.1048  0.2500
  801loPI   C3A11461  13.994   2.750   8.271 -0.0981  0.3860 -0.2025
  801loPI   C4A11462  14.172   2.558   8.680  0.0478 -0.1667  0.1465
  801loPI   C5A11463  14.274   2.116   8.816 -0.2133 -0.2970  0.1100
  801loPI   C6A11464  14.134   1.736   8.974  0.2039 -0.3678 -0.0696
  801loPI   C1B11465  13.723   2.330   7.187  0.0465  0.0549 -0.0048
  801loPI   C2B11466  13.715   2.304   7.668 -0.2010  0.1212 -0.2067
  801loPI   C3B11467  13.686   2.374   8.138 -0.3334  0.2602 -0.0102
  801loPI   C4B11468  13.795   2.241   8.554 -0.1011  0.1173 -0.1597
  802loPI    C111469  12.218   1.108   6.392 -0.1610 -0.1428  0.0399
  802loPI    C211470  12.194   1.307   6.046  0.0908 -0.2122 -0.0197
  802loPI    C311471  11.992   0.965   6.095 -0.2340 -0.0170  0.0340
  802loPI   PO411472  12.159   1.221   6.549  0.0693  0.2158 -0.3097
  802loPI   GL111473  12.223   1.110   6.965  0.0857  0.0486  0.0436
  802loPI   GL211474  11.989   0.930   6.907 -0.1106  0.3536  0.0336
  802loPI   C1A11475  12.301   1.113   7.330  0.0142 -0.0075 -0.4623
  802loPI   C2A11476  12.142   1.080   7.759 -0.2972  0.2936 -0.0067
  802loPI   C3A11477  11.949   1.289   8.117 -0.0931 -0.1957 -0.0271
  802loPI   C4A11478  11.852   1.192   8.528  0.1277 -0.3212  0.1175
  802loPI   C5A11479  11.671   0.988   8.874  0.3260  0.0606 -0.1144
  802loPI   C6A11480  11.251   0.923   9.006  0.1352 -0.2249  0.3412
  802loPI   C1B11481  11.807   0.925   7.307  0.2479 -0.2700 -0.0978
  802loPI   C2B11482  11.686   0.838   7.746  0.1041  0.0200  0.0891
  802loPI   C3B11483  11.644   0.912   8.171  0.0854  0.0514  0.1076
  802loPI   C4B11484  11.445   0.683   8.557 -0.0159  0.0532  0.1813
  803loPI    C111485  13.503   0.680   6.420 -0.1191  0.1341 -0.0531
  803loPI    C211486  13.837   0.798   6.606 -0.0040  0.0672 -0.2152
  803loPI    C311487  13.632   1.056   6.379 -0.0041  0.0795 -0.2011
  803loPI   PO411488  13.385   0.611   6.675 -0.3627 -0.2866  0.1372
  803loPI   GL111489  13.431   0.294   7.036 -0.0794 -0.1560  0.1245
  803loPI   GL211490  13.735   0.615   7.079  0.1262  0.2936  0.1479
  803loPI   C1A11491  13.465   0.263   7.307  0.1566 -0.5505 -0.2804
  803loPI   C2A11492  13.464   0.294   7.791 -0.0863  0.2321  0.1067
  803loPI   C3A11493  13.292   0.304   8.179  0.1742  0.1170 -0.1111
  803loPI   C4A11494  13.083   0.315   8.573 -0.1835  0.2975  0.1537
  803loPI   C5A11495  13.112   0.674   8.930  0.3228 -0.0278  0.0653
  803loPI   C6A11496  12.958   0.978   9.053  0.1674 -0.0858 -0.0172
  803loPI   C1B11497  13.838   0.568   7.442  0.0163 -0.0007 -0.1366
  803loPI   C2B11498  13.905   0.588   7.891 -0.0907 -0.1109  0.2390
  803loPI   C3B11499  13.796   0.659   8.266  0.0427  0.0713  0.2133
  803loPI   C4B11500  13.649   0.420   8.610 -0.0544  0.1880  0.3428
  804loPI    C111501   1.778  11.462   6.124  0.1314 -0.1397  0.0539
  804loPI    C211502   1.759  11.806   5.920  0.1762 -0.1640  0.0086
  804loPI    C311503   1.774  11.457   5.724  0.0459 -0.1964  0.0553
  804loPI   PO411504   1.695  11.526   6.428 -0.0857  0.0463  0.1107
  804loPI   GL111505   1.311  11.489   6.691 -0.2583  0.1104  0.2539
  804loPI   GL211506   1.231  11.239   6.833  0.3157 -0.2676  0.0577
  804loPI   C1A11507   1.474  11.728   7.010 -0.0011  0.1184  0.0029
  804loPI   C2A11508   1.439  11.684   7.458  0.0867 -0.0720 -0.2259
  804loPI   C3A11509   1.401  11.758   7.884  0.1730 -0.0750  0.2458
  804loPI   C4A11510   1.535  11.586   8.247  0.0277  0.0509 -0.1556
  804loPI   C5A11511   1.669  11.484   8.630 -0.0631 -0.1788 -0.1975
  804loPI   C6A11512   1.818  11.317   9.083 -0.1874 -0.0743  0.1334
  804loPI   C1B11513   1.203  11.257   7.212  0.3095 -0.4829 -0.2097
  804loPI   C2B11514   1.148  11.204   7.626 -0.1016  0.3794  0.2136
  804loPI   C3B11515   1.146  11.246   8.010  0.1317 -0.0338 -0.2382
  804loPI   C4B11516   1.184  11.153   8.445 -0.4132  0.1065 -0.3387
  805loPI    C111517   0.750  14.987   6.037  0.1107  0.0800  0.0404
  805loPI    C211518   0.802  14.728   5.737  0.0302  0.3542 -0.2154
  805loPI    C311519   0.457  14.732   5.940  0.1327  0.0811 -0.0293
  805loPI   PO411520   0.934  15.043   6.255 -0.1293  0.1147 -0.0569
  805loPI   GL111521   1.130  14.854   6.663 -0.1829 -0.0450 -0.0831
  805loPI   GL211522   0.842  14.824   6.747  0.2886  0.2408  0.3847
  805loPI   C1A11523   1.199  14.952   7.047 -0.1191  0.2380  0.1037
  805loPI   C2A11524   1.209  14.968   7.419 -0.1407  0.2235 -0.0590
  805loPI   C3A11525   1.252  14.831   7.891 -0.1399  0.0013 -0.1218
  805loPI   C4A11526   1.199  14.758   8.401 -0.1715 -0.2010 -0.0685
  805loPI   C5A11527   0.948  14.806   8.883  0.2810 -0.0407 -0.1129
  805loPI   C6A11528   0.880  14.716   9.273  0.1110 -0.0043 -0.1932
  805loPI   C1B11529   0.611  14.957   7.118 -0.1818  0.3103 -0.1012
  805loPI   C2B11530   0.664  15.000   7.610  0.1906  0.1062  0.0653
  805loPI   C3B11531   0.794  14.795   8.029  0.1535  0.1255  0.0352
  805loPI   C4B11532   0.689  14.647   8.407  0.1348  0.2514 -0.2387
  806loPI    C111533   4.214  12.575   6.040  0.2152 -0.0845 -0.0652
  806loPI    C211534   4.498  12.596   5.759  0.1699 -0.2335 -0.1235
  806loPI    C311535   4.119  12.687   5.668  0.2156  0.0797 -0.0169
  806loPI   PO411536   4.282  12.741   6.209 -0.1369  0.0351 -0.1097
  806loPI   GL111537   4.214  12.672   6.644  0.2063 -0.0070 -0.0505
  806loPI   GL211538   4.316  12.986   6.845  0.1733  0.0817 -0.1469
  806loPI   C1A11539   4.109  12.565   7.022  0.0910 -0.1103  0.2930
  806loPI   C2A11540   4.202  12.504   7.411 -0.1668  0.0552 -0.0684
  806loPI   C3A11541   4.161  12.593   7.828  0.1243  0.0025 -0.1192
  806loPI   C4A11542   4.228  12.598   8.191  0.2063 -0.0242 -0.1720
  806loPI   C5A11543   4.186  12.644   8.576  0.0053 -0.2363 -0.1403
  806loPI   C6A11544   4.349  12.849   8.963  0.2202  0.1761 -0.2192
  806loPI   C1B11545   4.362  13.040   7.259 -0.4877 -0.0943 -0.0482
  806loPI   C2B11546   4.423  13.042   7.705  0.0464  0.1215 -0.1134
  806loPI   C3B11547   4.527  13.028   8.180 -0.0410 -0.1140 -0.0121
  806loPI   C4B11548   4.369  13.113   8.590  0.0948 -0.1198  0.2346
  807loPI    C111549  16.640  12.923   6.135  0.0769 -0.0248 -0.1056
  807loPI    C211550  16.630  13.296   5.993  0.0281  0.0123 -0.0054
  807loPI    C311551  16.591  12.987   5.743  0.0815  0.0736 -0.0903
  807loPI   PO411552  16.501  12.854   6.349  0.1335  0.4434  0.0107
  807loPI   GL111553  16.451  12.518   6.677  0.1259  0.0293  0.1041
  807loPI   GL211554  16.567  12.796   6.840  0.0337 -0.0174  0.0713
  807loPI   C1A11555  16.469  12.316   7.051  0.0050 -0.0581  0.3181
  807loPI   C2A11556  16.405  12.441   7.457 -0.1366 -0.0432  0.0730
  807loPI   C3A11557  16.362  12.320   7.869  0.1036  0.1838  0.3690
  807loPI   C4A11558  16.393  12.386   8.251  0.1478 -0.2543  0.0685
  807loPI   C5A11559  16.237  12.100   8.647 -0.2608  0.3056 -0.1446
  807loPI   C6A11560  16.028  12.094   9.055  0.0146  0.1049  0.1572
  807loPI   C1B11561  16.619  12.832   7.281 -0.0269  0.2548 -0.1614
  807loPI   C2B11562  16.614  12.750   7.789 -0.1323 -0.0104 -0.1793
  807loPI   C3B11563  16.601  12.824   8.180  0.1198  0.2792 -0.3502
  807loPI   C4B11564  16.602  12.800   8.639  0.0311  0.0589  0.2100
  808loPI    C111565  13.552   7.201   5.942  0.0628 -0.0069 -0.0626
  808loPI    C211566  13.778   7.442   6.168  0.0749 -0.1209  0.0484
  808loPI    C311567  13.935   7.265   5.846  0.0576  0.0423 -0.0512
  808loPI   PO411568  13.403   7.076   6.157  0.0453 -0.2378 -0.1214
  808loPI   GL111569  13.439   7.015   6.536 -0.0989  0.0760  0.1255
  808loPI   GL211570  13.225   7.231   6.651  0.1220 -0.0692  0.0570
  808loPI   C1A11571  13.521   6.926   6.930  0.1182  0.1179  0.1239
  808loPI   C2A11572  13.606   6.897   7.305 -0.1221  0.0830 -0.2584
  808loPI   C3A11573  13.483   6.947   7.797  0.1884 -0.0752  0.1997
  808loPI   C4A11574  13.439   6.822   8.207 -0.2848 -0.1422 -0.1845
  808loPI   C5A11575  13.150   6.798   8.563 -0.1086 -0.3026 -0.1087
  808loPI   C6A11576  12.836   6.681   8.989 -0.2996 -0.3215 -0.1843
  808loPI   C1B11577  13.333   7.362   7.106  0.2794 -0.3104 -0.0598
  808loPI   C2B11578  13.313   7.365   7.578  0.0321 -0.0718 -0.2092
  808loPI   C3B11579  13.154   7.306   8.013  0.0384 -0.1920 -0.0038
  808loPI   C4B11580  13.372   7.283   8.429  0.2924 -0.2840  0.0165
  809loPI    C111581   2.127   6.395   6.182  0.0743  0.0034 -0.0656
  809loPI    C211582   1.802   6.219   6.030  0.0640 -0.0211 -0.0155
  809loPI    C311583   2.156   6.177   5.848  0.0487 -0.0368 -0.0415
  809loPI   PO411584   2.160   6.333   6.432  0.3722  0.0205 -0.0012
  809loPI   GL111585   2.058   6.160   6.824  0.1454  0.3487  0.0036
  809loPI   GL211586   1.918   6.494   6.885  0.0868  0.2334 -0.1964
  809loPI   C1A11587   1.965   6.072   7.259  0.2282  0.1601 -0.0579
  809loPI   C2A11588   2.045   6.089   7.687 -0.1638 -0.1318 -0.0975
  809loPI   C3A11589   2.207   6.209   8.092  0.2069 -0.2752  0.1536
  809loPI   C4A11590   2.160   6.085   8.492  0.2195 -0.3197  0.0997
  809loPI   C5A11591   1.818   6.100   8.911 -0.0415 -0.0803 -0.1853
  809loPI   C6A11592   1.660   5.811   9.263 -0.0153 -0.0598 -0.0885
  809loPI   C1B11593   1.873   6.570   7.266 -0.0673  0.0032  0.2528
  809loPI   C2B11594   1.813   6.534   7.752 -0.1951 -0.1371 -0.2375
  809loPI   C3B11595   1.901   6.638   8.101  0.2655 -0.0437  0.2205
  809loPI   C4B11596   1.894   6.509   8.450  0.2545  0.1607  0.1727
  810loPI    C111597   8.150   0.711   5.985  0.0903  0.1904 -0.0185
  810loPI    C211598   7.886   0.849   5.719  0.0097 -0.1224 -0.1052
  810loPI    C311599   7.868   0.468   5.840  0.1446 -0.0266  0.2299
  810loPI   PO411600   8.137   0.909   6.168  0.3964  0.0087  0.1645
  810loPI   GL111601   8.150   0.960   6.572 -0.1737  0.0711 -0.0254
  810loPI   GL211602   7.961   0.739   6.676  0.0310 -0.0171  0.1018
  810loPI   C1A11603   8.198   1.296   6.869  0.0183 -0.1423  0.0416
  810loPI   C2A11604   8.368   1.373   7.125  0.3104 -0.0582  0.0412
  810loPI   C3A11605   8.358   1.287   7.659  0.0472  0.0325 -0.1341
  810loPI   C4A11606   8.342   1.378   8.121 -0.3044 -0.1065 -0.0369
  810loPI   C5A11607   8.609   1.286   8.509  0.1979 -0.1571 -0.3870
  810loPI   C6A11608   8.825   0.948   8.728 -0.1643 -0.0097  0.0400
  810loPI   C1B11609   8.043   0.858   7.116 -0.0341  0.0496  0.1393
  810loPI   C2B11610   8.032   0.887   7.583 -0.1721 -0.0908  0.1971
  810loPI   C3B11611   8.115   0.875   8.017  0.1915 -0.0678  0.0518
  810loPI   C4B11612   8.221   0.941   8.447  0.1473 -0.2305 -0.2409
  811loPI    C111613  11.722  14.660   5.999 -0.0156  0.2426 -0.0469
  811loPI    C211614  11.487  14.579   5.686 -0.0013  0.1332 -0.0298
  811loPI    C311615  11.881  14.514   5.662  0.0101  0.1965 -0.0151
  811loPI   PO411616  11.704  14.901   6.090 -0.0201 -0.2321 -0.0710
  811loPI   GL111617  11.583  15.102   6.464  0.0321  0.0036  0.1241
  811loPI   GL211618  11.519  14.783   6.506  0.1491  0.0842  0.0745
  811loPI   C1A11619  11.736  15.350   6.760  0.0943 -0.1149  0.1043
  811loPI   C2A11620  11.718  15.310   7.197  0.0738 -0.1204  0.1707
  811loPI   C3A11621  11.820  15.335   7.610 -0.0726 -0.0837 -0.2319
  811loPI   C4A11622  11.776  15.331   8.067 -0.0620  0.0895  0.1357
  811loPI   C5A11623  11.676  15.168   8.406 -0.2050 -0.2429  0.0648
  811loPI   C6A11624  11.917  14.897   8.633  0.1940 -0.0889 -0.1505
  811loPI   C1B11625  11.549  14.912   7.049  0.1583  0.4150 -0.0780
  811loPI   C2B11626  11.506  14.887   7.484 -0.0569 -0.0562  0.0649
  811loPI   C3B11627  11.581  14.870   7.897 -0.0046  0.0423  0.3196
  811loPI   C4B11628  11.574  14.705   8.313 -0.1272 -0.1051 -0.1304
  812loPI    C111629   0.082  12.182   6.223  0.2466 -0.1441  0.0820
  812loPI    C211630   0.471  12.255   6.161  0.2114 -0.0292 -0.0064
  812loPI    C311631   0.199  12.378   5.894  0.0990  0.0463  0.1411
  812loPI   PO411632   0.040  12.196   6.436 -0.0004 -0.2778 -0.0442
  812loPI   GL111633   0.168  11.962   6.892  0.3094 -0.1637 -0.0403
  812loPI   GL211634   0.296  12.285   6.883 -0.2281  0.1563  0.0634
  812loPI   C1A11635   0.110  12.067   7.344 -0.0286  0.0396 -0.0777
  812loPI   C2A11636   0.023  12.010   7.803 -0.0287  0.0981 -0.1515
  812loPI   C3A11637   0.104  11.980   8.184 -0.1547  0.1191  0.4986
  812loPI   C4A11638  -0.006  11.818   8.597 -0.0186  0.1001  0.1126
  812loPI   C5A11639  -0.313  11.602   8.941 -0.3076  0.2270  0.1946
  812loPI   C6A11640  -0.483  11.254   9.219  0.3168  0.0293 -0.0585
  812loPI   C1B11641   0.282  12.550   7.246  0.1916  0.0748 -0.2936
  812loPI   C2B11642   0.335  12.429   7.661  0.3059  0.0859  0.0443
  812loPI   C3B11643   0.275  12.490   8.092 -0.1999 -0.3510  0.2730
  812loPI   C4B11644   0.428  12.501   8.469  0.1311 -0.0164  0.0973
  813loPI    C111645  12.696  16.316   6.282 -0.1240  0.2886  0.0436
  813loPI    C211646  12.483  16.064   6.056  0.2103 -0.1354  0.1862
  813loPI    C311647  12.813  16.235   5.908  0.1136  0.0381  0.1682
  813loPI   PO411648  12.554  16.393   6.435 -0.3260 -0.0594 -0.0487
  813loPI   GL111649  12.445  16.370   6.800 -0.2201 -0.1082 -0.0606
  813loPI   GL211650  12.233  16.285   6.857 -0.1457 -0.0619  0.0704
  813loPI   C1A11651  12.654  16.373   7.176 -0.2912 -0.0500 -0.1333
  813loPI   C2A11652  12.662  16.285   7.646  0.1505  0.0878 -0.0456
  813loPI   C3A11653  12.609  16.229   8.086  0.0658  0.2416  0.0967
  813loPI   C4A11654  12.492  16.168   8.460  0.2614 -0.0309 -0.1552
  813loPI   C5A11655  12.360  15.802   8.624 -0.2068 -0.1174  0.1647
  813loPI   C6A11656  12.209  15.514   8.905 -0.1317  0.0405  0.0227
  813loPI   C1B11657  12.241  16.271   7.349 -0.0937  0.0847  0.1338
  813loPI   C2B11658  12.190  16.267   7.758 -0.0320  0.3619 -0.1708
  813loPI   C3B11659  12.097  16.173   8.173 -0.0545 -0.0086  0.0254
  813loPI   C4B11660  11.938  16.109   8.583  0.1779  0.0114 -0.0038
  814loPI    C111661  13.234  15.770   6.037 -0.1500  0.1388 -0.1420
  814loPI    C211662  13.549  16.007   6.102 -0.1690  0.0903  0.1408
  814loPI    C311663  13.479  15.864   5.735  0.2338 -0.0343  0.1070
  814loPI   PO411664  13.031  15.853   6.214 -0.0905  0.0505 -0.0452
  814loPI   GL111665  13.053  15.824   6.611 -0.3174 -0.1112  0.0139
  814loPI   GL211666  13.386  15.828   6.553 -0.0131  0.0235 -0.2237
  814loPI   C1A11667  13.131  15.653   7.065 -0.0434  0.2185  0.1002
  814loPI   C2A11668  13.095  15.613   7.494  0.1722 -0.0163  0.0735
  814loPI   C3A11669  13.225  15.494   7.820 -0.1822 -0.2165  0.3666
  814loPI   C4A11670  13.280  15.612   8.259 -0.3253 -0.0963  0.0080
  814loPI   C5A11671  13.228  15.765   8.660 -0.1706  0.1935  0.0162
  814loPI   C6A11672  13.079  16.030   8.987 -0.0181  0.2241  0.3340
  814loPI   C1B11673  13.612  15.879   6.908  0.1600  0.1330 -0.1953
  814loPI   C2B11674  13.523  15.939   7.353  0.1564  0.1049  0.0176
  814loPI   C3B11675  13.515  15.890   7.874  0.3226 -0.2653 -0.1647
  814loPI   C4B11676  13.623  15.988   8.354  0.1204  0.1457 -0.0490
  815loPI    C111677  15.301   5.075   6.075  0.4382  0.2288  0.0193
  815loPI    C211678  15.548   4.892   5.819  0.2716 -0.1349  0.1125
  815loPI    C311679  15.166   4.956   5.717  0.2356 -0.1726  0.2222
  815loPI   PO411680  15.255   4.993   6.275  0.0129  0.3214 -0.1930
  815loPI   GL111681  15.523   4.978   6.646 -0.3920 -0.0823 -0.1619
  815loPI   GL211682  15.849   4.907   6.680 -0.0030  0.0962 -0.4670
  815loPI   C1A11683  15.663   5.210   7.054 -0.3650 -0.1346 -0.0428
  815loPI   C2A11684  15.704   5.063   7.490  0.2472  0.0116 -0.2221
  815loPI   C3A11685  15.642   5.054   7.943  0.0049 -0.0750  0.2303
  815loPI   C4A11686  15.711   5.045   8.327 -0.1543  0.0282  0.0596
  815loPI   C5A11687  15.704   5.051   8.702  0.1905  0.0144  0.0168
  815loPI   C6A11688  15.932   4.811   9.065 -0.0822  0.1183 -0.0710
  815loPI   C1B11689  15.808   4.723   7.071  0.3519  0.0058  0.1409
  815loPI   C2B11690  15.892   4.624   7.544 -0.2136  0.1939 -0.2161
  815loPI   C3B11691  15.899   4.650   8.025 -0.1161 -0.0410  0.3485
  815loPI   C4B11692  15.947   4.652   8.465 -0.1530  0.1722  0.2260
  816loPI    C111693   5.118   8.852   6.122 -0.1003  0.1697  0.0308
  816loPI    C211694   4.872   8.995   5.841 -0.0581  0.0104 -0.0887
  816loPI    C311695   5.040   8.635   5.795  0.1231  0.0776  0.0369
  816loPI   PO411696   4.955   8.931   6.356  0.3054 -0.1123 -0.0753
  816loPI   GL111697   4.793   9.017   6.643  0.0113 -0.2371 -0.0671
  816loPI   GL211698   4.861   9.406   6.609 -0.0148  0.0716  0.0929
  816loPI   C1A11699   4.700   8.970   7.066  0.1322  0.0970  0.1157
  816loPI   C2A11700   4.659   8.972   7.551  0.1396 -0.3748 -0.1173
  816loPI   C3A11701   4.750   8.921   7.914  0.0552 -0.1190  0.1336
  816loPI   C4A11702   4.639   9.067   8.350 -0.3754  0.0423  0.2935
  816loPI   C5A11703   4.404   9.186   8.748 -0.1914 -0.0756  0.0276
  816loPI   C6A11704   4.299   9.452   9.123  0.1173  0.0205  0.1058
  816loPI   C1B11705   5.028   9.343   7.037 -0.1364  0.1513  0.0991
  816loPI   C2B11706   4.963   9.405   7.532  0.0207 -0.0191 -0.1330
  816loPI   C3B11707   4.870   9.449   7.998  0.0801  0.1335  0.0032
  816loPI   C4B11708   5.034   9.510   8.351  0.1581  0.0595  0.1231
  817loPI    C111709   1.138   1.323   6.392  0.1820  0.0171 -0.1402
  817loPI    C211710   0.885   1.216   6.101  0.0824  0.1551 -0.1058
  817loPI    C311711   1.225   1.406   6.010  0.1009  0.1060 -0.1399
  817loPI   PO411712   1.122   1.124   6.533 -0.0874  0.0226  0.1748
  817loPI   GL111713   1.211   1.027   6.935 -0.1319  0.0064 -0.2417
  817loPI   GL211714   1.511   1.005   6.998  0.2405 -0.0288  0.1167
  817loPI   C1A11715   1.078   0.952   7.330 -0.1137  0.0053  0.1548
  817loPI   C2A11716   1.079   0.893   7.756 -0.0556 -0.0363 -0.1014
  817loPI   C3A11717   1.010   0.987   8.151 -0.1787  0.3249 -0.1889
  817loPI   C4A11718   1.010   1.076   8.654  0.0934  0.0405 -0.1815
  817loPI   C5A11719   1.318   1.306   8.981 -0.1774 -0.2825  0.1142
  817loPI   C6A11720   1.702   1.167   9.331  0.1831 -0.0248  0.0592
  817loPI   C1B11721   1.592   0.963   7.347 -0.2092 -0.0585 -0.0865
  817loPI   C2B11722   1.665   0.945   7.741 -0.1787  0.5042  0.0619
  817loPI   C3B11723   1.565   1.043   8.155  0.0690 -0.0957  0.3861
  817loPI   C4B11724   1.623   1.111   8.586 -0.1921 -0.0190  0.1506
  818loPI    C111725  12.557   6.309   6.277 -0.2533 -0.1738 -0.1534
  818loPI    C211726  12.659   6.506   5.944  0.5448  0.0286  0.1865
  818loPI    C311727  12.747   6.118   5.982 -0.1254 -0.1644 -0.0776
  818loPI   PO411728  12.709   6.401   6.464  0.2251 -0.2934  0.2227
  818loPI   GL111729  12.828   6.183   6.751 -0.0801  0.1057 -0.1119
  818loPI   GL211730  12.696   5.896   6.837 -0.0661  0.0422 -0.4032
  818loPI   C1A11731  12.778   6.331   7.103  0.1423 -0.0383 -0.1950
  818loPI   C2A11732  12.710   6.337   7.539  0.0493  0.0186  0.0133
  818loPI   C3A11733  12.681   6.431   7.955  0.0378 -0.2070  0.2141
  818loPI   C4A11734  12.652   6.437   8.437 -0.0865  0.2032 -0.0402
  818loPI   C5A11735  12.418   6.596   8.711 -0.0514  0.0428  0.0007
  818loPI   C6A11736  12.126   6.952   8.795 -0.0030  0.0318  0.0816
  818loPI   C1B11737  12.523   5.878   7.287  0.0822  0.2704  0.0911
  818loPI   C2B11738  12.423   5.946   7.750  0.0764  0.0902 -0.0592
  818loPI   C3B11739  12.360   5.966   8.184  0.0435 -0.1748  0.2643
  818loPI   C4B11740  12.397   5.835   8.619 -0.0589 -0.1531  0.1091
  819loPI    C111741   2.236  13.312   6.440 -0.3109  0.0674 -0.0153
  819loPI    C211742   2.529  13.403   6.184 -0.3165 -0.0747 -0.0733
  819loPI    C311743   2.528  13.562   6.551 -0.2361  0.0254 -0.1157
  819loPI   PO411744   2.230  13.125   6.468  0.1071  0.3386 -0.1301
  819loPI   GL111745   2.503  13.026   6.783  0.1509  0.3570 -0.0307
  819loPI   GL211746   2.283  12.879   6.977 -0.0563  0.1555  0.0179
  819loPI   C1A11747   2.448  13.351   7.146  0.0440 -0.1059 -0.1829
  819loPI   C2A11748   2.526  13.312   7.630 -0.0957  0.0268 -0.1589
  819loPI   C3A11749   2.470  13.262   8.093 -0.0114 -0.1424  0.1598
  819loPI   C4A11750   2.654  13.212   8.505  0.1858  0.1896  0.0948
  819loPI   C5A11751   2.792  13.234   9.001  0.0381 -0.0136 -0.0852
  819loPI   C6A11752   3.085  13.004   9.213  0.0818 -0.4216  0.0657
  819loPI   C1B11753   2.396  12.887   7.434  0.3156  0.0547 -0.0322
  819loPI   C2B11754   2.429  12.803   7.952  0.0473 -0.1045 -0.0323
  819loPI   C3B11755   2.351  12.793   8.317 -0.0548  0.1958 -0.2552
  819loPI   C4B11756   2.217  12.924   8.639 -0.2356  0.1388 -0.1053
  820loPI    C111757   3.950   7.882   6.087  0.1403 -0.2006 -0.3056
  820loPI    C211758   3.988   8.280   6.090  0.1234 -0.1994  0.0068
  820loPI    C311759   3.763   8.103   5.811  0.0872  0.0135 -0.1009
  820loPI   PO411760   3.916   7.839   6.347  0.4181 -0.2743 -0.1021
  820loPI   GL111761   3.883   7.805   6.691 -0.1090  0.0660 -0.1595
  820loPI   GL211762   3.941   8.092   6.844 -0.2790 -0.1693 -0.2970
  820loPI   C1A11763   3.947   7.578   7.098 -0.1888  0.2782 -0.0640
  820loPI   C2A11764   3.978   7.538   7.504  0.0665 -0.1615 -0.0192
  820loPI   C3A11765   3.990   7.627   7.908  0.0769  0.1819  0.1494
  820loPI   C4A11766   3.964   7.692   8.377  0.2678  0.0130  0.1004
  820loPI   C5A11767   3.995   7.358   8.759  0.3565  0.0657 -0.1774
  820loPI   C6A11768   4.402   7.144   8.975  0.1347 -0.0525  0.2485
  820loPI   C1B11769   3.860   8.046   7.300  0.2995 -0.0708 -0.2050
  820loPI   C2B11770   3.696   7.909   7.677  0.0228  0.1149 -0.1497
  820loPI   C3B11771   3.658   7.963   8.069  0.1974  0.1032  0.2433
  820loPI   C4B11772   3.626   8.132   8.463 -0.0733 -0.2636  0.2263
  821loPI    C111773   2.586   7.263   6.291  0.0823 -0.1825  0.0430
  821loPI    C211774   2.544   7.585   6.058  0.3291 -0.1052  0.1021
  821loPI    C311775   2.352   7.247   5.967 -0.0588  0.1026  0.1273
  821loPI   PO411776   2.549   7.305   6.487  0.2219 -0.0057 -0.2938
  821loPI   GL111777   2.479   7.086   6.848  0.0898  0.1822 -0.0049
  821loPI   GL211778   2.163   7.006   6.807 -0.0634  0.2464  0.3098
  821loPI   C1A11779   2.612   7.060   7.259  0.0422  0.1356  0.0184
  821loPI   C2A11780   2.662   6.933   7.660 -0.2069 -0.2231  0.1021
  821loPI   C3A11781   2.756   7.125   8.173  0.2450 -0.2305 -0.0971
  821loPI   C4A11782   2.635   7.036   8.580 -0.1925  0.2492  0.0369
  821loPI   C5A11783   2.572   6.928   9.007 -0.1099  0.2109  0.1274
  821loPI   C6A11784   2.952   6.786   9.267  0.1244  0.0279 -0.0013
  821loPI   C1B11785   2.104   7.018   7.312  0.1855  0.0492 -0.0676
  821loPI   C2B11786   2.128   7.063   7.821 -0.0460  0.0598  0.0842
  821loPI   C3B11787   2.215   7.066   8.271  0.2698  0.2456 -0.2486
  821loPI   C4B11788   2.147   6.913   8.624 -0.1933  0.0973 -0.1469
  822loPI    C111789   1.236  10.000   5.889 -0.1342 -0.1185  0.2479
  822loPI    C211790   0.898   9.929   5.686 -0.0671 -0.0526  0.1118
  822loPI    C311791   1.112   9.624   5.833 -0.0093 -0.1130 -0.0930
  822loPI   PO411792   1.119  10.180   6.096 -0.4369  0.0301  0.2040
  822loPI   GL111793   0.990  10.144   6.514  0.0018 -0.0820  0.0466
  822loPI   GL211794   0.938   9.858   6.655 -0.2056  0.1864  0.3771
  822loPI   C1A11795   0.861  10.257   6.888  0.2112 -0.0368 -0.0451
  822loPI   C2A11796   0.661  10.174   7.363  0.0200 -0.0369  0.0333
  822loPI   C3A11797   0.777  10.271   7.791 -0.1076  0.1200 -0.2970
  822loPI   C4A11798   0.858  10.183   8.195  0.0929  0.0298  0.1633
  822loPI   C5A11799   0.805  10.203   8.669 -0.0760  0.2158 -0.1241
  822loPI   C6A11800   0.515  10.452   8.969 -0.0881  0.0187 -0.1143
  822loPI   C1B11801   1.015   9.809   7.127 -0.0908 -0.0906 -0.2266
  822loPI   C2B11802   1.025   9.863   7.529 -0.2470  0.2861 -0.0608
  822loPI   C3B11803   1.106   9.815   7.983  0.1398 -0.0285 -0.2431
  822loPI   C4B11804   0.993   9.758   8.433 -0.1841 -0.0388 -0.0807
  823loPI    C111805   3.666  14.142   6.246 -0.0385  0.0704 -0.0336
  823loPI    C211806   3.765  14.465   6.031  0.2575  0.0677  0.0939
  823loPI    C311807   3.674  14.122   5.846  0.1865  0.1552 -0.0351
  823loPI   PO411808   3.716  14.174   6.474 -0.0467  0.0534 -0.0431
  823loPI   GL111809   3.772  13.931   6.833  0.3826  0.2238  0.3878
  823loPI   GL211810   3.428  13.918   6.871  0.0167 -0.0813 -0.2129
  823loPI   C1A11811   3.748  14.035   7.211  0.0120  0.3651 -0.1377
  823loPI   C2A11812   3.810  14.037   7.591 -0.0211  0.0154  0.3451
  823loPI   C3A11813   3.803  13.831   7.948 -0.0199 -0.1286  0.1898
  823loPI   C4A11814   3.865  13.816   8.286  0.2823  0.0782 -0.3037
  823loPI   C5A11815   4.086  14.065   8.557 -0.1847 -0.1258 -0.1573
  823loPI   C6A11816   4.440  14.188   8.963 -0.0828  0.1616 -0.1592
  823loPI   C1B11817   3.142  13.831   7.162 -0.1975 -0.2185  0.0269
  823loPI   C2B11818   3.117  13.797   7.544  0.0029 -0.1532  0.1357
  823loPI   C3B11819   3.224  13.768   7.996 -0.1332 -0.0071 -0.1446
  823loPI   C4B11820   3.326  13.819   8.409  0.0130 -0.0576  0.0055
  824loPI    C111821   0.318   7.894   6.259 -0.0053  0.0991  0.0863
  824loPI    C211822  -0.059   7.951   6.140 -0.0980 -0.1557  0.2495
  824loPI    C311823   0.241   7.987   5.878 -0.2104  0.3013  0.1748
  824loPI   PO411824   0.345   8.092   6.469  0.3189  0.0893 -0.2949
  824loPI   GL111825   0.428   8.236   6.903 -0.1065  0.1443  0.0159
  824loPI   GL211826   0.104   8.229   6.993 -0.2251 -0.3856  0.1214
  824loPI   C1A11827   0.602   8.343   7.360 -0.1112 -0.0817  0.0028
  824loPI   C2A11828   0.722   8.320   7.881  0.2087  0.1224  0.5304
  824loPI   C3A11829   0.906   8.352   8.248  0.0876  0.2313 -0.1456
  824loPI   C4A11830   0.932   8.423   8.629  0.0236 -0.3437 -0.0276
  824loPI   C5A11831   1.056   8.578   8.991  0.3995  0.2022  0.0065
  824loPI   C6A11832   1.078   8.988   8.992  0.1329 -0.0612 -0.1617
  824loPI   C1B11833   0.061   8.240   7.436 -0.0085  0.2504  0.0875
  824loPI   C2B11834   0.188   8.242   7.807 -0.2618  0.1463 -0.2406
  824loPI   C3B11835   0.328   8.333   8.185  0.1369  0.0447  0.0617
  824loPI   C4B11836   0.448   8.357   8.537 -0.4771  0.1528  0.0401
  825loPI    C111837   9.282   4.500   5.711  0.1250 -0.1372 -0.0877
  825loPI    C211838   9.576   4.706   5.534 -0.0627  0.0974 -0.1313
  825loPI    C311839   9.510   4.325   5.433  0.3009  0.0056 -0.0350
  825loPI   PO411840   9.328   4.458   6.123  0.1783 -0.0848 -0.3692
  825loPI   GL111841   9.202   4.485   6.470  0.2708  0.0137 -0.4330
  825loPI   GL211842   9.105   4.364   6.723  0.2592  0.1201 -0.2051
  825loPI   C1A11843   9.510   4.504   6.893  0.0456  0.2664  0.1715
  825loPI   C2A11844   9.596   4.592   7.345  0.1245 -0.1527 -0.2476
  825loPI   C3A11845   9.591   4.459   7.787 -0.1653  0.0940 -0.4279
  825loPI   C4A11846   9.554   4.411   8.188 -0.0455  0.1767  0.1865
  825loPI   C5A11847   9.580   4.509   8.646  0.1130 -0.2267 -0.1073
  825loPI   C6A11848   9.486   4.636   9.037  0.0892 -0.0008 -0.0921
  825loPI   C1B11849   9.033   4.563   7.055 -0.1453 -0.0799 -0.0276
  825loPI   C2B11850   9.061   4.493   7.477 -0.0424 -0.0984  0.2697
  825loPI   C3B11851   9.098   4.476   7.927  0.0241  0.1097  0.1518
  825loPI   C4B11852   9.066   4.466   8.323  0.3462  0.0088  0.1723
  826loPI    C111853   8.803   3.198   5.975 -0.0631 -0.3318 -0.0892
  826loPI    C211854   8.581   3.384   5.699  0.0396 -0.1981 -0.0830
  826loPI    C311855   8.892   3.157   5.587  0.2844  0.1216 -0.0667
  826loPI   PO411856   8.588   3.134   6.171 -0.0138  0.1532 -0.2333
  826loPI   GL111857   8.516   3.158   6.563  0.1759 -0.1152  0.0236
  826loPI   GL211858   8.499   3.487   6.742 -0.0544 -0.0893 -0.1028
  826loPI   C1A11859   8.322   3.003   6.903 -0.2455  0.0008 -0.2053
  826loPI   C2A11860   8.239   3.053   7.298  0.4723 -0.2245  0.0020
  826loPI   C3A11861   8.317   3.193   7.731 -0.1460 -0.2034 -0.1437
  826loPI   C4A11862   8.333   3.121   8.139 -0.2174  0.1878  0.0770
  826loPI   C5A11863   8.333   3.011   8.570  0.0786 -0.0919  0.0031
  826loPI   C6A11864   8.191   2.715   8.743 -0.0043  0.0715 -0.0075
  826loPI   C1B11865   8.566   3.613   7.177  0.2740 -0.1143 -0.1125
  826loPI   C2B11866   8.510   3.687   7.623  0.4040  0.2497 -0.0078
  826loPI   C3B11867   8.537   3.582   8.059 -0.2154 -0.1333  0.2194
  826loPI   C4B11868   8.610   3.493   8.556  0.0424  0.4548  0.1932
  827loPI    C111869   5.968   5.422   6.479 -0.0589  0.0059  0.1312
  827loPI    C211870   5.847   5.335   6.108 -0.0672  0.0529  0.1229
  827loPI    C311871   6.225   5.265   6.216  0.0052  0.2833  0.0248
  827loPI   PO411872   5.800   5.303   6.623 -0.1251  0.3150 -0.3351
  827loPI   GL111873   5.902   5.183   6.971 -0.1385  0.3389  0.0974
  827loPI   GL211874   6.074   4.878   6.939  0.0138  0.2055 -0.3645
  827loPI   C1A11875   5.800   5.291   7.361  0.0413 -0.0977  0.2585
  827loPI   C2A11876   5.863   5.318   7.864  0.1238  0.3358  0.0230
  827loPI   C3A11877   5.824   5.395   8.199 -0.0696 -0.0107 -0.1119
  827loPI   C4A11878   5.706   5.420   8.665  0.1410 -0.2054 -0.1853
  827loPI   C5A11879   5.668   5.635   9.050  0.1361  0.0091  0.0181
  827loPI   C6A11880   5.966   5.889   9.362  0.0854  0.1544  0.1701
  827loPI   C1B11881   6.184   4.885   7.395  0.2556  0.0353  0.1288
  827loPI   C2B11882   6.117   4.805   7.826  0.0215  0.0589 -0.0513
  827loPI   C3B11883   6.105   4.987   8.204 -0.0114  0.0216 -0.0943
  827loPI   C4B11884   6.017   5.000   8.612  0.3120 -0.3290  0.1966
  828loPI    C111885  14.082  10.807   5.979  0.1042 -0.0856  0.0447
  828loPI    C211886  13.894  11.091   5.769  0.0126 -0.1083  0.0960
  828loPI    C311887  14.229  10.925   5.626  0.0613  0.0189  0.0617
  828loPI   PO411888  14.029  10.945   6.259 -0.0737 -0.2874 -0.1333
  828loPI   GL111889  14.216  11.209   6.540  0.0112  0.3041  0.4495
  828loPI   GL211890  14.393  11.008   6.688  0.2834 -0.1677  0.4424
  828loPI   C1A11891  13.957  11.087   6.858  0.0433  0.0755 -0.2540
  828loPI   C2A11892  13.943  11.079   7.301  0.0771 -0.3042 -0.0549
  828loPI   C3A11893  13.992  11.113   7.653  0.1219 -0.2190 -0.4994
  828loPI   C4A11894  13.956  11.250   8.103 -0.2412 -0.0548  0.1062
  828loPI   C5A11895  13.784  11.024   8.402  0.0822 -0.1770  0.2655
  828loPI   C6A11896  13.544  10.874   8.694  0.3850 -0.0794 -0.1460
  828loPI   C1B11897  14.413  11.172   7.101  0.0789 -0.1837  0.1030
  828loPI   C2B11898  14.471  11.161   7.519 -0.2300 -0.1253  0.0050
  828loPI   C3B11899  14.439  11.233   7.939  0.1335 -0.2233 -0.3116
  828loPI   C4B11900  14.409  11.317   8.418  0.1726 -0.1333  0.0623
  829loPI    C111901  10.211   9.406   5.786  0.1654 -0.1045  0.0967
  829loPI    C211902  10.407   9.389   5.437  0.1988 -0.0536  0.1127
  829loPI    C311903  10.414   9.725   5.654 -0.1942  0.0676 -0.0537
  829loPI   PO411904  10.292   9.228   6.015  0.0285 -0.5089 -0.1219
  829loPI   GL111905  10.306   9.290   6.425  0.2388 -0.2421  0.2144
  829loPI   GL211906  10.256   9.559   6.824 -0.0526  0.1775  0.1356
  829loPI   C1A11907  10.404   9.100   6.872  0.0457 -0.0866 -0.1076
  829loPI   C2A11908  10.450   8.955   7.295 -0.0649  0.1752  0.0311
  829loPI   C3A11909  10.460   8.971   7.743 -0.2293 -0.1194  0.2881
  829loPI   C4A11910  10.483   8.961   8.205  0.3057 -0.3161  0.0106
  829loPI   C5A11911  10.650   9.057   8.605 -0.3135  0.1257  0.0098
  829loPI   C6A11912  11.088   9.031   8.835  0.1777 -0.2912 -0.0222
  829loPI   C1B11913  10.218   9.463   7.166 -0.0321  0.0880 -0.0156
  829loPI   C2B11914  10.215   9.394   7.537 -0.0412  0.0997  0.5258
  829loPI   C3B11915  10.152   9.337   7.983  0.0552 -0.0189 -0.1853
  829loPI   C4B11916   9.777   9.367   8.249 -0.0205  0.2432  0.1324
  830loPI    C111917  16.615  14.640   6.207  0.2326 -0.0619 -0.1917
  830loPI    C211918  16.325  14.867   6.053  0.2401  0.1053  0.0358
  830loPI    C311919  16.548  14.639   5.813 -0.1488 -0.1100 -0.1308
  830loPI   PO411920  16.444  14.564   6.414 -0.0131  0.1226  0.0034
  830loPI   GL111921  16.685  14.489   6.787  0.2639 -0.0739  0.0894
  830loPI   GL211922  16.492  14.204   6.817  0.1044  0.0742  0.1406
  830loPI   C1A11923  16.851  14.683   7.087 -0.1057 -0.1852  0.1690
  830loPI   C2A11924  16.826  14.801   7.483  0.0982  0.5471  0.0074
  830loPI   C3A11925  16.821  14.626   7.861  0.0600  0.1340 -0.0214
  830loPI   C4A11926  16.882  14.532   8.285 -0.0320  0.0860 -0.0111
  830loPI   C5A11927  17.066  14.494   8.678 -0.0938 -0.1195 -0.1187
  830loPI   C6A11928  17.089  14.377   9.017  0.0140  0.0320 -0.2692
  830loPI   C1B11929  16.572  14.231   7.255  0.2665 -0.2126 -0.1836
  830loPI   C2B11930  16.762  14.139   7.594  0.1612 -0.1003 -0.2436
  830loPI   C3B11931  16.654  14.160   7.980  0.1474  0.2427 -0.0752
  830loPI   C4B11932  16.695  14.066   8.408  0.2411 -0.0352  0.2769
  831loPI    C111933   7.021   8.134   6.143  0.0510  0.3677 -0.1064
  831loPI    C211934   6.806   8.113   5.807 -0.1174 -0.1465  0.0242
  831loPI    C311935   7.151   7.913   5.836  0.1081  0.2315  0.0146
  831loPI   PO411936   6.935   8.276   6.272  0.1302 -0.0544 -0.1545
  831loPI   GL111937   6.600   8.493   6.473  0.3159 -0.3005 -0.1180
  831loPI   GL211938   6.242   8.372   6.520 -0.1061 -0.0169  0.3694
  831loPI   C1A11939   6.521   8.454   6.950  0.0515 -0.1162  0.3330
  831loPI   C2A11940   6.557   8.470   7.294  0.2302  0.2816  0.0665
  831loPI   C3A11941   6.615   8.545   7.805 -0.1638  0.2325  0.0165
  831loPI   C4A11942   6.573   8.509   8.286  0.3496 -0.1604  0.0301
  831loPI   C5A11943   6.837   8.627   8.604 -0.1705 -0.1046  0.1262
  831loPI   C6A11944   7.169   8.911   8.631  0.1532 -0.2883  0.2211
  831loPI   C1B11945   5.994   8.377   6.901  0.1100 -0.0081 -0.1103
  831loPI   C2B11946   6.002   8.527   7.330 -0.2451  0.2731  0.0431
  831loPI   C3B11947   6.029   8.476   7.722 -0.1714 -0.0865  0.0201
  831loPI   C4B11948   6.066   8.425   8.137  0.2146 -0.0388 -0.2773
  832loPI    C111949  12.547  12.020   5.854 -0.0023 -0.0181 -0.0368
  832loPI    C211950  12.944  11.976   5.880 -0.0095  0.0471  0.2178
  832loPI    C311951  12.789  12.328   5.770  0.0048 -0.0242 -0.0383
  832loPI   PO411952  12.455  11.948   6.047 -0.0339 -0.0354  0.0915
  832loPI   GL111953  12.254  12.151   6.392  0.0367 -0.0919 -0.0546
  832loPI   GL211954  12.243  12.312   6.562 -0.3311 -0.1339  0.0484
  832loPI   C1A11955  12.081  11.881   6.721  0.0016  0.1386 -0.1543
  832loPI   C2A11956  12.146  11.791   7.155  0.0898 -0.1944 -0.2856
  832loPI   C3A11957  12.169  11.790   7.613 -0.1590  0.1427  0.1461
  832loPI   C4A11958  12.205  11.802   8.107 -0.1292 -0.1729 -0.1282
  832loPI   C5A11959  12.099  11.926   8.478 -0.1071  0.3487 -0.1546
  832loPI   C6A11960  11.879  11.752   8.853 -0.1793  0.0207  0.1970
  832loPI   C1B11961  12.407  12.215   6.981 -0.2175  0.1449  0.1491
  832loPI   C2B11962  12.444  12.216   7.426 -0.0697 -0.2550  0.0167
  832loPI   C3B11963  12.426  12.168   7.789  0.2076  0.2398  0.2530
  832loPI   C4B11964  12.379  12.268   8.237 -0.0892 -0.0236 -0.1029
  833loPI    C111965   1.075  11.883   6.249 -0.1527 -0.0971 -0.1838
  833loPI    C211966   1.260  11.540   6.158  0.3531  0.0759  0.1495
  833loPI    C311967   1.260  11.844   5.897  0.0794 -0.1014 -0.0631
  833loPI   PO411968   1.092  11.881   6.498  0.2668  0.3219  0.1155
  833loPI   GL111969   1.237  12.134   6.741 -0.5206  0.3619  0.0229
  833loPI   GL211970   1.545  12.184   6.833 -0.1783  0.3386  0.1499
  833loPI   C1A11971   1.154  12.106   7.106 -0.0054 -0.1978 -0.1198
  833loPI   C2A11972   1.120  12.118   7.516 -0.1356 -0.0308 -0.0261
  833loPI   C3A11973   1.112  12.144   7.958  0.0105  0.3026 -0.2493
  833loPI   C4A11974   1.184  11.939   8.286 -0.0453 -0.1012 -0.0331
  833loPI   C5A11975   1.363  11.826   8.764  0.1754 -0.1020  0.1084
  833loPI   C6A11976   1.332  11.441   9.041 -0.0740  0.1339  0.0188
  833loPI   C1B11977   1.653  12.100   7.238 -0.0118 -0.2826  0.1079
  833loPI   C2B11978   1.694  12.096   7.627  0.1342  0.4905  0.1755
  833loPI   C3B11979   1.632  12.218   7.978 -0.0169  0.0593  0.2091
  833loPI   C4B11980   1.605  12.204   8.517  0.0017 -0.0119 -0.1137
  834loPI    C111981  11.639   9.951   6.081 -0.0352  0.3002 -0.1631
  834loPI    C211982  11.830   9.711   5.824  0.0674  0.1584  0.0423
  834loPI    C311983  11.770  10.096   5.732  0.0051  0.0841 -0.2393
  834loPI   PO411984  11.692  10.020   6.331  0.1688  0.0314 -0.1635
  834loPI   GL111985  11.891   9.840   6.635  0.1675 -0.1182 -0.1208
  834loPI   GL211986  12.148   9.981   6.640 -0.2541  0.3844  0.4372
  834loPI   C1A11987  11.744   9.606   6.971 -0.2135  0.2479 -0.0481
  834loPI   C2A11988  11.750   9.581   7.424  0.0391  0.0626 -0.1236
  834loPI   C3A11989  11.680   9.515   7.902 -0.1377 -0.0014 -0.1963
  834loPI   C4A11990  11.806   9.542   8.278  0.1064 -0.1109  0.0203
  834loPI   C5A11991  11.876   9.523   8.654  0.1070  0.1208 -0.1417
  834loPI   C6A11992  12.135   9.315   8.740  0.1490 -0.0267  0.1301
  834loPI   C1B11993  11.956  10.036   7.090 -0.0850  0.1796 -0.2573
  834loPI   C2B11994  11.938  10.031   7.531 -0.0877 -0.2196  0.0705
  834loPI   C3B11995  11.876   9.953   7.963 -0.0231 -0.1012 -0.1114
  834loPI   C4B11996  11.912  10.071   8.467  0.2037 -0.1557 -0.2583
  835loPI    C111997   3.858   5.274   6.338 -0.2859  0.1023 -0.0253
  835loPI    C211998   3.989   5.026   6.053 -0.1198 -0.0734  0.2004
  835loPI    C311999   3.605   5.139   6.060 -0.1870 -0.2877  0.0690
  835loPI   PO412000   4.074   5.418   6.409 -0.1479  0.4342 -0.0381
  835loPI   GL112001   4.115   5.718   6.783 -0.1990 -0.1738 -0.1460
  835loPI   GL212002   4.466   5.818   6.922  0.2136 -0.0053 -0.1035
  835loPI   C1A12003   4.070   5.758   7.185 -0.1020 -0.1172  0.1113
  835loPI   C2A12004   4.004   5.781   7.585  0.0260  0.4876  0.1046
  835loPI   C3A12005   4.074   5.759   8.001  0.1498  0.2195 -0.0147
  835loPI   C4A12006   4.010   5.760   8.440 -0.0611 -0.2092  0.0606
  835loPI   C5A12007   4.046   5.732   8.922 -0.0935  0.1217  0.1485
  835loPI   C6A12008   4.506   5.703   9.106  0.1637 -0.1810  0.3489
  835loPI   C1B12009   4.565   5.754   7.337  0.1227 -0.0239 -0.0121
  835loPI   C2B12010   4.626   5.760   7.818 -0.2051 -0.0824  0.0205
  835loPI   C3B12011   4.509   5.786   8.230 -0.0217 -0.0440  0.0722
  835loPI   C4B12012   4.553   5.706   8.577 -0.4116 -0.2422 -0.3013
  836loPI    C112013   4.768   3.642   6.208 -0.0481 -0.0487  0.1591
  836loPI    C212014   4.874   3.586   5.826  0.3114 -0.1535  0.2711
  836loPI    C312015   4.627   3.327   6.004  0.0657 -0.0516  0.0838
  836loPI   PO412016   4.998   3.753   6.340 -0.0480  0.1621 -0.0990
  836loPI   GL112017   5.099   3.945   6.795  0.2034  0.0953  0.0116
  836loPI   GL212018   5.382   3.957   6.825  0.3432  0.0721  0.1590
  836loPI   C1A12019   5.091   3.933   7.239 -0.1008  0.0692  0.2286
  836loPI   C2A12020   5.285   3.989   7.645  0.2459 -0.0061  0.1839
  836loPI   C3A12021   5.254   4.012   8.195  0.0053  0.0058 -0.0663
  836loPI   C4A12022   5.131   3.800   8.502  0.0324  0.0507 -0.1156
  836loPI   C5A12023   5.060   3.774   9.037  0.1469  0.1626  0.1691
  836loPI   C6A12024   4.860   3.466   9.236  0.1299  0.0899 -0.2704
  836loPI   C1B12025   5.648   3.954   7.166 -0.1433 -0.2774  0.4915
  836loPI   C2B12026   5.758   3.943   7.547  0.0660 -0.3119 -0.4372
  836loPI   C3B12027   5.711   3.895   7.958  0.0154  0.0538 -0.0525
  836loPI   C4B12028   5.660   3.946   8.444 -0.3107  0.0226 -0.0169
  837loPI    C112029   4.720  16.428   6.221 -0.2341  0.1520 -0.0520
  837loPI    C212030   4.830  16.090   6.039 -0.0309  0.1445  0.0815
  837loPI    C312031   4.709  16.403   5.822 -0.0131  0.0586 -0.0539
  837loPI   PO412032   4.949  16.428   6.443 -0.0962  0.2015 -0.0256
  837loPI   GL112033   5.164  16.204   6.773  0.0222  0.2032 -0.2856
  837loPI   GL212034   5.181  16.508   6.867 -0.2439  0.0381  0.0097
  837loPI   C1A12035   5.046  16.019   7.218  0.0180  0.1855 -0.0675
  837loPI   C2A12036   5.107  16.035   7.693 -0.3328  0.1670  0.0566
  837loPI   C3A12037   5.068  15.920   8.098 -0.0634  0.1774 -0.1558
  837loPI   C4A12038   5.081  15.950   8.510  0.0109 -0.1512  0.1281
  837loPI   C5A12039   5.262  15.971   8.899 -0.0586  0.0578 -0.0616
  837loPI   C6A12040   5.633  15.808   8.996 -0.1221  0.1106 -0.0825
  837loPI   C1B12041   5.303  16.463   7.300  0.1048 -0.1522 -0.1207
  837loPI   C2B12042   5.292  16.530   7.738 -0.2007 -0.3207 -0.0625
  837loPI   C3B12043   5.279  16.650   8.180 -0.2718 -0.3811 -0.2772
  837loPI   C4B12044   5.231  16.413   8.593 -0.0216  0.2980  0.3004
  838loPI    C112045  12.298  16.588   5.966 -0.0178  0.0917 -0.1110
  838loPI    C212046  12.067  16.287   5.841  0.1333 -0.1128  0.0924
  838loPI    C312047  12.279  16.501   5.577 -0.1757 -0.0136 -0.0803
  838loPI   PO412048  12.191  16.601   6.193  0.1281 -0.1477 -0.0430
  838loPI   GL112049  12.160  16.694   6.613 -0.1585  0.0849  0.1204
  838loPI   GL212050  11.903  16.888   6.578  0.2607  0.3026  0.0060
  838loPI   C1A12051  12.047  16.671   7.029 -0.0907  0.0917  0.4380
  838loPI   C2A12052  11.921  16.648   7.452  0.2431  0.2035 -0.0713
  838loPI   C3A12053  11.842  16.657   7.940  0.2159  0.1955 -0.0906
  838loPI   C4A12054  11.824  16.575   8.432 -0.1003 -0.0127  0.2883
  838loPI   C5A12055  11.661  16.416   8.826  0.3647  0.0009 -0.2438
  838loPI   C6A12056  11.374  16.356   9.222  0.0609  0.0388  0.3570
  838loPI   C1B12057  11.718  17.042   6.980 -0.0471  0.1371  0.1247
  838loPI   C2B12058  11.554  17.042   7.383 -0.0349  0.2234  0.2905
  838loPI   C3B12059  11.518  17.076   7.854 -0.0876 -0.2433 -0.0854
  838loPI   C4B12060  11.605  17.044   8.268 -0.0873  0.2287 -0.1620
  839loPI    C112061  16.254   4.025   6.492 -0.1130  0.0408  0.1040
  839loPI    C212062  16.037   4.176   6.192 -0.0237  0.2573  0.1464
  839loPI    C312063  16.248   3.840   6.138 -0.1965  0.1646  0.0403
  839loPI   PO412064  16.076   4.064   6.650 -0.1591  0.0855 -0.1840
  839loPI   GL112065  15.936   4.270   6.930 -0.2797 -0.0593  0.0389
  839loPI   GL212066  16.178   4.170   7.173  0.2388  0.1143 -0.1578
  839loPI   C1A12067  15.710   4.187   7.331  0.2600 -0.0526 -0.3268
  839loPI   C2A12068  15.613   4.178   7.706  0.0779 -0.2694  0.2742
  839loPI   C3A12069  15.402   3.826   7.813  0.0809 -0.1368 -0.1051
  839loPI   C4A12070  15.330   3.700   8.292 -0.0504  0.0602 -0.3248
  839loPI   C5A12071  15.363   3.591   8.754 -0.2286 -0.0740  0.2582
  839loPI   C6A12072  15.562   3.601   9.210  0.0096 -0.1985 -0.0788
  839loPI   C1B12073  16.121   4.196   7.650 -0.0378  0.2077  0.1927
  839loPI   C2B12074  16.184   4.248   8.012 -0.1768  0.0939 -0.0537
  839loPI   C3B12075  15.868   4.145   8.241  0.0347 -0.0235 -0.1192
  839loPI   C4B12076  15.725   4.239   8.630 -0.0057  0.0996 -0.1215
  840loPI    C112077   9.457   8.766   5.823  0.3872  0.1334 -0.0383
  840loPI    C212078   9.504   8.401   5.665 -0.2080 -0.0216  0.1170
  840loPI    C312079   9.551   8.725   5.436  0.1242 -0.1978 -0.0722
  840loPI   PO412080   9.594   8.732   6.141 -0.3388  0.0212 -0.2316
  840loPI   GL112081   9.867   8.525   6.463  0.0881 -0.0382 -0.1372
  840loPI   GL212082   9.698   8.317   6.442  0.1839  0.1102 -0.0442
  840loPI   C1A12083   9.745   8.524   6.903  0.0611 -0.1522 -0.1407
  840loPI   C2A12084   9.742   8.587   7.299 -0.0926  0.0163  0.0045
  840loPI   C3A12085   9.640   8.486   7.748 -0.1361 -0.0686  0.3691
  840loPI   C4A12086   9.678   8.463   8.174  0.1177  0.0793  0.2760
  840loPI   C5A12087   9.740   8.591   8.632  0.2705  0.2502  0.2251
  840loPI   C6A12088  10.105   8.559   8.832 -0.1687  0.3731 -0.2329
  840loPI   C1B12089   9.508   8.095   6.807 -0.1898 -0.0778 -0.1390
  840loPI   C2B12090   9.567   8.110   7.261 -0.0164 -0.0457  0.0975
  840loPI   C3B12091   9.396   8.018   7.644  0.1275 -0.0223  0.0427
  840loPI   C4B12092   9.422   8.027   8.096  0.0279  0.0847  0.0979
  841loPI    C112093   8.738   2.655   6.051  0.1452 -0.0996 -0.0540
  841loPI    C212094   9.095   2.801   5.945  0.0929  0.0238 -0.0622
  841loPI    C312095   8.932   2.500   5.737  0.2402 -0.1058  0.0073
  841loPI   PO412096   8.772   2.614   6.296  0.1621  0.0100 -0.0651
  841loPI   GL112097   8.443   2.541   6.738 -0.0935  0.2991 -0.0726
  841loPI   GL212098   8.308   2.269   6.707  0.2953 -0.1491  0.2109
  841loPI   C1A12099   8.484   2.609   7.274 -0.0694  0.1486  0.2335
  841loPI   C2A12100   8.573   2.732   7.713  0.0769 -0.0272 -0.0383
  841loPI   C3A12101   8.621   2.688   8.140 -0.0122 -0.0247  0.2072
  841loPI   C4A12102   8.797   2.714   8.507  0.1226 -0.0078 -0.2705
  841loPI   C5A12103   8.789   3.004   8.756 -0.1287 -0.0272  0.1988
  841loPI   C6A12104   8.985   3.311   8.936 -0.0370  0.0348 -0.2225
  841loPI   C1B12105   8.256   2.171   7.120  0.3666 -0.4060 -0.3773
  841loPI   C2B12106   8.262   2.207   7.543  0.0936  0.1801  0.0602
  841loPI   C3B12107   8.332   2.233   7.959  0.0292  0.1847  0.0127
  841loPI   C4B12108   8.356   2.312   8.408 -0.1409 -0.0669 -0.1684
  842loPI    C112109   0.729   8.020   5.953 -0.1489  0.4584  0.0844
  842loPI    C212110   1.043   7.986   5.708 -0.1415  0.4232  0.0986
  842loPI    C312111   0.691   8.112   5.566 -0.2257  0.0856 -0.0004
  842loPI   PO412112   0.859   7.931   6.189  0.0283 -0.0705 -0.0613
  842loPI   GL112113   0.849   8.146   6.660 -0.1388 -0.2510 -0.1008
  842loPI   GL212114   0.827   8.482   6.749  0.2610 -0.0567  0.2257
  842loPI   C1A12115   0.820   7.990   7.081 -0.1307  0.0631 -0.1710
  842loPI   C2A12116   0.987   7.925   7.531 -0.0582  0.2008 -0.3706
  842loPI   C3A12117   1.118   7.992   7.945  0.4860  0.0367  0.2827
  842loPI   C4A12118   1.038   7.843   8.433  0.0934  0.1607 -0.3046
  842loPI   C5A12119   0.779   7.962   8.771  0.1184  0.2468  0.3039
  842loPI   C6A12120   0.522   7.874   9.080 -0.1559  0.2169  0.2619
  842loPI   C1B12121   0.757   8.800   7.133  0.2024 -0.1756  0.0713
  842loPI   C2B12122   0.802   8.816   7.638 -0.1641  0.0681 -0.0265
  842loPI   C3B12123   1.080   8.801   8.009  0.2896 -0.0248  0.1485
  842loPI   C4B12124   1.208   8.856   8.470  0.0165 -0.4043 -0.2498
  843loPI    C112125   4.815  15.237   6.016 -0.1712  0.0210  0.1232
  843loPI    C212126   4.926  15.607   5.913 -0.2860  0.0724  0.1816
  843loPI    C312127   4.761  15.365   5.641  0.0958 -0.0550  0.0567
  843loPI   PO412128   4.621  15.306   6.311  0.0975 -0.0056  0.1010
  843loPI   GL112129   4.691  15.381   6.787 -0.0799 -0.0184  0.1349
  843loPI   GL212130   4.383  15.588   6.725  0.4428 -0.0647 -0.0837
  843loPI   C1A12131   4.890  15.478   7.122 -0.1886  0.4280  0.1363
  843loPI   C2A12132   4.888  15.526   7.601 -0.1157  0.0825  0.0171
  843loPI   C3A12133   4.862  15.415   7.978 -0.1715 -0.0852 -0.1682
  843loPI   C4A12134   4.787  15.241   8.429 -0.0827 -0.0081  0.0398
  843loPI   C5A12135   4.670  15.388   8.888 -0.0266 -0.0740  0.4530
  843loPI   C6A12136   4.301  15.470   8.986  0.1464  0.1456 -0.2096
  843loPI   C1B12137   4.275  15.493   7.094 -0.1220  0.1178  0.2051
  843loPI   C2B12138   4.286  15.477   7.511 -0.1610  0.2545 -0.0658
  843loPI   C3B12139   4.324  15.427   7.913 -0.0463  0.0684 -0.3570
  843loPI   C4B12140   4.331  15.336   8.296  0.0771 -0.1865 -0.0888
  844loPI    C112141   5.616  15.956   6.359 -0.1110  0.1365 -0.0033
  844loPI    C212142   5.230  16.059   6.338 -0.1601 -0.0901 -0.2693
  844loPI    C312143   5.353  15.712   6.181  0.1262 -0.0940 -0.0440
  844loPI   PO412144   5.660  15.947   6.580  0.3637  0.2550 -0.0081
  844loPI   GL112145   5.592  15.806   7.045  0.2539  0.2259  0.0861
  844loPI   GL212146   5.413  15.512   7.073  0.2126  0.1063 -0.1690
  844loPI   C1A12147   5.526  16.032   7.409  0.2083 -0.0465 -0.2643
  844loPI   C2A12148   5.600  16.087   7.859 -0.2045 -0.4140 -0.3963
  844loPI   C3A12149   5.529  16.209   8.249 -0.2253  0.1397 -0.0034
  844loPI   C4A12150   5.728  16.259   8.744 -0.0280  0.1241 -0.0207
  844loPI   C5A12151   5.935  16.645   8.983  0.2471 -0.2013 -0.1324
  844loPI   C6A12152   6.240  17.002   8.970 -0.1334 -0.0147 -0.1002
  844loPI   C1B12153   5.390  15.477   7.498 -0.2474  0.2031 -0.2402
  844loPI   C2B12154   5.334  15.583   7.897 -0.1792 -0.0188  0.1750
  844loPI   C3B12155   5.304  15.373   8.200 -0.1065 -0.0873 -0.0327
  844loPI   C4B12156   5.248  15.454   8.767  0.0632  0.2013  0.1028
  845loPI    C112157  10.347   2.182   6.043 -0.0691 -0.0680  0.0194
  845loPI    C212158  10.741   2.115   6.022 -0.0141  0.2358  0.0297
  845loPI    C312159  10.520   2.111   5.689  0.0132  0.1580  0.0122
  845loPI   PO412160  10.266   2.362   6.179  0.1666  0.1180  0.0556
  845loPI   GL112161  10.293   2.397   6.604 -0.0411  0.0941 -0.1531
  845loPI   GL212162  10.519   2.520   6.888  0.2868 -0.0321 -0.0223
  845loPI   C1A12163  10.074   2.228   6.920  0.1903 -0.1087  0.0754
  845loPI   C2A12164   9.928   2.192   7.159 -0.2143 -0.1381  0.1757
  845loPI   C3A12165   9.906   2.194   7.538 -0.1899 -0.2234 -0.1150
  845loPI   C4A12166   9.960   2.261   7.960  0.0195 -0.1661 -0.0783
  845loPI   C5A12167   9.932   2.200   8.462 -0.0956  0.0073  0.0932
  845loPI   C6A12168   9.580   2.247   8.724 -0.1666 -0.2021 -0.0599
  845loPI   C1B12169  10.744   2.749   7.201 -0.0214 -0.2265 -0.0216
  845loPI   C2B12170  10.710   2.679   7.607 -0.1076 -0.0565  0.1064
  845loPI   C3B12171  10.780   2.673   7.990 -0.2006  0.1346 -0.1845
  845loPI   C4B12172  10.660   2.703   8.389  0.0484 -0.0774 -0.2291
  846loPI    C112173  15.481   0.732   6.525 -0.2431  0.1345  0.2044
  846loPI    C212174  15.419   0.954   6.198 -0.2030  0.1505  0.2076
  846loPI    C312175  15.379   0.557   6.180  0.1153  0.1201  0.1011
  846loPI   PO412176  15.349   0.896   6.788 -0.1901 -0.2706  0.2105
  846loPI   GL112177  15.354   0.834   7.141  0.1271  0.1027 -0.0134
  846loPI   GL212178  15.127   1.077   7.297  0.1734 -0.2585  0.1503
  846loPI   C1A12179  15.545   0.602   7.448  0.0019  0.2299  0.0293
  846loPI   C2A12180  15.661   0.491   7.881  0.2170 -0.2918 -0.3121
  846loPI   C3A12181  15.682   0.545   8.320  0.0939 -0.0157 -0.0498
  846loPI   C4A12182  15.677   0.361   8.707  0.2823  0.0159 -0.1306
  846loPI   C5A12183  15.367   0.192   9.044 -0.2429  0.0803  0.0860
  846loPI   C6A12184  15.270  -0.354   9.084  0.1454 -0.2150  0.1229
  846loPI   C1B12185  15.221   1.063   7.671  0.2999  0.0420  0.2788
  846loPI   C2B12186  15.186   1.012   7.998  0.0092 -0.1908  0.1184
  846loPI   C3B12187  15.274   1.001   8.312 -0.0674 -0.1402  0.0439
  846loPI   C4B12188  15.316   0.903   8.655 -0.1729  0.2743 -0.0323
  847loPI    C112189   8.181  16.762   6.074  0.1842  0.4627  0.1701
  847loPI    C212190   8.028  16.748   5.705  0.0168 -0.2006  0.2503
  847loPI    C312191   8.405  16.869   5.761  0.0053  0.0232 -0.1189
  847loPI   PO412192   8.101  16.962   6.216  0.2269  0.0294 -0.0238
  847loPI   GL112193   7.868  16.907   6.545  0.1940 -0.3649 -0.0048
  847loPI   GL212194   7.989  17.180   6.718 -0.2314 -0.1507 -0.2369
  847loPI   C1A12195   7.838  16.670   6.839  0.0526  0.0046  0.0662
  847loPI   C2A12196   7.913  16.688   7.237 -0.3352  0.1758 -0.0663
  847loPI   C3A12197   7.901  16.635   7.574 -0.0087  0.1548  0.2131
  847loPI   C4A12198   7.869  16.704   7.944  0.0117 -0.1706 -0.0819
  847loPI   C5A12199   7.938  16.814   8.378  0.1589  0.3381  0.0041
  847loPI   C6A12200   7.865  16.723   8.895  0.3169  0.1913  0.0951
  847loPI   C1B12201   8.028  17.160   7.042 -0.0631 -0.1464 -0.0595
  847loPI   C2B12202   8.052  17.130   7.533 -0.3171 -0.0858 -0.0662
  847loPI   C3B12203   8.069  17.194   7.967  0.2334 -0.1008 -0.0350
  847loPI   C4B12204   8.148  17.226   8.325  0.0077  0.0640  0.3776
  848loPI    C112205   2.745   4.260   6.590  0.0458  0.0296  0.2034
  848loPI    C212206   2.946   4.155   6.261 -0.1574 -0.1943  0.1484
  848loPI    C312207   2.868   4.540   6.333 -0.0680 -0.1401 -0.0395
  848loPI   PO412208   2.831   4.104   6.775  0.0302  0.2263  0.1588
  848loPI   GL112209   2.992   4.017   7.110 -0.1921 -0.1349 -0.1101
  848loPI   GL212210   3.315   4.245   7.241  0.0951  0.2691 -0.0063
  848loPI   C1A12211   2.971   3.889   7.467 -0.2117  0.1163 -0.2231
  848loPI   C2A12212   2.967   3.906   7.934 -0.2067 -0.0731  0.0292
  848loPI   C3A12213   3.031   3.908   8.402  0.0868  0.0292  0.2481
  848loPI   C4A12214   3.041   3.819   8.862 -0.5486  0.4167 -0.0906
  848loPI   C5A12215   3.005   3.757   9.237 -0.0287  0.3251  0.1754
  848loPI   C6A12216   2.749   3.644   9.578 -0.2426 -0.3798 -0.1978
  848loPI   C1B12217   3.234   4.239   7.723 -0.0605  0.1645  0.1159
  848loPI   C2B12218   3.242   4.373   8.098  0.2837 -0.1375  0.1018
  848loPI   C3B12219   3.325   4.298   8.521  0.2918  0.1897  0.0884
  848loPI   C4B12220   3.443   4.474   8.933 -0.1838  0.0465 -0.0816
  849loPI    C112221   1.991   0.427   6.200  0.1202  0.0119  0.1233
  849loPI    C212222   1.796   0.163   5.973 -0.1224  0.2263  0.0781
  849loPI    C312223   2.190   0.211   5.929 -0.1415  0.1554 -0.1897
  849loPI   PO412224   1.813   0.334   6.462  0.0275  0.2494  0.2166
  849loPI   GL112225   1.773   0.107   6.851 -0.1555  0.0216 -0.0749
  849loPI   GL212226   2.053  -0.062   6.874 -0.0907  0.1864  0.0877
  849loPI   C1A12227   1.699   0.106   7.323  0.2057  0.0506  0.0141
  849loPI   C2A12228   1.772   0.044   7.774 -0.4295  0.2877 -0.0873
  849loPI   C3A12229   1.655   0.131   8.227  0.0863  0.1251  0.0477
  849loPI   C4A12230   1.557   0.052   8.663  0.2476 -0.0298 -0.3718
  849loPI   C5A12231   1.630   0.261   8.914 -0.0806 -0.0326 -0.1943
  849loPI   C6A12232   1.889   0.371   9.236 -0.2208  0.2424  0.0840
  849loPI   C1B12233   2.039  -0.327   7.334 -0.3464  0.0087  0.3332
  849loPI   C2B12234   2.035  -0.384   7.784 -0.1889 -0.0212  0.1533
  849loPI   C3B12235   2.054  -0.331   8.153 -0.1108  0.1027 -0.2729
  849loPI   C4B12236   2.009  -0.267   8.534  0.0697 -0.0046 -0.2724
  850loPI    C112237  14.042  14.082   6.285 -0.1940 -0.1396 -0.0975
  850loPI    C212238  13.918  13.988   5.917 -0.1280 -0.0939 -0.1317
  850loPI    C312239  14.286  14.134   5.973 -0.0851 -0.2390 -0.0298
  850loPI   PO412240  13.942  13.756   6.428  0.0311 -0.1427  0.3470
  850loPI   GL112241  14.178  13.508   6.756  0.0203  0.1761 -0.0107
  850loPI   GL212242  13.907  13.343   6.776  0.0959  0.0117  0.2070
  850loPI   C1A12243  14.083  13.843   7.061 -0.0854  0.0946 -0.1072
  850loPI   C2A12244  14.088  13.794   7.537  0.1285 -0.1623 -0.0354
  850loPI   C3A12245  13.983  13.822   7.985  0.2707 -0.0258 -0.0011
  850loPI   C4A12246  13.984  13.775   8.412 -0.1976  0.1500  0.0078
  850loPI   C5A12247  13.678  13.856   8.753 -0.0488 -0.0590 -0.0017
  850loPI   C6A12248  13.604  14.054   9.174 -0.2513  0.0193 -0.0998
  850loPI   C1B12249  13.997  13.367   7.248 -0.2030 -0.1328  0.1293
  850loPI   C2B12250  13.914  13.351   7.729 -0.1232 -0.0823 -0.0108
  850loPI   C3B12251  13.755  13.353   8.172 -0.1411 -0.0761  0.1267
  850loPI   C4B12252  13.641  13.382   8.600  0.2480  0.1110 -0.0977
  851loPI    C112253   9.455  11.239   5.878 -0.1407  0.0040 -0.0497
  851loPI    C212254   9.674  11.439   5.609 -0.0168 -0.0703 -0.0046
  851loPI    C312255   9.482  11.104   5.502 -0.0046 -0.0750 -0.0118
  851loPI   PO412256   9.503  11.218   6.045  0.0694 -0.0368 -0.3080
  851loPI   GL112257   9.950  11.349   6.243 -0.1838  0.0306  0.1886
  851loPI   GL212258   9.890  11.062   6.335 -0.3437  0.1705 -0.1087
  851loPI   C1A12259  10.074  11.480   6.628 -0.0106 -0.0019 -0.0627
  851loPI   C2A12260  10.150  11.532   7.073 -0.1561 -0.0104  0.0853
  851loPI   C3A12261  10.124  11.561   7.510  0.0776 -0.1045  0.1496
  851loPI   C4A12262  10.063  11.604   7.853 -0.0640  0.0021 -0.1303
  851loPI   C5A12263   9.924  11.565   8.303  0.2413 -0.1093  0.2154
  851loPI   C6A12264  10.117  11.187   8.402 -0.2672  0.1497  0.0930
  851loPI   C1B12265   9.915  10.952   6.748 -0.0785  0.1802 -0.0644
  851loPI   C2B12266   9.881  10.873   7.178  0.0500  0.1265  0.2308
  851loPI   C3B12267   9.933  10.983   7.585  0.0681  0.0222 -0.4279
  851loPI   C4B12268   9.795  11.094   7.996 -0.1434 -0.2564  0.1369
  852loPI    C112269   7.505   9.484   5.950 -0.1641  0.1907  0.0799
  852loPI    C212270   7.334   9.255   6.230 -0.0786  0.2406  0.1738
  852loPI    C312271   7.218   9.225   5.848  0.1123 -0.1463  0.1410
  852loPI   PO412272   7.728   9.407   5.958 -0.0948  0.0338  0.2676
  852loPI   GL112273   8.153   9.456   6.199  0.0530  0.0011  0.0126
  852loPI   GL212274   8.395   9.686   6.060  0.0544 -0.2361  0.0071
  852loPI   C1A12275   8.267   9.471   6.619  0.0173  0.4267  0.0763
  852loPI   C2A12276   8.225   9.465   7.062  0.0476  0.3489  0.0953
  852loPI   C3A12277   8.181   9.382   7.529  0.1562 -0.0845  0.1173
  852loPI   C4A12278   8.335   9.539   7.850 -0.2598 -0.1464 -0.0428
  852loPI   C5A12279   8.226   9.445   8.242  0.4096  0.1505 -0.0150
  852loPI   C6A12280   8.234   9.198   8.653  0.1094  0.1794  0.1488
  852loPI   C1B12281   8.354   9.929   6.522  0.1731  0.0143  0.2046
  852loPI   C2B12282   8.369   9.918   7.017 -0.1406 -0.2737  0.1330
  852loPI   C3B12283   8.416   9.774   7.378  0.2281  0.1297 -0.2228
  852loPI   C4B12284   8.419  10.004   7.757 -0.0503 -0.3210  0.2736
  853loPI    C112285   9.349  14.345   5.977  0.1930  0.1098  0.0939
  853loPI    C212286   9.433  14.403   5.590  0.1635  0.0955  0.0853
  853loPI    C312287   9.222  14.676   5.792 -0.0351 -0.0134  0.0270
  853loPI   PO412288   9.650  14.202   6.016 -0.3449  0.0705  0.1322
  853loPI   GL112289   9.893  14.223   6.433 -0.1498  0.0095  0.0305
  853loPI   GL212290  10.211  14.192   6.512 -0.1982 -0.6001  0.3218
  853loPI   C1A12291   9.818  14.075   6.859 -0.0064 -0.1489  0.2717
  853loPI   C2A12292   9.790  14.136   7.368  0.1083  0.0629 -0.2192
  853loPI   C3A12293   9.888  14.255   7.801 -0.2990  0.1050  0.2423
  853loPI   C4A12294   9.861  14.130   8.218 -0.0718 -0.0650  0.0017
  853loPI   C5A12295  10.198  14.321   8.556 -0.0108 -0.2310  0.0300
  853loPI   C6A12296  10.413  14.674   8.684  0.0813 -0.1355  0.3238
  853loPI   C1B12297  10.332  14.217   7.014  0.2781 -0.2652 -0.0135
  853loPI   C2B12298  10.293  14.250   7.447 -0.0066 -0.3052  0.1386
  853loPI   C3B12299  10.388  14.230   7.798  0.1772  0.1562  0.0001
  853loPI   C4B12300  10.452  14.094   8.257 -0.2035 -0.2605 -0.2712
  854loPI    C112301  14.818   9.229   6.054  0.1196  0.2154 -0.2562
  854loPI    C212302  14.463   9.045   6.060  0.2454 -0.0257 -0.0482
  854loPI    C312303  14.664   9.079   5.716 -0.0101  0.1785 -0.1814
  854loPI   PO412304  14.851   9.146   6.348  0.0122  0.1971 -0.1260
  854loPI   GL112305  15.034   8.819   6.553  0.1118 -0.3469 -0.1710
  854loPI   GL212306  14.853   8.525   6.509  0.0641  0.0581 -0.0009
  854loPI   C1A12307  15.027   8.855   7.023 -0.1221  0.1088  0.2653
  854loPI   C2A12308  15.003   9.016   7.502 -0.0253 -0.0976  0.0442
  854loPI   C3A12309  15.011   8.944   7.944 -0.0559 -0.2847 -0.0615
  854loPI   C4A12310  15.137   8.705   8.371 -0.1009  0.1249  0.0698
  854loPI   C5A12311  15.358   8.854   8.733 -0.0761 -0.0994  0.1057
  854loPI   C6A12312  15.695   8.967   8.890  0.0036  0.1321 -0.1558
  854loPI   C1B12313  14.841   8.384   6.981 -0.0858  0.0196 -0.3249
  854loPI   C2B12314  14.810   8.450   7.364  0.2384 -0.1848  0.4444
  854loPI   C3B12315  14.783   8.476   7.783  0.4427 -0.1674 -0.2398
  854loPI   C4B12316  14.770   8.303   8.213 -0.1139  0.3977 -0.0203
  855loPI    C112317  10.783   2.949   6.147 -0.0007 -0.0377 -0.0482
  855loPI    C212318  10.986   2.656   5.966 -0.0705 -0.0132 -0.1672
  855loPI    C312319  10.586   2.655   5.960 -0.0726  0.0119 -0.0512
  855loPI   PO412320  10.998   3.096   6.272 -0.1817 -0.3775 -0.2351
  855loPI   GL112321  11.059   3.329   6.627 -0.0412 -0.1861  0.0577
  855loPI   GL212322  10.982   3.741   6.672 -0.0338  0.4755 -0.2694
  855loPI   C1A12323  11.035   3.264   7.106  0.0423 -0.0850  0.0114
  855loPI   C2A12324  11.046   3.242   7.574  0.1416  0.1489 -0.0443
  855loPI   C3A12325  11.012   3.129   7.981 -0.1250  0.0795 -0.1032
  855loPI   C4A12326  10.984   3.170   8.378 -0.5173 -0.0647 -0.0544
  855loPI   C5A12327  11.051   3.224   8.778 -0.0316  0.0134 -0.0556
  855loPI   C6A12328  11.050   3.054   9.262 -0.0757 -0.0423 -0.3362
  855loPI   C1B12329  11.239   3.768   7.066  0.1311 -0.0758 -0.0429
  855loPI   C2B12330  11.255   3.653   7.519  0.0156  0.1339  0.1464
  855loPI   C3B12331  11.229   3.617   8.005  0.2212  0.2077 -0.0938
  855loPI   C4B12332  11.248   3.600   8.433 -0.1326 -0.1646 -0.0640
  856loPI    C112333   3.247   8.863   6.177 -0.0721  0.0537  0.1114
  856loPI    C212334   3.388   8.905   5.805  0.0216  0.0503  0.1460
  856loPI    C312335   3.119   9.165   5.948 -0.0843 -0.0022  0.0444
  856loPI   PO412336   3.414   8.814   6.332  0.2153 -0.2359  0.1694
  856loPI   GL112337   3.554   8.958   6.643  0.1546  0.0494 -0.0812
  856loPI   GL212338   3.402   9.204   6.640 -0.1444  0.0042  0.1072
  856loPI   C1A12339   3.562   8.964   7.109  0.0818  0.1862 -0.0164
  856loPI   C2A12340   3.570   8.945   7.548  0.3765  0.0644  0.1538
  856loPI   C3A12341   3.665   8.951   8.082  0.0972  0.1131 -0.1649
  856loPI   C4A12342   3.507   8.989   8.439  0.0064  0.0617  0.1586
  856loPI   C5A12343   3.414   9.160   8.811  0.0047  0.1714 -0.0230
  856loPI   C6A12344   3.136   9.406   8.964  0.2210  0.0324 -0.0191
  856loPI   C1B12345   3.238   9.342   7.064  0.1245 -0.0029  0.1402
  856loPI   C2B12346   3.341   9.369   7.460 -0.1667 -0.0547  0.0368
  856loPI   C3B12347   3.334   9.371   7.834 -0.0592 -0.0843  0.1898
  856loPI   C4B12348   3.470   9.426   8.289  0.1647 -0.2771  0.0436
  857loPI    C112349   7.099  11.439   5.888 -0.1473  0.0663 -0.1029
  857loPI    C212350   7.343  11.374   5.578 -0.1833 -0.0219 -0.1130
  857loPI    C312351   7.341  11.731   5.760 -0.1977  0.0458 -0.2454
  857loPI   PO412352   7.194  11.317   6.085  0.0569  0.1037  0.0701
  857loPI   GL112353   7.164  11.087   6.508  0.1335 -0.0911  0.0559
  857loPI   GL212354   7.428  11.227   6.508  0.1133  0.2658 -0.0336
  857loPI   C1A12355   6.978  11.000   6.898 -0.1120 -0.0781  0.1597
  857loPI   C2A12356   7.041  11.061   7.328 -0.4605  0.0404 -0.0228
  857loPI   C3A12357   7.087  11.097   7.794 -0.0911  0.3045 -0.0146
  857loPI   C4A12358   7.093  11.279   8.228  0.1082  0.2017 -0.4278
  857loPI   C5A12359   6.915  11.522   8.514  0.2631  0.0740 -0.1522
  857loPI   C6A12360   6.514  11.657   8.740 -0.1853 -0.0822 -0.1352
  857loPI   C1B12361   7.538  11.158   6.906  0.0361 -0.1293  0.2027
  857loPI   C2B12362   7.569  11.148   7.338  0.1720 -0.0113  0.1805
  857loPI   C3B12363   7.517  11.235   7.692 -0.4282  0.0208 -0.1187
  857loPI   C4B12364   7.614  11.235   8.101 -0.2382 -0.2029  0.2478
  858loPI    C112365  17.064   7.368   6.262  0.0845 -0.0765  0.0530
  858loPI    C212366  17.345   7.456   5.992  0.0056  0.1107  0.0305
  858loPI    C312367  16.959   7.518   5.907 -0.0269  0.0715  0.1470
  858loPI   PO412368  17.127   7.486   6.519  0.3426  0.3047  0.1094
  858loPI   GL112369  17.032   7.357   6.915 -0.0956  0.1559 -0.1626
  858loPI   GL212370  16.926   7.774   6.993  0.0564  0.0657 -0.0545
  858loPI   C1A12371  16.968   7.371   7.405  0.1625 -0.2601 -0.1194
  858loPI   C2A12372  16.910   7.389   7.901 -0.1665 -0.2117  0.0488
  858loPI   C3A12373  16.909   7.509   8.426  0.1293  0.0548  0.2832
  858loPI   C4A12374  16.748   7.403   8.818  0.2220 -0.0048  0.1017
  858loPI   C5A12375  16.609   7.082   9.006 -0.0042  0.2257 -0.0373
  858loPI   C6A12376  16.491   6.689   9.010 -0.0204  0.1167  0.3633
  858loPI   C1B12377  16.880   7.884   7.395 -0.1329  0.1007  0.2370
  858loPI   C2B12378  17.012   7.862   7.762 -0.0142 -0.0889 -0.0249
  858loPI   C3B12379  17.262   7.793   8.088  0.1690 -0.0615  0.0036
  858loPI   C4B12380  17.409   7.908   8.476  0.0640  0.2079 -0.1758
  859loPI    C112381   9.076  11.541   6.025  0.0047 -0.0265 -0.0040
  859loPI    C212382   8.716  11.648   5.888  0.0354  0.1888  0.0804
  859loPI    C312383   8.911  11.343   5.719 -0.1777  0.0830  0.0220
  859loPI   PO412384   9.051  11.425   6.253 -0.0516  0.0891 -0.2925
  859loPI   GL112385   8.954  11.367   6.640  0.0701 -0.3194 -0.1638
  859loPI   GL212386   8.805  11.021   6.619  0.0239 -0.2725  0.1051
  859loPI   C1A12387   9.023  11.382   7.151  0.1246  0.0936 -0.0539
  859loPI   C2A12388   9.082  11.358   7.611 -0.2197  0.1259  0.3048
  859loPI   C3A12389   8.939  11.452   8.024  0.1719  0.0769  0.0821
  859loPI   C4A12390   9.072  11.564   8.442 -0.1793  0.1062 -0.0485
  859loPI   C5A12391   9.428  11.748   8.513 -0.1360  0.0313 -0.1175
  859loPI   C6A12392   9.722  12.016   8.650  0.1687 -0.1586  0.2274
  859loPI   C1B12393   8.785  10.827   6.987 -0.0579 -0.5133  0.2102
  859loPI   C2B12394   8.823  10.844   7.462  0.2083  0.1089  0.1102
  859loPI   C3B12395   8.843  11.008   7.886 -0.1826  0.1035  0.1501
  859loPI   C4B12396   8.765  10.867   8.380  0.2563  0.2478 -0.0736
  860loPI    C112397   0.962   6.720   6.363 -0.0156 -0.0914 -0.0156
  860loPI    C212398   0.938   6.885   5.999 -0.0166 -0.0499  0.0032
  860loPI    C312399   0.816   6.508   6.056 -0.0616 -0.0404 -0.0291
  860loPI   PO412400   0.892   6.812   6.494 -0.1045  0.0300  0.0735
  860loPI   GL112401   0.647   6.679   6.798 -0.1743  0.0971  0.0497
  860loPI   GL212402   0.853   6.552   6.984 -0.3631 -0.0600 -0.0416
  860loPI   C1A12403   0.555   6.873   7.250 -0.1105 -0.0877 -0.1614
  860loPI   C2A12404   0.493   6.845   7.625  0.0033  0.0387 -0.1221
  860loPI   C3A12405   0.526   6.894   8.061 -0.1807  0.1816 -0.1351
  860loPI   C4A12406   0.678   6.957   8.428 -0.3676 -0.1521 -0.3250
  860loPI   C5A12407   0.859   6.930   8.893  0.0128  0.2810  0.1673
  860loPI   C6A12408   1.207   7.094   9.119  0.0061 -0.0273  0.1852
  860loPI   C1B12409   1.123   6.462   7.360 -0.0856 -0.1106 -0.3268
  860loPI   C2B12410   1.323   6.526   7.761 -0.0880 -0.0313  0.1540
  860loPI   C3B12411   1.417   6.539   8.251  0.1423  0.0743  0.2712
  860loPI   C4B12412   1.357   6.538   8.674  0.0455 -0.0564 -0.0836
  861loPI    C112413   4.925   7.734   5.826  0.0060  0.0475  0.0033
  861loPI    C212414   5.100   7.814   5.475 -0.0766 -0.2156 -0.1003
  861loPI    C312415   5.070   7.436   5.602 -0.0438 -0.1219  0.1936
  861loPI   PO412416   4.997   7.983   5.950  0.0947  0.1814  0.2731
  861loPI   GL112417   4.893   7.802   6.446  0.0428  0.3008  0.0979
  861loPI   GL212418   4.760   8.028   6.556 -0.0899 -0.0523  0.0574
  861loPI   C1A12419   5.174   7.870   6.752 -0.2019 -0.1461  0.1629
  861loPI   C2A12420   5.262   7.935   7.154 -0.1092 -0.0291 -0.2699
  861loPI   C3A12421   5.250   7.994   7.603  0.2284  0.0627  0.1884
  861loPI   C4A12422   5.223   8.005   8.089  0.0005  0.0336 -0.2298
  861loPI   C5A12423   5.108   7.842   8.500  0.0191 -0.4791 -0.0458
  861loPI   C6A12424   5.113   7.982   8.884  0.0352  0.1577 -0.2010
  861loPI   C1B12425   4.783   8.058   6.977  0.0228  0.0812  0.2371
  861loPI   C2B12426   4.723   8.098   7.456 -0.0952 -0.2179 -0.3204
  861loPI   C3B12427   4.740   7.979   7.901 -0.1775 -0.4041 -0.4921
  861loPI   C4B12428   4.672   7.979   8.303 -0.0042  0.0640 -0.0438
  862loPI    C112429   2.646   5.419   6.300 -0.0068 -0.0474 -0.3012
  862loPI    C212430   2.592   5.023   6.315 -0.0875 -0.0290 -0.0685
  862loPI    C312431   2.836   5.181   6.040  0.1090 -0.2579 -0.0291
  862loPI   PO412432   2.650   5.517   6.498 -0.0672  0.3090  0.0227
  862loPI   GL112433   2.759   5.619   6.985 -0.4800  0.1068  0.2268
  862loPI   GL212434   2.859   5.877   7.057  0.3424  0.2775  0.0626
  862loPI   C1A12435   2.599   5.467   7.361  0.2016 -0.1294 -0.1225
  862loPI   C2A12436   2.601   5.400   7.832  0.2677 -0.0724 -0.2485
  862loPI   C3A12437   2.764   5.289   8.270 -0.0593 -0.1809  0.3093
  862loPI   C4A12438   2.729   5.184   8.687  0.0688 -0.1082  0.0660
  862loPI   C5A12439   3.003   5.240   8.961  0.0725  0.1648  0.2256
  862loPI   C6A12440   3.176   5.653   9.176 -0.1573 -0.1182 -0.1216
  862loPI   C1B12441   2.889   5.876   7.473 -0.1448  0.0848 -0.2422
  862loPI   C2B12442   2.902   5.771   7.924  0.2270  0.0204 -0.1138
  862loPI   C3B12443   3.010   5.676   8.283  0.0657  0.0643  0.1340
  862loPI   C4B12444   3.042   5.665   8.662 -0.2596 -0.1130 -0.3281
  863loPI    C112445  11.805   4.711   6.226  0.1008  0.0862 -0.0589
  863loPI    C212446  11.861   5.039   6.004  0.1572  0.0265 -0.1336
  863loPI    C312447  11.579   4.774   5.902  0.0150  0.1215  0.0075
  863loPI   PO412448  11.873   4.785   6.431  0.2096  0.1883 -0.1929
  863loPI   GL112449  12.105   4.642   6.796 -0.2605  0.3544 -0.2504
  863loPI   GL212450  12.247   4.829   6.826 -0.2318 -0.4320  0.1001
  863loPI   C1A12451  11.800   4.615   7.219 -0.0338 -0.1418  0.1028
  863loPI   C2A12452  11.661   4.516   7.666 -0.1465 -0.0316  0.0816
  863loPI   C3A12453  11.652   4.480   8.165  0.0517 -0.0576  0.1402
  863loPI   C4A12454  11.520   4.602   8.537 -0.1366 -0.1135  0.2314
  863loPI   C5A12455  11.200   4.781   8.726 -0.0817  0.2285 -0.1572
  863loPI   C6A12456  10.774   5.035   8.832 -0.1923  0.1391  0.2300
  863loPI   C1B12457  12.117   4.972   7.285 -0.0626  0.2614 -0.2071
  863loPI   C2B12458  11.952   4.886   7.715  0.3536  0.2483  0.0401
  863loPI   C3B12459  11.866   5.038   8.193 -0.0935  0.0634  0.2438
  863loPI   C4B12460  11.883   4.943   8.523  0.0556 -0.1053 -0.1686
  864loPI    C112461   0.528   4.771   6.484 -0.1696 -0.1631  0.0309
  864loPI    C212462   0.511   4.897   6.105  0.2086  0.2105  0.1301
  864loPI    C312463   0.763   4.604   6.206 -0.0882 -0.0797  0.0493
  864loPI   PO412464   0.474   4.979   6.605  0.0008  0.1605 -0.3481
  864loPI   GL112465   0.327   5.407   6.739  0.0832  0.0972  0.0955
  864loPI   GL212466   0.590   5.346   6.971 -0.1043  0.1552 -0.0858
  864loPI   C1A12467   0.153   5.452   7.164 -0.1543 -0.0155 -0.0436
  864loPI   C2A12468   0.203   5.527   7.559 -0.2241 -0.2022 -0.0297
  864loPI   C3A12469   0.170   5.586   7.924 -0.2993 -0.0225 -0.2821
  864loPI   C4A12470   0.341   5.605   8.229  0.3002 -0.2058  0.0347
  864loPI   C5A12471   0.344   5.617   8.624  0.0289 -0.2011 -0.1646
  864loPI   C6A12472   0.543   5.695   8.962  0.0588 -0.0591  0.1853
  864loPI   C1B12473   0.662   5.341   7.433 -0.0449 -0.1993 -0.2080
  864loPI   C2B12474   0.659   5.524   7.824  0.3152  0.1216  0.3160
  864loPI   C3B12475   0.845   5.708   8.246 -0.1313  0.1275 -0.2888
  864loPI   C4B12476   0.955   5.584   8.684  0.1780  0.1553 -0.0423
  865loPI    C112477  14.929   6.275   6.455  0.0222 -0.0575  0.2112
  865loPI    C212478  15.102   5.919   6.512 -0.0715 -0.1539 -0.0868
  865loPI    C312479  14.966   6.019   6.149  0.1487  0.2741 -0.0574
  865loPI   PO412480  14.770   6.267   6.642 -0.3294 -0.0865 -0.0910
  865loPI   GL112481  14.682   6.042   6.906 -0.5375 -0.1140 -0.1405
  865loPI   GL212482  14.520   5.762   6.756  0.2197  0.2945 -0.1765
  865loPI   C1A12483  14.600   5.993   7.356 -0.0260  0.0981  0.0579
  865loPI   C2A12484  14.555   6.005   7.768  0.2193  0.0590  0.3673
  865loPI   C3A12485  14.605   6.041   8.175  0.0212  0.3170 -0.0177
  865loPI   C4A12486  14.386   6.055   8.545  0.0727  0.0750  0.0039
  865loPI   C5A12487  14.212   6.160   8.892  0.1779  0.2044  0.0170
  865loPI   C6A12488  14.588   6.306   9.264 -0.2824  0.0577  0.0827
  865loPI   C1B12489  14.177   5.905   7.072  0.2395  0.1583 -0.2168
  865loPI   C2B12490  14.030   5.925   7.573 -0.0810 -0.0917  0.1589
  865loPI   C3B12491  14.100   5.988   8.021 -0.1067 -0.3589  0.0810
  865loPI   C4B12492  13.916   6.040   8.390  0.1085  0.1685  0.1632
  866loPI    C112493   5.073   3.236   6.287 -0.0458  0.2068  0.1720
  866loPI    C212494   5.444   3.086   6.299 -0.1693 -0.1302 -0.0543
  866loPI    C312495   5.353   3.374   6.036 -0.0468  0.0210  0.0667
  866loPI   PO412496   5.033   3.284   6.578 -0.0209  0.0301  0.1205
  866loPI   GL112497   5.353   3.263   6.900  0.1894 -0.2332  0.1852
  866loPI   GL212498   5.323   3.534   7.075 -0.2138 -0.0056 -0.0888
  866loPI   C1A12499   5.219   3.012   7.308 -0.2690 -0.0711  0.0137
  866loPI   C2A12500   5.198   2.984   7.703 -0.0695  0.3106  0.1966
  866loPI   C3A12501   5.169   3.023   8.119  0.0971  0.0039 -0.0056
  866loPI   C4A12502   5.215   3.085   8.569  0.0716  0.1762 -0.2686
  866loPI   C5A12503   4.851   2.998   8.953  0.0057 -0.3448 -0.3152
  866loPI   C6A12504   4.772   2.624   9.218 -0.0018  0.0334  0.0433
  866loPI   C1B12505   5.474   3.445   7.476 -0.3620  0.0737  0.2925
  866loPI   C2B12506   5.492   3.477   7.836 -0.0754 -0.0583  0.2068
  866loPI   C3B12507   5.382   3.489   8.231 -0.0380 -0.0358  0.0932
  866loPI   C4B12508   5.421   3.510   8.731  0.3324  0.1170 -0.3268
  867loPI    C112509   7.889  12.002   6.007 -0.0085 -0.2251 -0.1261
  867loPI    C212510   8.191  11.878   5.776  0.0928 -0.1481 -0.0356
  867loPI    C312511   8.267  12.054   6.128 -0.0529  0.0267 -0.0906
  867loPI   PO412512   7.785  11.855   6.026 -0.0052  0.2740  0.0827
  867loPI   GL112513   7.660  11.694   6.427  0.3798 -0.0187  0.1577
  867loPI   GL212514   8.051  11.755   6.495  0.0823  0.0155 -0.1895
  867loPI   C1A12515   7.596  11.647   6.803  0.1692 -0.0262 -0.0146
  867loPI   C2A12516   7.699  11.621   7.234  0.1171  0.1089  0.1749
  867loPI   C3A12517   7.708  11.738   7.655 -0.2658  0.1216 -0.1674
  867loPI   C4A12518   7.781  11.679   8.103 -0.1592  0.0155  0.1337
  867loPI   C5A12519   7.751  11.618   8.475  0.1767 -0.0502 -0.0142
  867loPI   C6A12520   7.853  11.846   8.907 -0.0499  0.1516 -0.0530
  867loPI   C1B12521   8.186  11.723   6.973  0.0043 -0.2817  0.3236
  867loPI   C2B12522   8.179  11.726   7.490 -0.3021 -0.2655 -0.1498
  867loPI   C3B12523   8.162  11.831   7.859 -0.1191  0.2994  0.1595
  867loPI   C4B12524   8.278  11.738   8.324  0.1023 -0.0948  0.1797
  868loPI    C112525  11.459  16.782   5.909 -0.1961  0.0628  0.0536
  868loPI    C212526  11.797  16.954   6.036 -0.2401  0.1055  0.1131
  868loPI    C312527  11.807  16.698   5.730 -0.1609  0.1443  0.0830
  868loPI   PO412528  11.281  16.801   6.149  0.3118  0.4068 -0.2652
  868loPI   GL112529  11.368  16.976   6.524 -0.0385 -0.1058  0.0969
  868loPI   GL212530  11.461  16.730   6.732 -0.1710  0.1108  0.0703
  868loPI   C1A12531  11.174  17.173   6.873 -0.0233  0.0811 -0.0896
  868loPI   C2A12532  11.003  17.223   7.329  0.1640 -0.0036 -0.1805
  868loPI   C3A12533  11.006  17.195   7.763 -0.1916 -0.0516  0.3012
  868loPI   C4A12534  11.071  17.090   8.177  0.1360 -0.0740 -0.1828
  868loPI   C5A12535  11.292  17.306   8.593 -0.1377 -0.0777  0.0304
  868loPI   C6A12536  11.592  17.181   8.793 -0.1331  0.0083 -0.1478
  868loPI   C1B12537  11.487  16.562   7.197  0.1591 -0.1770  0.1528
  868loPI   C2B12538  11.424  16.590   7.639 -0.1847  0.2585  0.1359
  868loPI   C3B12539  11.325  16.682   8.067 -0.0408  0.3336 -0.0709
  868loPI   C4B12540  11.280  16.785   8.543  0.1866  0.2137 -0.2413
  869loPI    C112541   5.731   3.881   6.420  0.1509 -0.1841  0.0171
  869loPI    C212542   5.957   3.908   6.091 -0.1825  0.0658 -0.1977
  869loPI    C312543   5.706   4.205   6.187 -0.0317  0.0332  0.3297
  869loPI   PO412544   5.829   3.768   6.632 -0.2406 -0.1620 -0.0650
  869loPI   GL112545   5.898   3.410   6.787 -0.1349  0.1361 -0.4255
  869loPI   GL212546   6.246   3.537   6.824 -0.1057 -0.3648 -0.0930
  869loPI   C1A12547   6.011   3.451   7.304 -0.0448 -0.1977 -0.4522
  869loPI   C2A12548   6.014   3.480   7.753  0.0581  0.1475  0.2117
  869loPI   C3A12549   5.912   3.454   8.210 -0.0738  0.0322 -0.1147
  869loPI   C4A12550   5.905   3.506   8.624 -0.4607 -0.2139 -0.0247
  869loPI   C5A12551   6.333   3.522   8.855  0.1463 -0.0046 -0.0872
  869loPI   C6A12552   6.517   3.798   9.078 -0.3837  0.1595 -0.1673
  869loPI   C1B12553   6.506   3.451   7.155 -0.0294 -0.1850  0.0975
  869loPI   C2B12554   6.553   3.545   7.626 -0.2161 -0.1119 -0.1477
  869loPI   C3B12555   6.466   3.467   8.059  0.2790 -0.4010  0.0655
  869loPI   C4B12556   6.543   3.610   8.405  0.2578 -0.1341  0.1105
  870loPI    C112557   6.205  13.416   6.274  0.0810  0.0026  0.1815
  870loPI    C212558   6.143  13.536   5.898 -0.1476 -0.1039  0.1836
  870loPI    C312559   6.498  13.384   6.003 -0.0796 -0.0649  0.0142
  870loPI   PO412560   5.993  13.279   6.335 -0.0313 -0.3551 -0.1590
  870loPI   GL112561   5.964  13.241   6.723  0.0466  0.4204 -0.0465
  870loPI   GL212562   6.299  13.141   6.739  0.0398 -0.2055  0.0721
  870loPI   C1A12563   5.857  13.213   7.169 -0.1155 -0.4688  0.0578
  870loPI   C2A12564   5.961  13.359   7.551 -0.0953  0.0783  0.1395
  870loPI   C3A12565   6.057  13.235   7.978  0.0228  0.1666 -0.1228
  870loPI   C4A12566   6.112  13.397   8.436 -0.1223  0.3706 -0.2332
  870loPI   C5A12567   6.458  13.487   8.727 -0.0055  0.1454 -0.5043
  870loPI   C6A12568   6.675  13.770   8.779 -0.0123 -0.0467  0.2581
  870loPI   C1B12569   6.386  13.406   6.922 -0.3913  0.2591 -0.1856
  870loPI   C2B12570   6.486  13.452   7.308 -0.1183  0.2092  0.1676
  870loPI   C3B12571   6.538  13.417   7.743 -0.0706 -0.0355 -0.1994
  870loPI   C4B12572   6.492  13.370   8.146  0.0463 -0.0295 -0.3088
  871loPI    C112573  11.600  11.758   5.690 -0.0758 -0.1548 -0.0784
  871loPI    C212574  11.371  11.585   5.412 -0.0411 -0.1658 -0.1002
  871loPI    C312575  11.703  11.780   5.304 -0.0062 -0.2044 -0.0628
  871loPI   PO412576  11.447  11.946   5.906 -0.1461 -0.0955 -0.0254
  871loPI   GL112577  11.218  11.990   6.241 -0.0485  0.5032  0.1726
  871loPI   GL212578  11.231  11.757   6.433  0.0721  0.0784  0.0080
  871loPI   C1A12579  11.298  12.239   6.641 -0.0854 -0.0934 -0.0794
  871loPI   C2A12580  11.257  12.190   7.114 -0.2422  0.1386  0.0047
  871loPI   C3A12581  11.322  12.167   7.445 -0.0200  0.0800  0.2840
  871loPI   C4A12582  11.344  12.108   7.847  0.1075 -0.3143  0.2466
  871loPI   C5A12583  11.385  12.228   8.260  0.1590 -0.3197  0.1497
  871loPI   C6A12584  11.721  12.310   8.538 -0.0731 -0.0773  0.1872
  871loPI   C1B12585  11.078  11.763   6.794 -0.0505 -0.1805  0.2146
  871loPI   C2B12586  11.146  11.667   7.270 -0.1904 -0.1335  0.1572
  871loPI   C3B12587  11.153  11.619   7.727 -0.2826  0.2075 -0.2763
  871loPI   C4B12588  11.111  11.670   8.264  0.0465 -0.1934 -0.1692
  872loPI    C112589   1.173   3.041   6.662 -0.0720 -0.0817 -0.0654
  872loPI    C212590   1.165   2.795   6.347  0.3059 -0.0731 -0.0855
  872loPI    C312591   1.346   3.151   6.318  0.2592 -0.0323  0.1133
  872loPI   PO412592   0.889   3.060   6.805 -0.1296  0.0885 -0.0107
  872loPI   GL112593   0.846   3.264   7.218 -0.0213 -0.0729 -0.1991
  872loPI   GL212594   0.566   3.214   7.167  0.0200  0.0846 -0.1695
  872loPI   C1A12595   0.762   3.372   7.628  0.2981 -0.1288 -0.2660
  872loPI   C2A12596   0.950   3.307   8.072  0.1847 -0.1177  0.2335
  872loPI   C3A12597   0.685   3.396   8.469 -0.0014 -0.0447 -0.3930
  872loPI   C4A12598   0.752   3.274   8.814 -0.0066  0.0521  0.0261
  872loPI   C5A12599   0.908   3.571   9.079 -0.0338 -0.2296  0.0582
  872loPI   C6A12600   0.887   4.031   9.221  0.3384 -0.3805 -0.0149
  872loPI   C1B12601   0.578   3.674   7.286 -0.1378 -0.0189 -0.0399
  872loPI   C2B12602   0.528   3.960   7.658  0.0387  0.0283  0.2648
  872loPI   C3B12603   0.498   4.151   7.977  0.0256  0.3547 -0.0509
  872loPI   C4B12604   0.386   4.263   8.356 -0.0454  0.1065 -0.0538
  873loPI    C112605   4.547  10.843   6.082  0.0318  0.1180 -0.0472
  873loPI    C212606   4.330  10.927   5.758 -0.1417 -0.1407 -0.0008
  873loPI    C312607   4.556  10.597   5.767  0.2482  0.1192 -0.0437
  873loPI   PO412608   4.390  10.899   6.281  0.2074 -0.0659 -0.0207
  873loPI   GL112609   4.232  10.856   6.721 -0.0090  0.1137 -0.0038
  873loPI   GL212610   4.364  11.196   6.699  0.1488 -0.1249  0.0932
  873loPI   C1A12611   4.056  10.692   7.180 -0.1195  0.2558 -0.3358
  873loPI   C2A12612   4.122  10.708   7.651 -0.1371  0.0288  0.1611
  873loPI   C3A12613   4.359  10.805   8.097  0.1262  0.1606 -0.1443
  873loPI   C4A12614   4.533  10.837   8.526  0.0644  0.1165  0.1095
  873loPI   C5A12615   4.665  10.740   8.795  0.0801  0.2848 -0.4082
  873loPI   C6A12616   5.051  10.607   9.068  0.1536 -0.0485  0.0199
  873loPI   C1B12617   4.367  11.107   7.142  0.3942 -0.0013 -0.2442
  873loPI   C2B12618   4.416  11.102   7.581 -0.0730  0.0794 -0.1055
  873loPI   C3B12619   4.663  11.292   8.026  0.0081  0.0368 -0.3821
  873loPI   C4B12620   5.132  11.434   8.187  0.0425 -0.3794  0.2195
  874loPI    C112621   5.863   7.563   6.029 -0.0158  0.0056 -0.2417
  874loPI    C212622   5.609   7.363   5.793  0.0334  0.1567 -0.4258
  874loPI    C312623   5.972   7.462   5.658  0.2031 -0.0792 -0.1560
  874loPI   PO412624   5.690   7.715   6.189 -0.6284 -0.3747 -0.0179
  874loPI   GL112625   5.682   7.812   6.621 -0.1116  0.1609  0.0808
  874loPI   GL212626   5.477   7.540   6.630  0.0911 -0.0423 -0.0321
  874loPI   C1A12627   5.800   7.905   6.965  0.0485 -0.2203 -0.0396
  874loPI   C2A12628   5.673   8.093   7.376  0.0155 -0.0557 -0.4599
  874loPI   C3A12629   5.813   8.056   7.770 -0.0709  0.0298 -0.1738
  874loPI   C4A12630   5.756   8.055   8.255 -0.2853  0.4315 -0.0842
  874loPI   C5A12631   5.449   8.193   8.540 -0.4167 -0.3283  0.0126
  874loPI   C6A12632   5.426   8.666   8.608  0.2047  0.2507 -0.0274
  874loPI   C1B12633   5.547   7.518   7.071  0.1842 -0.0048 -0.2643
  874loPI   C2B12634   5.639   7.604   7.498  0.2582  0.1940 -0.0357
  874loPI   C3B12635   5.567   7.660   7.930 -0.1458  0.0326 -0.0007
  874loPI   C4B12636   5.538   7.610   8.381 -0.0562 -0.0102  0.0210
  875loPI    C112637   1.936  12.862   6.138 -0.0338 -0.0248 -0.0204
  875loPI    C212638   2.010  13.229   5.997  0.0538 -0.0154  0.0489
  875loPI    C312639   2.302  12.957   6.010  0.0780  0.0204  0.3216
  875loPI   PO412640   1.786  12.882   6.425 -0.2615 -0.2178  0.1674
  875loPI   GL112641   1.824  13.102   6.840 -0.3335 -0.1083  0.0074
  875loPI   GL212642   2.016  13.359   6.888 -0.1535 -0.0036 -0.0103
  875loPI   C1A12643   1.608  13.023   7.158  0.0319 -0.0400  0.0228
  875loPI   C2A12644   1.578  13.044   7.545 -0.0137 -0.1489  0.0197
  875loPI   C3A12645   1.517  13.139   7.900  0.2049 -0.1738  0.2307
  875loPI   C4A12646   1.474  13.057   8.325  0.1990  0.0933 -0.0728
  875loPI   C5A12647   1.276  13.127   8.571 -0.1777 -0.2725  0.3186
  875loPI   C6A12648   1.262  13.297   9.036  0.0399 -0.1147  0.0058
  875loPI   C1B12649   2.061  13.232   7.363 -0.0252  0.1942 -0.0007
  875loPI   C2B12650   2.075  13.130   7.726  0.0637  0.0325 -0.0871
  875loPI   C3B12651   1.955  13.151   8.141  0.2962 -0.1829 -0.1677
  875loPI   C4B12652   1.886  13.280   8.494  0.0226  0.3563 -0.2151
  876loPI    C112653   9.194  12.481   5.701 -0.1023  0.1094  0.0791
  876loPI    C212654   8.948  12.300   5.443 -0.1017  0.0512  0.1193
  876loPI    C312655   9.344  12.260   5.404 -0.1001  0.0924  0.0928
  876loPI   PO412656   9.141  12.465   5.949  0.0598  0.0106  0.0869
  876loPI   GL112657   8.971  12.405   6.383  0.0485 -0.0759 -0.1134
  876loPI   GL212658   8.738  12.291   6.493 -0.0098 -0.2234  0.1059
  876loPI   C1A12659   9.075  12.665   6.781  0.0978  0.0658  0.0378
  876loPI   C2A12660   9.030  12.677   7.117 -0.1670 -0.3248 -0.2329
  876loPI   C3A12661   9.145  12.754   7.584 -0.0556 -0.0969  0.0837
  876loPI   C4A12662   9.108  12.765   8.029 -0.1328  0.0291  0.0358
  876loPI   C5A12663   9.215  12.904   8.348  0.2178  0.0161 -0.0441
  876loPI   C6A12664   9.622  13.016   8.641  0.0428 -0.1751  0.1085
  876loPI   C1B12665   8.938  12.151   6.894  0.0720  0.0964 -0.2724
  876loPI   C2B12666   8.870  12.239   7.294 -0.0907  0.0153  0.2513
  876loPI   C3B12667   8.980  12.273   7.742 -0.0963 -0.0086  0.3194
  876loPI   C4B12668   8.963  12.344   8.168 -0.0974  0.2087 -0.3947
  877loPI    C112669   2.435  14.556   6.138  0.1501 -0.1547  0.0518
  877loPI    C212670   2.110  14.366   6.003 -0.1057  0.3018  0.0056
  877loPI    C312671   2.364  14.534   5.744  0.1658 -0.0408  0.0423
  877loPI   PO412672   2.410  14.425   6.445 -0.1595  0.1411 -0.2384
  877loPI   GL112673   2.236  14.305   6.770 -0.1101 -0.0484  0.1761
  877loPI   GL212674   1.938  14.179   6.868 -0.1088 -0.1073  0.2823
  877loPI   C1A12675   2.321  14.328   7.220 -0.1588 -0.0794 -0.0219
  877loPI   C2A12676   2.403  14.288   7.626 -0.0498 -0.0965  0.2154
  877loPI   C3A12677   2.407  14.101   7.944 -0.3248 -0.3163 -0.1849
  877loPI   C4A12678   2.475  14.078   8.329 -0.0489 -0.1405  0.3214
  877loPI   C5A12679   2.661  14.215   8.766  0.0164 -0.2268 -0.0106
  877loPI   C6A12680   2.963  14.383   9.112 -0.2166  0.1749  0.0488
  877loPI   C1B12681   1.853  14.242   7.252  0.0647 -0.0681  0.2741
  877loPI   C2B12682   1.969  14.084   7.587  0.0028 -0.0142 -0.2589
  877loPI   C3B12683   1.836  14.049   7.869 -0.2492 -0.1249  0.0061
  877loPI   C4B12684   1.906  14.148   8.272 -0.0848 -0.1297 -0.0155
  878loPI    C112685  10.402  10.808   5.898  0.0611  0.0708  0.1279
  878loPI    C212686  10.183  10.603   5.633  0.2718 -0.0124  0.0161
  878loPI    C312687  10.376  10.934   5.519  0.0749  0.1520  0.1538
  878loPI   PO412688  10.313  10.856   6.105  0.3537  0.2491  0.2247
  878loPI   GL112689  10.401  10.599   6.422 -0.0417 -0.3112 -0.0862
  878loPI   GL212690  10.026  10.523   6.552 -0.3317  0.1381 -0.0983
  878loPI   C1A12691  10.609  10.410   6.813  0.1524  0.2527  0.1254
  878loPI   C2A12692  10.641  10.345   7.239  0.1543  0.2716 -0.0004
  878loPI   C3A12693  10.514  10.307   7.766 -0.1462  0.0562 -0.0733
  878loPI   C4A12694  10.437  10.326   8.154 -0.1307 -0.2434  0.2412
  878loPI   C5A12695  10.524  10.457   8.564 -0.1002 -0.4865 -0.0545
  878loPI   C6A12696  10.879  10.521   8.794  0.0219  0.0416  0.0851
  878loPI   C1B12697  10.184  10.528   7.020  0.0753 -0.0946 -0.0101
  878loPI   C2B12698  10.225  10.572   7.432  0.0882 -0.0250 -0.1765
  878loPI   C3B12699  10.175  10.678   7.842 -0.0812  0.2195  0.2078
  878loPI   C4B12700   9.988  10.634   8.167  0.1168  0.0892 -0.4515
  879loPI    C112701   9.101   4.889   6.022 -0.2643  0.0825  0.2675
  879loPI    C212702   9.124   5.076   5.670 -0.0409 -0.1377  0.1624
  879loPI    C312703   8.849   4.792   5.728 -0.0996 -0.0779  0.1773
  879loPI   PO412704   9.062   5.146   6.207 -0.1231 -0.1276 -0.0662
  879loPI   GL112705   8.873   4.842   6.518 -0.0704 -0.0288 -0.0408
  879loPI   GL212706   9.221   4.965   6.671  0.1855  0.2482 -0.0378
  879loPI   C1A12707   8.671   4.922   6.865 -0.2396 -0.0548 -0.0971
  879loPI   C2A12708   8.766   4.914   7.343  0.4797  0.0931  0.0644
  879loPI   C3A12709   8.713   4.994   7.835  0.0318 -0.0066 -0.2094
  879loPI   C4A12710   8.785   4.981   8.281 -0.1725  0.0088  0.0483
  879loPI   C5A12711   8.539   5.025   8.680  0.3754 -0.0163  0.1136
  879loPI   C6A12712   8.325   5.329   9.003  0.0300  0.2229  0.1150
  879loPI   C1B12713   9.367   5.009   7.089 -0.2168 -0.3620  0.1368
  879loPI   C2B12714   9.242   4.970   7.532  0.1986  0.0356  0.0567
  879loPI   C3B12715   9.193   4.996   8.005 -0.0630  0.0450 -0.0498
  879loPI   C4B12716   9.361   4.869   8.345  0.0748  0.0614 -0.0178
  880loPI    C112717  15.734  14.288   6.209 -0.0108  0.0669  0.0543
  880loPI    C212718  16.047  14.460   6.029 -0.1366  0.0920 -0.1443
  880loPI    C312719  15.717  14.376   5.819 -0.1034 -0.3304 -0.0363
  880loPI   PO412720  15.704  14.395   6.476  0.1839  0.1346 -0.0632
  880loPI   GL112721  16.044  14.474   6.814  0.0643  0.0272  0.0852
  880loPI   GL212722  15.781  14.553   6.988  0.0026  0.0086  0.0369
  880loPI   C1A12723  16.044  14.236   7.220 -0.1043  0.1229 -0.0705
  880loPI   C2A12724  16.230  14.137   7.651 -0.0484 -0.1627 -0.0516
  880loPI   C3A12725  16.175  14.102   8.115  0.1458 -0.1768 -0.0782
  880loPI   C4A12726  16.065  14.182   8.520  0.4713 -0.0506 -0.0551
  880loPI   C5A12727  16.298  14.120   8.743  0.0995 -0.1085  0.0309
  880loPI   C6A12728  16.710  14.110   8.932 -0.1855  0.1183 -0.1384
  880loPI   C1B12729  15.775  14.618   7.399  0.0328  0.3351  0.1656
  880loPI   C2B12730  15.908  14.433   7.778  0.1187 -0.0288 -0.0448
  880loPI   C3B12731  15.855  14.492   8.223  0.2450 -0.0721  0.0103
  880loPI   C4B12732  15.627  14.480   8.608 -0.3508  0.1602  0.0817
  881loPI    C112733  11.819  11.356   5.944 -0.6083  0.1610  0.1693
  881loPI    C212734  11.944  11.412   5.568 -0.1318 -0.0754  0.2847
  881loPI    C312735  11.600  11.221   5.637 -0.3091  0.1211 -0.0314
  881loPI   PO412736  11.904  11.556   6.058  0.0130 -0.1501 -0.3413
  881loPI   GL112737  11.736  11.863   6.338 -0.1637  0.4024 -0.0012
  881loPI   GL212738  11.727  12.136   6.408  0.1493 -0.2469  0.3108
  881loPI   C1A12739  11.588  11.849   6.747 -0.0298  0.0222  0.0750
  881loPI   C2A12740  11.600  11.807   7.218 -0.0925 -0.0746  0.3376
  881loPI   C3A12741  11.681  11.754   7.688 -0.0992  0.0128  0.1380
  881loPI   C4A12742  11.679  11.874   8.100 -0.1961  0.3831 -0.1634
  881loPI   C5A12743  11.521  11.753   8.532  0.1960 -0.0414  0.3835
  881loPI   C6A12744  11.418  11.564   8.922  0.0111  0.0366  0.0034
  881loPI   C1B12745  11.764  12.292   6.796 -0.0195  0.1842 -0.0079
  881loPI   C2B12746  11.866  12.192   7.172 -0.1262  0.1052  0.0981
  881loPI   C3B12747  11.818  12.220   7.574 -0.0019 -0.3870  0.1770
  881loPI   C4B12748  11.978  12.236   8.009  0.0401 -0.0507 -0.1822
  882loPI    C112749  11.698  10.852   6.241 -0.0766 -0.0074 -0.0358
  882loPI    C212750  11.811  10.858   5.857  0.1145  0.0717  0.0203
  882loPI    C312751  11.735  10.510   6.038 -0.1298  0.0433 -0.1317
  882loPI   PO412752  11.558  11.093   6.302 -0.2049  0.2958 -0.2044
  882loPI   GL112753  11.636  11.396   6.585  0.0641 -0.0646 -0.1892
  882loPI   GL212754  11.404  11.391   6.693 -0.2217  0.1766 -0.1772
  882loPI   C1A12755  11.922  11.390   6.889 -0.1698 -0.1410 -0.0933
  882loPI   C2A12756  11.900  11.440   7.344  0.0656  0.3077  0.0721
  882loPI   C3A12757  11.976  11.375   7.818 -0.1789  0.1456  0.1654
  882loPI   C4A12758  11.917  11.446   8.357  0.0031  0.1059  0.2295
  882loPI   C5A12759  12.236  11.421   8.600  0.0933  0.3410 -0.1836
  882loPI   C6A12760  12.643  11.242   8.773  0.5730 -0.1668 -0.1295
  882loPI   C1B12761  11.473  11.299   7.135  0.3353  0.1906  0.0898
  882loPI   C2B12762  11.522  11.232   7.558  0.0874 -0.0570 -0.0385
  882loPI   C3B12763  11.506  11.323   7.996  0.1428  0.0192 -0.1198
  882loPI   C4B12764  11.496  11.248   8.422  0.0186 -0.1513 -0.1666
  883loPI    C112765  10.644  11.896   5.878  0.0792  0.0123  0.0987
  883loPI    C212766  10.898  11.630   6.036  0.2499  0.2175  0.1750
  883loPI    C312767  11.003  11.839   5.712 -0.0532 -0.1175 -0.1494
  883loPI   PO412768  10.583  12.031   6.080  0.1415  0.1033  0.0150
  883loPI   GL112769  10.763  11.937   6.478  0.1886 -0.0263 -0.0831
  883loPI   GL212770  10.595  11.634   6.466 -0.0113  0.0567 -0.3810
  883loPI   C1A12771  10.709  12.151   6.886  0.0659 -0.1038 -0.1257
  883loPI   C2A12772  10.847  12.027   7.287  0.0619 -0.1554 -0.0824
  883loPI   C3A12773  10.820  12.033   7.669 -0.0274 -0.0613 -0.0968
  883loPI   C4A12774  10.828  12.031   8.074 -0.1744 -0.0277 -0.0586
  883loPI   C5A12775  10.819  12.299   8.442 -0.1741  0.0341 -0.3311
  883loPI   C6A12776  10.569  12.680   8.606 -0.0318  0.0745  0.1345
  883loPI   C1B12777  10.603  11.589   6.911  0.0247  0.0613  0.1628
  883loPI   C2B12778  10.602  11.615   7.430  0.0993  0.1352 -0.2571
  883loPI   C3B12779  10.696  11.581   7.909  0.0299 -0.1203  0.1810
  883loPI   C4B12780  10.600  11.386   8.296 -0.1003 -0.0008 -0.1838
  884loPI    C112781  10.770   8.235   5.461  0.1957 -0.0614 -0.0243
  884loPI    C212782  10.631   7.903   5.286 -0.0245  0.0145  0.0039
  884loPI    C312783  10.764   8.207   5.062  0.0333 -0.0315 -0.0245
  884loPI   PO412784  10.844   8.195   5.685 -0.2867  0.1982  0.1496
  884loPI   GL112785  10.936   8.341   6.022 -0.0690  0.3134 -0.1663
  884loPI   GL212786  11.051   8.487   6.183  0.1614  0.1959  0.2241
  884loPI   C1A12787  11.174   8.082   6.375 -0.3466 -0.0313  0.0869
  884loPI   C2A12788  11.102   8.063   6.834 -0.0333  0.0050 -0.1812
  884loPI   C3A12789  11.024   8.083   7.259 -0.1694 -0.0270  0.0193
  884loPI   C4A12790  10.985   8.115   7.636  0.1451 -0.0512 -0.1528
  884loPI   C5A12791  10.960   8.120   8.001  0.1369 -0.0836 -0.2723
  884loPI   C6A12792  10.785   8.217   8.301 -0.3613 -0.1062 -0.3258
  884loPI   C1B12793  10.927   8.483   6.644  0.3373 -0.1680 -0.0330
  884loPI   C2B12794  10.725   8.615   7.022  0.1665  0.0102 -0.1925
  884loPI   C3B12795  10.739   8.577   7.475 -0.0250  0.0501 -0.2721
  884loPI   C4B12796  10.729   8.542   7.935  0.0783  0.0855  0.0199
  885loPI    C112797   6.206  16.359   5.965 -0.1580 -0.2215 -0.1486
  885loPI    C212798   5.878  16.352   6.192 -0.0534 -0.0007  0.0132
  885loPI    C312799   5.913  16.623   5.900  0.0542  0.0851  0.1048
  885loPI   PO412800   6.400  16.342   6.152  0.0792  0.0417 -0.0121
  885loPI   GL112801   6.485  16.382   6.506  0.0851 -0.1058  0.2158
  885loPI   GL212802   6.536  16.199   6.661 -0.1982  0.0769  0.1618
  885loPI   C1A12803   6.354  16.521   6.996 -0.3182  0.2025 -0.0806
  885loPI   C2A12804   6.385  16.537   7.441 -0.1963  0.2236  0.1729
  885loPI   C3A12805   6.439  16.581   7.843  0.0642  0.1245  0.1175
  885loPI   C4A12806   6.264  16.637   8.276 -0.0093 -0.5076 -0.0236
  885loPI   C5A12807   6.365  16.611   8.633 -0.1381  0.2008 -0.2068
  885loPI   C6A12808   6.717  16.725   8.894  0.1561  0.0390 -0.1416
  885loPI   C1B12809   6.720  16.090   7.139  0.0583 -0.0985  0.4233
  885loPI   C2B12810   6.713  16.229   7.550 -0.2722 -0.0673 -0.2386
  885loPI   C3B12811   6.742  16.112   7.940  0.2262  0.0396 -0.0631
  885loPI   C4B12812   6.482  16.229   8.220  0.0388 -0.0469 -0.0002
  886loPI    C112813   2.876   8.048   5.926 -0.1016  0.1011 -0.0761
  886loPI    C212814   3.052   7.696   5.851 -0.0338  0.0717  0.2089
  886loPI    C312815   3.234   8.037   5.747 -0.0822  0.0251 -0.0332
  886loPI   PO412816   2.781   7.994   6.258  0.1657 -0.0969 -0.1083
  886loPI   GL112817   2.966   8.008   6.614 -0.2216 -0.0193  0.0261
  886loPI   GL212818   3.369   7.884   6.695  0.0286 -0.0727  0.2611
  886loPI   C1A12819   2.944   8.077   7.028 -0.0202  0.0035 -0.2223
  886loPI   C2A12820   3.114   8.040   7.459 -0.1687  0.0587 -0.1208
  886loPI   C3A12821   3.177   8.043   7.867  0.0948 -0.1256  0.0913
  886loPI   C4A12822   3.151   8.024   8.251  0.3390  0.2366 -0.0791
  886loPI   C5A12823   3.198   7.855   8.686  0.0662  0.1479 -0.0773
  886loPI   C6A12824   3.341   7.449   8.890  0.1360 -0.2938  0.0632
  886loPI   C1B12825   3.403   7.821   7.139 -0.3212 -0.1349  0.3557
  886loPI   C2B12826   3.464   7.492   7.507 -0.0098 -0.0331 -0.0231
  886loPI   C3B12827   3.414   7.528   7.951 -0.0613  0.3345  0.0347
  886loPI   C4B12828   3.521   7.536   8.430  0.2648 -0.1872  0.1874
  887loPI    C112829  14.548  16.909   6.655 -0.1087  0.0903  0.3063
  887loPI    C212830  14.496  17.112   6.315 -0.1316 -0.0307  0.2368
  887loPI    C312831  14.213  17.120   6.597 -0.1435  0.0130  0.2239
  887loPI   PO412832  14.626  16.681   6.521  0.0763  0.0296 -0.0757
  887loPI   GL112833  14.482  16.333   6.751 -0.0520  0.0181 -0.0674
  887loPI   GL212834  14.806  16.192   6.691 -0.0516 -0.2494  0.1506
  887loPI   C1A12835  14.492  16.509   7.139 -0.0949  0.2783  0.2626
  887loPI   C2A12836  14.509  16.550   7.591 -0.0328  0.0556  0.1529
  887loPI   C3A12837  14.414  16.583   7.999  0.2232 -0.0988 -0.2774
  887loPI   C4A12838  14.682  16.410   8.439  0.1051  0.0983  0.1666
  887loPI   C5A12839  14.854  16.441   8.859 -0.0578 -0.1367  0.0678
  887loPI   C6A12840  14.750  16.735   9.207 -0.1339 -0.1798 -0.3058
  887loPI   C1B12841  14.938  16.248   7.111 -0.0363 -0.2681  0.1054
  887loPI   C2B12842  15.017  16.307   7.625  0.2698 -0.2046  0.1652
  887loPI   C3B12843  14.915  16.259   8.019 -0.2806 -0.0726  0.0779
  887loPI   C4B12844  15.104  16.117   8.482 -0.2207 -0.0082  0.0565
  888loPI    C112845  12.984   3.900   6.195 -0.0334 -0.0713  0.2383
  888loPI    C212846  12.676   3.665   6.095 -0.0456 -0.0469  0.2178
  888loPI    C312847  12.667   4.054   6.006  0.0526 -0.0732  0.0904
  888loPI   PO412848  13.048   3.776   6.540  0.1242 -0.2482  0.2389
  888loPI   GL112849  13.171   3.903   6.896 -0.1571  0.0471 -0.3677
  888loPI   GL212850  13.224   4.168   7.001 -0.1016  0.2255 -0.0403
  888loPI   C1A12851  13.344   3.642   7.216 -0.1647  0.2860  0.0432
  888loPI   C2A12852  13.277   3.650   7.614 -0.0938 -0.0871 -0.0997
  888loPI   C3A12853  13.303   3.744   8.106  0.0107  0.1925  0.1989
  888loPI   C4A12854  13.412   3.749   8.553  0.0768  0.0486 -0.1835
  888loPI   C5A12855  13.381   3.757   9.004  0.0718 -0.0800  0.0703
  888loPI   C6A12856  13.385   3.397   9.324  0.1367 -0.0893  0.4873
  888loPI   C1B12857  13.081   4.090   7.422  0.2371 -0.1834  0.1151
  888loPI   C2B12858  13.038   4.008   7.783 -0.2006  0.1144 -0.2545
  888loPI   C3B12859  13.045   4.129   8.248 -0.0285 -0.1765 -0.1620
  888loPI   C4B12860  13.072   4.111   8.726  0.0038 -0.0276 -0.0734
  889loPI    C112861  13.574   6.662   5.936  0.0048  0.2458  0.0982
  889loPI    C212862  13.932   6.771   5.797  0.0309 -0.1255 -0.1397
  889loPI    C312863  13.603   6.849   5.583 -0.0066 -0.0128 -0.0421
  889loPI   PO412864  13.550   6.623   6.277  0.0373 -0.1447  0.3281
  889loPI   GL112865  13.816   6.652   6.673 -0.0348  0.2007  0.0805
  889loPI   GL212866  13.837   6.376   6.836  0.1834 -0.1304 -0.0663
  889loPI   C1A12867  14.007   6.852   7.022  0.0231  0.2666  0.1842
  889loPI   C2A12868  14.093   6.926   7.418 -0.0369 -0.0209  0.0057
  889loPI   C3A12869  13.953   6.813   7.850  0.1751  0.1941  0.0828
  889loPI   C4A12870  13.992   6.967   8.263 -0.0585 -0.0425 -0.1246
  889loPI   C5A12871  13.749   6.975   8.608  0.0950  0.0166  0.1208
  889loPI   C6A12872  13.542   7.173   8.931  0.1415  0.2681 -0.1781
  889loPI   C1B12873  13.904   6.319   7.309 -0.3140  0.0152  0.0795
  889loPI   C2B12874  13.830   6.355   7.799 -0.1081  0.0125 -0.1403
  889loPI   C3B12875  13.744   6.439   8.154  0.3379 -0.0317 -0.0640
  889loPI   C4B12876  13.492   6.455   8.529 -0.1082  0.0438 -0.4766
  890loPI    C112877  14.980  15.875   6.174 -0.0451 -0.0253  0.0086
  890loPI    C212878  14.865  15.669   5.851  0.0653  0.1553 -0.1483
  890loPI    C312879  14.808  16.064   5.866 -0.0815  0.1262  0.1208
  890loPI   PO412880  14.974  15.678   6.384  0.0733 -0.3147  0.0386
  890loPI   GL112881  15.269  15.454   6.676  0.1306 -0.2069 -0.1126
  890loPI   GL212882  15.168  15.788   6.873 -0.2177  0.1856 -0.0777
  890loPI   C1A12883  15.087  15.392   7.172  0.0176 -0.1055 -0.0627
  890loPI   C2A12884  15.104  15.400   7.635  0.3146  0.1447 -0.2303
  890loPI   C3A12885  15.123  15.333   8.052 -0.2517  0.1687 -0.0185
  890loPI   C4A12886  15.227  15.369   8.465 -0.0449 -0.0494 -0.0619
  890loPI   C5A12887  15.341  15.298   8.864  0.1374  0.0106 -0.1935
  890loPI   C6A12888  14.998  15.148   9.009  0.1135 -0.1036 -0.2394
  890loPI   C1B12889  15.127  15.841   7.405 -0.1026  0.0879 -0.1042
  890loPI   C2B12890  14.998  15.822   7.787  0.2495 -0.1252  0.1746
  890loPI   C3B12891  14.785  15.702   8.144 -0.2800  0.2501  0.1025
  890loPI   C4B12892  14.427  15.493   8.229  0.0106 -0.0702 -0.4559
  891loPI    C112893  11.930   7.733   5.652  0.1131 -0.1279 -0.1898
  891loPI    C212894  11.977   7.488   5.340 -0.0151  0.0869 -0.3811
  891loPI    C312895  12.094   7.869   5.314 -0.0316  0.1078 -0.1674
  891loPI   PO412896  11.668   7.702   5.723  0.2144 -0.1226  0.1540
  891loPI   GL112897  11.340   7.655   6.093  0.1126 -0.0234 -0.0552
  891loPI   GL212898  11.417   7.559   6.298 -0.0718  0.1174  0.0431
  891loPI   C1A12899  10.976   7.597   6.463  0.3483 -0.1108 -0.0928
  891loPI   C2A12900  10.866   7.643   6.994 -0.2655 -0.3604  0.1332
  891loPI   C3A12901  10.794   7.673   7.427 -0.1295 -0.0202  0.0967
  891loPI   C4A12902  10.757   7.663   7.882 -0.0301 -0.0137  0.3250
  891loPI   C5A12903  10.788   7.680   8.249 -0.0307  0.0402 -0.0419
  891loPI   C6A12904  10.622   7.755   8.556  0.1106  0.1521  0.1722
  891loPI   C1B12905  11.408   7.546   6.784  0.1407 -0.0043  0.0863
  891loPI   C2B12906  11.313   7.656   7.301 -0.4056  0.0610  0.1196
  891loPI   C3B12907  11.235   7.686   7.746 -0.2116  0.2530 -0.1715
  891loPI   C4B12908  11.329   7.679   8.159  0.2265  0.1116 -0.0909
  892loPI    C112909  15.684   8.186   6.013 -0.0281  0.0120  0.0597
  892loPI    C212910  15.386   7.963   5.867 -0.1101  0.1561  0.0049
  892loPI    C312911  15.652   8.128   5.618  0.1134 -0.1062  0.0646
  892loPI   PO412912  15.739   8.077   6.226 -0.1903 -0.2472  0.1645
  892loPI   GL112913  15.812   8.078   6.616 -0.0352  0.0645  0.3697
  892loPI   GL212914  15.970   7.961   6.782 -0.1541  0.1222 -0.1287
  892loPI   C1A12915  15.887   8.426   6.912  0.1658  0.1240  0.0758
  892loPI   C2A12916  15.792   8.489   7.352 -0.1679  0.0240  0.1809
  892loPI   C3A12917  15.903   8.585   7.717  0.2785 -0.1106  0.0320
  892loPI   C4A12918  16.041   8.679   8.111 -0.0230 -0.2121 -0.0398
  892loPI   C5A12919  16.278   8.701   8.475  0.3150  0.4602 -0.0165
  892loPI   C6A12920  16.633   8.495   8.558  0.1968  0.1581  0.0757
  892loPI   C1B12921  16.058   8.054   7.147  0.0910  0.0112 -0.0731
  892loPI   C2B12922  16.140   8.151   7.486  0.0931 -0.2931  0.0029
  892loPI   C3B12923  16.237   8.289   7.931  0.1090 -0.4363  0.1964
  892loPI   C4B12924  16.277   8.232   8.315 -0.0870  0.3569 -0.1812
  893loPI    C112925   7.552   0.068   6.103  0.0628  0.3073 -0.1402
  893loPI    C212926   7.377   0.114   5.747  0.0669  0.0375 -0.1786
  893loPI    C312927   7.757  -0.009   5.769 -0.0135 -0.2001 -0.0781
  893loPI   PO412928   7.473   0.246   6.262  0.0208  0.0330  0.0141
  893loPI   GL112929   7.571   0.424   6.636 -0.0210 -0.0437 -0.2524
  893loPI   GL212930   7.423   0.665   6.678  0.1579 -0.3845  0.0964
  893loPI   C1A12931   7.699   0.445   7.079 -0.3494  0.2770  0.0436
  893loPI   C2A12932   7.801   0.460   7.582  0.2401 -0.0984 -0.1779
  893loPI   C3A12933   7.821   0.496   8.081 -0.0155  0.3584  0.1221
  893loPI   C4A12934   7.871   0.465   8.541 -0.1712  0.0701  0.0323
  893loPI   C5A12935   8.177   0.181   8.789  0.2511  0.0814 -0.2953
  893loPI   C6A12936   8.389  -0.300   8.660  0.0685  0.1140  0.0333
  893loPI   C1B12937   7.497   0.861   6.970  0.2280 -0.2303 -0.0613
  893loPI   C2B12938   7.519   0.882   7.430 -0.0230 -0.0356 -0.0906
  893loPI   C3B12939   7.597   0.947   7.869  0.0421  0.2976  0.3213
  893loPI   C4B12940   7.623   0.953   8.310 -0.0683  0.0866 -0.0767
  894loPI    C112941  15.727   9.161   5.915 -0.1271  0.1095  0.1298
  894loPI    C212942  15.640   8.796   5.775 -0.1480  0.2386 -0.2025
  894loPI    C312943  15.928   9.013   5.602 -0.2279  0.4338 -0.0934
  894loPI   PO412944  15.779   9.123   6.222 -0.0629  0.0015 -0.1979
  894loPI   GL112945  15.933   8.885   6.585  0.1146 -0.3896  0.0956
  894loPI   GL212946  15.526   8.887   6.667  0.1364  0.0408  0.0645
  894loPI   C1A12947  16.069   8.899   6.975 -0.0012 -0.1314  0.0421
  894loPI   C2A12948  16.100   9.018   7.467  0.1669  0.0401  0.1744
  894loPI   C3A12949  16.055   9.098   7.887 -0.1648 -0.2627  0.2415
  894loPI   C4A12950  15.917   9.166   8.275 -0.1794  0.0413  0.0645
  894loPI   C5A12951  15.943   9.323   8.637 -0.0029 -0.0499  0.2491
  894loPI   C6A12952  16.111   9.240   9.038  0.0318 -0.1691 -0.3477
  894loPI   C1B12953  15.549   8.908   7.101 -0.1825  0.0706  0.3810
  894loPI   C2B12954  15.602   8.939   7.491  0.2493  0.1605  0.1020
  894loPI   C3B12955  15.524   9.132   7.935  0.1995 -0.0045 -0.0082
  894loPI   C4B12956  15.331   9.201   8.320 -0.3462  0.1240 -0.0135
  895loPI    C112957   7.553   9.875   5.554  0.0173 -0.1979  0.1338
  895loPI    C212958   7.653   9.495   5.479 -0.0445 -0.1799 -0.0445
  895loPI    C312959   7.479   9.716   5.194  0.1732  0.0430 -0.0074
  895loPI   PO412960   7.587   9.932   5.816 -0.0307  0.1685  0.0871
  895loPI   GL112961   7.364   9.908   6.250 -0.1530  0.0692  0.1307
  895loPI   GL212962   7.334  10.177   6.175 -0.0459 -0.2539 -0.0941
  895loPI   C1A12963   7.394   9.861   6.744  0.0661 -0.0532 -0.0761
  895loPI   C2A12964   7.361   9.784   7.143  0.1205 -0.2166  0.2337
  895loPI   C3A12965   7.377   9.852   7.581 -0.0204 -0.2089  0.1609
  895loPI   C4A12966   7.480   9.778   8.107 -0.3907  0.1689  0.1788
  895loPI   C5A12967   7.760   9.635   8.370 -0.1873  0.0260  0.2660
  895loPI   C6A12968   7.768   9.243   8.512 -0.0068 -0.5563  0.0517
  895loPI   C1B12969   7.522  10.318   6.560 -0.0112 -0.1852  0.1492
  895loPI   C2B12970   7.530  10.310   7.004 -0.0916  0.0517 -0.1788
  895loPI   C3B12971   7.653  10.342   7.500  0.1658 -0.0115  0.1137
  895loPI   C4B12972   7.592  10.226   7.939  0.3228 -0.1030 -0.0582
  896loPI    C112973   3.473   5.871   6.366 -0.0290  0.1097  0.0934
  896loPI    C212974   3.670   5.701   6.062  0.2034  0.0464  0.2767
  896loPI    C312975   3.358   5.940   5.989  0.1692 -0.0800 -0.0040
  896loPI   PO412976   3.622   5.745   6.589 -0.2550 -0.0429 -0.1172
  896loPI   GL112977   3.633   5.662   7.078  0.0843  0.0306 -0.2221
  896loPI   GL212978   3.353   5.792   7.118  0.0748 -0.3363 -0.0031
  896loPI   C1A12979   3.722   5.433   7.360 -0.1864 -0.0885 -0.0148
  896loPI   C2A12980   3.745   5.421   7.822 -0.2318 -0.0147  0.0433
  896loPI   C3A12981   3.752   5.324   8.187  0.2319  0.1769  0.2433
  896loPI   C4A12982   3.873   5.185   8.606  0.1539  0.1604  0.0100
  896loPI   C5A12983   3.888   4.789   8.844 -0.0360  0.3836 -0.0581
  896loPI   C6A12984   3.697   4.704   9.277 -0.0940 -0.0587 -0.1268
  896loPI   C1B12985   3.453   5.766   7.595 -0.0867 -0.2455  0.2448
  896loPI   C2B12986   3.437   5.768   8.035  0.1301 -0.0806 -0.0576
  896loPI   C3B12987   3.512   5.691   8.398  0.0905  0.3583 -0.0834
  896loPI   C4B12988   3.523   5.656   8.875  0.1992  0.0645 -0.1454
  897loPI    C112989   6.344  10.170   5.850  0.1483  0.4352 -0.1003
  897loPI    C212990   6.634   9.954   5.680 -0.1085 -0.1243  0.1455
  897loPI    C312991   6.305  10.045   5.472 -0.1498 -0.2698  0.1457
  897loPI   PO412992   6.334  10.074   6.090 -0.1569  0.2108 -0.3935
  897loPI   GL112993   6.015   9.915   6.463  0.1936 -0.1039  0.0555
  897loPI   GL212994   6.119   9.656   6.472  0.1465  0.1561 -0.0909
  897loPI   C1A12995   5.934  10.038   6.931 -0.1794  0.1558 -0.0174
  897loPI   C2A12996   5.986  10.051   7.373 -0.1211 -0.1165  0.0332
  897loPI   C3A12997   6.071  10.198   7.699  0.2633  0.0480  0.1844
  897loPI   C4A12998   6.049  10.344   8.103 -0.0798 -0.0571  0.0731
  897loPI   C5A12999   6.043  10.127   8.515  0.0847  0.1234  0.0647
  897loPI   C6A13000   6.212   9.912   8.785  0.0103 -0.1920  0.2250
  897loPI   C1B13001   6.315   9.734   6.866 -0.4801 -0.2392  0.1810
  897loPI   C2B13002   6.320   9.765   7.229  0.0530 -0.2083  0.0392
  897loPI   C3B13003   6.326   9.758   7.723  0.0332  0.0311  0.2088
  897loPI   C4B13004   6.310   9.874   8.117 -0.2972  0.0422  0.0973
  898loPI    C113005   3.506  15.528   6.024 -0.2769 -0.0916 -0.2789
  898loPI    C213006   3.499  15.155   6.171  0.1632  0.1730  0.4708
  898loPI    C313007   3.744  15.246   5.868  0.1797 -0.1058  0.3977
  898loPI   PO413008   3.592  15.677   6.239  0.0153 -0.0099  0.2531
  898loPI   GL113009   3.475  15.946   6.637  0.2432  0.3573  0.5173
  898loPI   GL213010   3.128  16.142   6.685 -0.1558  0.0640 -0.0949
  898loPI   C1A13011   3.617  15.740   7.061 -0.3424 -0.0902 -0.1859
  898loPI   C2A13012   3.502  15.656   7.507  0.1667 -0.0179  0.1711
  898loPI   C3A13013   3.439  15.624   7.971 -0.0261  0.0759  0.1368
  898loPI   C4A13014   3.503  15.616   8.405  0.1574  0.2223 -0.1216
  898loPI   C5A13015   3.702  15.938   8.749 -0.4251  0.0295  0.2996
  898loPI   C6A13016   3.469  16.201   8.987  0.0414 -0.2445 -0.2801
  898loPI   C1B13017   3.241  16.006   7.076  0.0468  0.1040  0.0076
  898loPI   C2B13018   3.254  16.143   7.553 -0.0056 -0.0434 -0.0764
  898loPI   C3B13019   3.164  16.007   7.936  0.1344  0.0042 -0.1215
  898loPI   C4B13020   3.223  16.010   8.342  0.2317 -0.1319 -0.0613
  899loPI    C113021  14.311  13.633   6.107  0.2457  0.0890 -0.0323
  899loPI    C213022  14.433  13.317   5.894 -0.2015 -0.0459 -0.1002
  899loPI    C313023  14.308  13.648   5.707 -0.0279  0.0590 -0.0334
  899loPI   PO413024  14.491  13.678   6.266  0.0742  0.0216 -0.0608
  899loPI   GL113025  14.423  13.860   6.612 -0.2996  0.1651 -0.2057
  899loPI   GL213026  14.695  13.964   6.774 -0.1767  0.1920  0.0719
  899loPI   C1A13027  14.311  14.209   6.822 -0.1821  0.2933  0.2397
  899loPI   C2A13028  14.321  14.333   7.281  0.0667 -0.1964 -0.1681
  899loPI   C3A13029  14.262  14.268   7.685 -0.2846  0.1313 -0.0273
  899loPI   C4A13030  14.242  14.330   8.114  0.0197 -0.1814 -0.0864
  899loPI   C5A13031  14.101  14.274   8.564  0.1151  0.1178  0.1763
  899loPI   C6A13032  13.866  14.385   8.911  0.1965 -0.1491 -0.1450
  899loPI   C1B13033  14.634  13.921   7.082 -0.0957 -0.1095 -0.1007
  899loPI   C2B13034  14.555  13.911   7.430 -0.3054  0.3067 -0.0112
  899loPI   C3B13035  14.621  13.827   7.849  0.1068  0.0611  0.1019
  899loPI   C4B13036  14.501  13.834   8.275  0.0306  0.0227 -0.1924
  900loPI    C113037  16.705   7.748   6.357  0.1341  0.0108 -0.0529
  900loPI    C213038  16.668   8.144   6.313 -0.0617  0.0037  0.0357
  900loPI    C313039  16.567   7.900   6.013  0.1329  0.0231 -0.0468
  900loPI   PO413040  16.647   7.649   6.546 -0.1732  0.0908  0.0937
  900loPI   GL113041  16.441   7.576   6.865 -0.4690  0.0932 -0.0174
  900loPI   GL213042  16.566   7.271   7.041  0.2106 -0.2159 -0.0980
  900loPI   C1A13043  16.437   7.700   7.213  0.0329  0.1255  0.0993
  900loPI   C2A13044  16.501   7.762   7.618  0.2575  0.1976  0.0041
  900loPI   C3A13045  16.574   7.706   8.037 -0.0542  0.2808 -0.3872
  900loPI   C4A13046  16.650   7.943   8.346  0.0639  0.2794  0.0161
  900loPI   C5A13047  16.905   8.032   8.629 -0.0910 -0.1235  0.0604
  900loPI   C6A13048  17.249   8.167   8.912  0.0857  0.3820 -0.0475
  900loPI   C1B13049  16.483   7.285   7.539  0.1795 -0.0997  0.0414
  900loPI   C2B13050  16.402   7.254   8.001 -0.0409  0.0183 -0.0293
  900loPI   C3B13051  16.144   6.988   8.313 -0.2268  0.0799 -0.0310
  900loPI   C4B13052  16.172   6.986   8.746 -0.0879 -0.1706  0.1200
  901loPI    C113053   0.218   0.420   6.241  0.1038  0.0107 -0.0988
  901loPI    C213054  -0.009   0.647   6.002  0.1695  0.1685 -0.0131
  901loPI    C313055   0.260   0.396   5.844 -0.0224  0.0234 -0.1132
  901loPI   PO413056   0.117   0.598   6.549 -0.1446  0.1519  0.1336
  901loPI   GL113057   0.268   0.761   6.969 -0.2864 -0.0860 -0.1410
  901loPI   GL213058  -0.004   0.568   7.042 -0.1971 -0.2093  0.2581
  901loPI   C1A13059   0.366   0.839   7.371  0.1603 -0.1240 -0.2058
  901loPI   C2A13060   0.461   0.889   7.860 -0.1357  0.0489 -0.0722
  901loPI   C3A13061   0.523   0.932   8.315  0.0125 -0.0035  0.1285
  901loPI   C4A13062   0.609   0.820   8.775  0.1315  0.1061 -0.1430
  901loPI   C5A13063   0.531   0.567   9.108 -0.3088  0.5619  0.1924
  901loPI   C6A13064   0.773   0.308   9.227  0.0158  0.2970 -0.0566
  901loPI   C1B13065  -0.206   0.370   7.319 -0.1429  0.0568 -0.1824
  901loPI   C2B13066  -0.254   0.276   7.755  0.1048  0.1453  0.0552
  901loPI   C3B13067  -0.221   0.258   8.190 -0.1811 -0.0051  0.3164
  901loPI   C4B13068  -0.280   0.356   8.616  0.1900  0.0060  0.1037
  902loPI    C113069   5.974   5.806   6.094  0.0407 -0.0501 -0.0161
  902loPI    C213070   5.924   6.029   5.766  0.0942 -0.0472 -0.0224
  902loPI    C313071   5.715   5.691   5.812  0.0480 -0.0204 -0.0348
  902loPI   PO413072   5.953   5.919   6.306  0.2411  0.2323  0.1164
  902loPI   GL113073   5.756   5.852   6.713  0.1595 -0.0104 -0.2921
  902loPI   GL213074   5.832   6.154   6.714 -0.1151 -0.3757  0.0331
  902loPI   C1A13075   5.651   5.795   7.194 -0.0658  0.2545  0.1120
  902loPI   C2A13076   5.497   5.705   7.552 -0.0808 -0.1744  0.1799
  902loPI   C3A13077   5.639   5.772   7.928  0.0478  0.0308  0.3765
  902loPI   C4A13078   5.590   5.852   8.322  0.2747 -0.2838  0.0638
  902loPI   C5A13079   5.443   5.909   8.764 -0.0206 -0.0953  0.1400
  902loPI   C6A13080   5.549   6.106   8.992 -0.0416 -0.2490 -0.0239
  902loPI   C1B13081   5.902   6.235   7.043 -0.2366 -0.1246  0.1413
  902loPI   C2B13082   5.888   6.262   7.442  0.0201  0.0255 -0.1426
  902loPI   C3B13083   5.844   6.243   7.910 -0.0335  0.1301 -0.1083
  902loPI   C4B13084   5.887   6.343   8.452 -0.0035 -0.1904 -0.0921
  903loPI    C113085   6.509   4.848   6.131  0.1685 -0.1298 -0.0803
  903loPI    C213086   6.865   4.941   5.975  0.2470 -0.1978  0.0557
  903loPI    C313087   6.530   5.090   5.813  0.3384 -0.1090 -0.0539
  903loPI   PO413088   6.526   4.884   6.374 -0.2468 -0.3069  0.0608
  903loPI   GL113089   6.461   4.600   6.711  0.3811 -0.0439 -0.0460
  903loPI   GL213090   6.448   4.417   6.955 -0.2754  0.0160 -0.1596
  903loPI   C1A13091   6.679   4.826   7.029  0.1741  0.0466  0.2930
  903loPI   C2A13092   6.689   4.919   7.362 -0.0166 -0.0115 -0.2739
  903loPI   C3A13093   6.658   4.828   7.783  0.1525  0.0147 -0.0103
  903loPI   C4A13094   6.629   4.875   8.195 -0.0819  0.0605  0.1965
  903loPI   C5A13095   6.762   4.879   8.691 -0.3432  0.0441 -0.0890
  903loPI   C6A13096   6.988   5.049   9.070 -0.3241 -0.0527 -0.1110
  903loPI   C1B13097   6.419   4.474   7.339 -0.1654 -0.2768 -0.0866
  903loPI   C2B13098   6.468   4.389   7.743  0.1847 -0.1063  0.0447
  903loPI   C3B13099   6.429   4.377   8.194  0.1017 -0.0114  0.2427
  903loPI   C4B13100   6.352   4.652   8.526 -0.1811  0.0714 -0.3010
  904loPI    C113101   2.043   5.832   6.309 -0.0300 -0.0563 -0.2740
  904loPI    C213102   1.660   5.722   6.284  0.0338 -0.3969  0.1371
  904loPI    C313103   1.896   5.696   5.963 -0.2881 -0.1588 -0.1268
  904loPI   PO413104   2.092   5.665   6.562  0.2854 -0.4618 -0.3555
  904loPI   GL113105   2.307   5.780   7.005  0.0878 -0.1308  0.2229
  904loPI   GL213106   2.028   5.662   7.072  0.1413  0.0801 -0.1109
  904loPI   C1A13107   2.416   5.960   7.329 -0.0601 -0.0431  0.0310
  904loPI   C2A13108   2.462   5.860   7.742 -0.0677 -0.0907  0.0064
  904loPI   C3A13109   2.430   5.720   8.178  0.4264  0.1963  0.2100
  904loPI   C4A13110   2.498   5.692   8.603  0.1140 -0.3004  0.1344
  904loPI   C5A13111   2.285   5.943   8.954  0.0512 -0.2092  0.3835
  904loPI   C6A13112   2.138   6.207   9.347  0.3652 -0.0097 -0.0299
  904loPI   C1B13113   2.016   5.591   7.507 -0.2343  0.1748  0.0273
  904loPI   C2B13114   2.030   5.578   7.921 -0.0919  0.2828  0.0474
  904loPI   C3B13115   1.915   5.737   8.228  0.2309  0.0592  0.4687
  904loPI   C4B13116   1.989   5.602   8.676 -0.0957 -0.3281 -0.0485
  905loPI    C113117  10.549   4.021   5.958 -0.0572 -0.0038  0.0039
  905loPI    C213118  10.170   3.982   5.836 -0.0895  0.2534  0.0156
  905loPI    C313119  10.470   3.938   5.574 -0.1201 -0.0672  0.0306
  905loPI   PO413120  10.557   3.879   6.235  0.0258  0.0870  0.0023
  905loPI   GL113121  10.523   3.838   6.611  0.2312  0.3984 -0.0067
  905loPI   GL213122  10.344   4.017   6.726 -0.1429  0.0101 -0.2642
  905loPI   C1A13123  10.597   3.761   7.052 -0.1973 -0.1280 -0.0191
  905loPI   C2A13124  10.750   3.646   7.488  0.0911 -0.1622  0.0343
  905loPI   C3A13125  10.721   3.596   7.924 -0.0632 -0.2312  0.3854
  905loPI   C4A13126  10.621   3.662   8.234  0.1371  0.1731 -0.2198
  905loPI   C5A13127  10.334   3.720   8.598  0.1773  0.0109  0.0916
  905loPI   C6A13128  10.388   3.967   8.889 -0.0601 -0.1545 -0.0311
  905loPI   C1B13129  10.323   4.163   7.127 -0.0807  0.0068  0.1067
  905loPI   C2B13130  10.421   4.037   7.522 -0.0953  0.0717 -0.2130
  905loPI   C3B13131  10.392   3.994   7.973  0.1100 -0.0690 -0.0348
  905loPI   C4B13132  10.448   4.181   8.425 -0.3652 -0.0132  0.1874
  906loPI    C113133   7.936  13.653   6.066 -0.0216 -0.0453 -0.0081
  906loPI    C213134   7.554  13.761   6.020 -0.0569 -0.1429  0.0537
  906loPI    C313135   7.790  13.719   5.700 -0.0762 -0.0059  0.0206
  906loPI   PO413136   8.029  13.776   6.260 -0.0501 -0.1158 -0.1117
  906loPI   GL113137   7.939  13.750   6.624  0.1415 -0.1008  0.0203
  906loPI   GL213138   8.015  13.565   6.772 -0.2745  0.0449 -0.1758
  906loPI   C1A13139   8.057  14.047   6.967 -0.0902 -0.3893 -0.1260
  906loPI   C2A13140   8.176  14.077   7.399 -0.4907 -0.0557  0.0418
  906loPI   C3A13141   8.243  14.033   7.776  0.0944 -0.2466  0.0916
  906loPI   C4A13142   8.224  14.134   8.129 -0.1144  0.1341  0.4781
  906loPI   C5A13143   8.414  13.911   8.419 -0.0314  0.0959 -0.1639
  906loPI   C6A13144   8.498  13.687   8.864 -0.2240 -0.0070  0.2009
  906loPI   C1B13145   7.978  13.623   7.178  0.0593 -0.0817  0.0634
  906loPI   C2B13146   8.061  13.581   7.648  0.1154 -0.0531 -0.0299
  906loPI   C3B13147   7.959  13.629   8.143 -0.0492  0.2247 -0.0145
  906loPI   C4B13148   7.967  13.741   8.593  0.0710 -0.0456 -0.2718
  907loPI    C113149   7.129   9.757   5.758  0.0735 -0.1777 -0.3663
  907loPI    C213150   7.090  10.152   5.705 -0.1910 -0.1189  0.1907
  907loPI    C313151   7.067   9.904   5.391 -0.0084  0.3032 -0.1671
  907loPI   PO413152   6.965   9.700   6.035 -0.1945  0.1216 -0.2492
  907loPI   GL113153   6.919   9.713   6.352  0.1816 -0.0919  0.3363
  907loPI   GL213154   6.627   9.801   6.501 -0.0767  0.3075  0.1826
  907loPI   C1A13155   7.046   9.405   6.597  0.2564  0.1389  0.0592
  907loPI   C2A13156   7.110   9.324   7.013  0.0792  0.0473 -0.2325
  907loPI   C3A13157   7.085   9.411   7.475  0.0878 -0.3802  0.4462
  907loPI   C4A13158   7.231   9.410   7.902 -0.0744 -0.0641 -0.2020
  907loPI   C5A13159   7.272   9.432   8.426 -0.0310  0.3419 -0.0213
  907loPI   C6A13160   7.479   9.691   8.751 -0.0211 -0.4090  0.5950
  907loPI   C1B13161   6.841   9.736   6.933 -0.1485 -0.1841 -0.1553
  907loPI   C2B13162   6.786   9.778   7.249  0.0127 -0.2490 -0.2483
  907loPI   C3B13163   6.828   9.823   7.629  0.0766 -0.0823 -0.3704
  907loPI   C4B13164   6.835   9.790   8.076  0.0717  0.0459 -0.0976
  908loPI    C113165   3.441  12.312   6.253  0.1290 -0.2321 -0.1812
  908loPI    C213166   3.347  12.486   5.906 -0.0900  0.1130  0.0453
  908loPI    C313167   3.062  12.314   6.127  0.0738 -0.2479 -0.0176
  908loPI   PO413168   3.653  12.367   6.399 -0.0022 -0.2589  0.2116
  908loPI   GL113169   3.654  12.092   6.709 -0.1042 -0.1481 -0.1755
  908loPI   GL213170   3.341  12.073   6.978 -0.1825 -0.2240  0.1520
  908loPI   C1A13171   3.875  12.089   7.092  0.0762  0.1241 -0.2042
  908loPI   C2A13172   4.008  12.019   7.550  0.0440 -0.0441  0.1400
  908loPI   C3A13173   4.003  12.096   7.963 -0.1498  0.2586 -0.2884
  908loPI   C4A13174   3.931  12.062   8.511  0.1814  0.2518 -0.1630
  908loPI   C5A13175   4.208  12.228   8.849 -0.0890  0.0149 -0.2618
  908loPI   C6A13176   4.207  12.282   9.343 -0.1033  0.1584  0.0445
  908loPI   C1B13177   3.485  12.023   7.372  0.1060  0.2696  0.1868
  908loPI   C2B13178   3.497  12.007   7.787 -0.0078 -0.0953 -0.0968
  908loPI   C3B13179   3.515  12.068   8.198 -0.2102 -0.0675  0.3522
  908loPI   C4B13180   3.402  12.035   8.628  0.1937  0.2928 -0.0422
  909loPI    C113181   3.904   2.956   6.351 -0.0072  0.2881  0.1995
  909loPI    C213182   4.196   3.172   6.184  0.0497  0.0341 -0.0369
  909loPI    C313183   3.851   3.116   5.988 -0.0626  0.1226  0.1334
  909loPI   PO413184   3.914   3.002   6.593 -0.0534  0.2909 -0.1684
  909loPI   GL113185   3.837   3.218   6.915  0.3009 -0.0893  0.1635
  909loPI   GL213186   4.197   3.075   6.970  0.0970 -0.0261 -0.1039
  909loPI   C1A13187   3.830   3.466   7.301  0.1726 -0.3228  0.3372
  909loPI   C2A13188   3.763   3.459   7.721 -0.1778  0.1386  0.1999
  909loPI   C3A13189   3.865   3.495   8.066  0.3012 -0.0536  0.0618
  909loPI   C4A13190   3.833   3.435   8.426  0.1870 -0.2739 -0.1549
  909loPI   C5A13191   3.821   3.553   8.822 -0.3074  0.1781 -0.3298
  909loPI   C6A13192   3.971   3.351   9.279  0.1018  0.1582  0.0877
  909loPI   C1B13193   4.050   3.007   7.378 -0.3585  0.1869 -0.1272
  909loPI   C2B13194   4.122   3.083   7.802  0.3601 -0.1109  0.1707
  909loPI   C3B13195   4.123   3.038   8.286  0.4066 -0.0764  0.1132
  909loPI   C4B13196   4.127   3.144   8.730  0.1677 -0.0108  0.4821
  910loPI    C113197   9.502   7.608   5.802 -0.0225  0.1205 -0.0832
  910loPI    C213198   9.479   7.213   5.739 -0.0902  0.1232 -0.0767
  910loPI    C313199   9.810   7.414   5.637  0.0096  0.0368  0.0733
  910loPI   PO413200   9.375   7.580   6.116  0.1331  0.0552  0.0701
  910loPI   GL113201   9.320   7.811   6.431 -0.1947  0.0989 -0.2254
  910loPI   GL213202   9.090   8.020   6.449  0.0046 -0.1907  0.2656
  910loPI   C1A13203   9.191   7.650   6.795  0.0523 -0.0107  0.2156
  910loPI   C2A13204   9.168   7.657   7.257  0.1710 -0.1584 -0.1373
  910loPI   C3A13205   9.231   7.595   7.793 -0.2145  0.1975  0.0921
  910loPI   C4A13206   9.133   7.602   8.155  0.2029  0.0714 -0.1793
  910loPI   C5A13207   8.963   7.652   8.649 -0.2520 -0.0517 -0.1156
  910loPI   C6A13208   8.887   8.060   8.805 -0.0700 -0.2942  0.0242
  910loPI   C1B13209   8.997   8.134   6.782 -0.2514 -0.1430  0.2219
  910loPI   C2B13210   9.016   8.140   7.193  0.1668 -0.1062 -0.1960
  910loPI   C3B13211   8.919   7.965   7.611 -0.3297 -0.0918 -0.4539
  910loPI   C4B13212   8.892   7.990   8.005  0.0909  0.2169 -0.1806
  911loPI    C113213  15.769  16.127   6.188  0.0203 -0.1610 -0.1225
  911loPI    C213214  15.931  16.400   5.945  0.1824 -0.1397  0.0078
  911loPI    C313215  15.851  16.033   5.808  0.1947 -0.1023 -0.1006
  911loPI   PO413216  15.975  16.162   6.424 -0.3166  0.3458 -0.0257
  911loPI   GL113217  16.045  15.989   6.843 -0.1182  0.0124 -0.1877
  911loPI   GL213218  15.627  15.840   6.677 -0.1036  0.2719  0.0937
  911loPI   C1A13219  15.954  15.971   7.282  0.0327  0.0947  0.1166
  911loPI   C2A13220  15.902  15.892   7.789  0.0148 -0.0453  0.1456
  911loPI   C3A13221  15.828  15.917   8.148  0.2351 -0.0124  0.1178
  911loPI   C4A13222  15.637  15.931   8.540  0.1503 -0.0081  0.3242
  911loPI   C5A13223  15.901  16.094   8.836 -0.3093 -0.1659 -0.0736
  911loPI   C6A13224  15.983  16.534   9.031 -0.2648  0.1124 -0.0288
  911loPI   C1B13225  15.460  16.100   7.054 -0.0687  0.1332 -0.1365
  911loPI   C2B13226  15.507  16.172   7.380  0.0985  0.0972  0.2709
  911loPI   C3B13227  15.419  16.094   7.778  0.3182  0.0512  0.4342
  911loPI   C4B13228  15.352  15.820   8.141 -0.0063  0.0741 -0.0218
  912loPI    C113229  13.234   3.379   6.027 -0.0117  0.2167  0.2066
  912loPI    C213230  13.491   3.672   6.115  0.0450  0.2101  0.0654
  912loPI    C313231  13.495   3.506   5.752 -0.0627  0.1113  0.1090
  912loPI   PO413232  13.240   3.264   6.356  0.1456  0.2239 -0.0081
  912loPI   GL113233  13.101   3.387   6.810  0.1751 -0.0127 -0.2868
  912loPI   GL213234  12.921   3.429   6.832  0.0647 -0.0449 -0.4139
  912loPI   C1A13235  13.067   3.209   7.240 -0.4031 -0.0290  0.1569
  912loPI   C2A13236  13.074   3.225   7.757  0.0894  0.2019  0.1515
  912loPI   C3A13237  13.116   3.186   8.146 -0.0794 -0.0051 -0.1656
  912loPI   C4A13238  13.064   3.203   8.520  0.3058  0.1136 -0.0707
  912loPI   C5A13239  12.860   3.112   8.982 -0.1861  0.2740  0.0792
  912loPI   C6A13240  12.562   2.887   9.267  0.3994  0.3505 -0.3069
  912loPI   C1B13241  12.838   3.666   7.234  0.2144 -0.2390 -0.0145
  912loPI   C2B13242  12.740   3.584   7.648  0.0284 -0.0360  0.3704
  912loPI   C3B13243  12.745   3.602   8.003  0.0048 -0.0145 -0.3390
  912loPI   C4B13244  12.826   3.697   8.466 -0.1341  0.1486 -0.0530
  913loPI    C113245   2.119  13.941   6.417 -0.3931 -0.0592  0.0167
  913loPI    C213246   2.156  13.717   6.088 -0.0468  0.0921 -0.0518
  913loPI    C313247   2.402  14.027   6.148 -0.0143 -0.0162  0.4169
  913loPI   PO413248   2.106  13.792   6.592  0.2315 -0.0285 -0.0490
  913loPI   GL113249   2.325  13.889   7.003  0.1323 -0.1114 -0.0480
  913loPI   GL213250   2.650  13.800   7.063  0.1871 -0.2331  0.0219
  913loPI   C1A13251   2.157  13.723   7.246 -0.0981 -0.2031  0.1408
  913loPI   C2A13252   2.132  13.623   7.725 -0.0091  0.0816  0.1435
  913loPI   C3A13253   2.180  13.689   8.099  0.1121  0.0890 -0.0170
  913loPI   C4A13254   2.289  13.555   8.495  0.1889  0.0745 -0.0637
  913loPI   C5A13255   2.002  13.551   8.886 -0.1656 -0.0294  0.1825
  913loPI   C6A13256   1.656  13.599   9.207  0.0596  0.0794 -0.1653
  913loPI   C1B13257   2.574  13.794   7.532 -0.3688  0.2854 -0.1172
  913loPI   C2B13258   2.738  13.699   7.901  0.1955 -0.0932  0.2808
  913loPI   C3B13259   2.801  13.692   8.332 -0.1927 -0.0702  0.1633
  913loPI   C4B13260   2.766  13.775   8.743  0.1232  0.2320 -0.1162
  914loPI    C113261   6.519   7.719   5.808 -0.0188 -0.0187 -0.1405
  914loPI    C213262   6.343   7.925   5.514 -0.0367  0.0860 -0.0573
  914loPI    C313263   6.488   7.559   5.443 -0.3346 -0.0237 -0.1142
  914loPI   PO413264   6.383   7.636   6.008 -0.1114  0.0924 -0.1774
  914loPI   GL113265   6.446   7.675   6.399  0.1782 -0.3020  0.2339
  914loPI   GL213266   6.189   7.794   6.527  0.2521  0.5409  0.4097
  914loPI   C1A13267   6.603   7.553   6.813 -0.0664 -0.0960  0.2658
  914loPI   C2A13268   6.645   7.551   7.182 -0.1180 -0.2263  0.1896
  914loPI   C3A13269   6.594   7.615   7.557 -0.1268 -0.2056 -0.3082
  914loPI   C4A13270   6.574   7.613   7.993  0.0105 -0.0379  0.2325
  914loPI   C5A13271   6.688   7.633   8.529 -0.0854 -0.0666  0.1148
  914loPI   C6A13272   6.733   8.037   8.722  0.1217  0.5508  0.1495
  914loPI   C1B13273   6.291   7.994   6.883  0.1452  0.2476 -0.3545
  914loPI   C2B13274   6.190   7.988   7.233 -0.1458  0.0614 -0.0636
  914loPI   C3B13275   6.306   8.074   7.517 -0.2322 -0.0227  0.2673
  914loPI   C4B13276   6.304   8.040   7.882  0.1394 -0.0862 -0.0660
  915loPI    C113277   7.147   8.538   5.843 -0.0993  0.1982 -0.0371
  915loPI    C213278   7.469   8.397   5.653 -0.1009  0.1148  0.0214
  915loPI    C313279   7.108   8.363   5.485 -0.1041  0.0285  0.0452
  915loPI   PO413280   7.362   8.710   6.035  0.3761  0.0855 -0.2075
  915loPI   GL113281   7.404   8.702   6.459 -0.1142 -0.1334  0.1156
  915loPI   GL213282   7.465   8.362   6.628  0.2552  0.1906 -0.3232
  915loPI   C1A13283   7.395   8.962   6.766 -0.2191 -0.2472 -0.0355
  915loPI   C2A13284   7.341   8.936   7.188 -0.0564 -0.2165 -0.1565
  915loPI   C3A13285   7.366   9.016   7.611 -0.0446 -0.2571  0.2547
  915loPI   C4A13286   7.401   8.920   8.119  0.1878 -0.1184  0.2502
  915loPI   C5A13287   7.611   8.694   8.395  0.0060 -0.0484 -0.0491
  915loPI   C6A13288   8.010   8.803   8.575  0.0006 -0.0287  0.0769
  915loPI   C1B13289   7.314   8.466   7.031 -0.3386  0.1859  0.2133
  915loPI   C2B13290   7.333   8.499   7.428  0.3416  0.1172 -0.1736
  915loPI   C3B13291   7.124   8.535   7.799 -0.0993 -0.2887 -0.2622
  915loPI   C4B13292   7.189   8.501   8.245 -0.2271 -0.0625 -0.0978
  916loPI    C113293   4.342  13.620   5.904  0.2552 -0.2291  0.1377
  916loPI    C213294   4.720  13.611   5.771  0.1309  0.0969 -0.2566
  916loPI    C313295   4.425  13.460   5.546 -0.0085  0.0907 -0.0720
  916loPI   PO413296   4.361  13.550   6.143  0.1151 -0.0227 -0.3234
  916loPI   GL113297   4.322  13.636   6.621  0.0314 -0.0691  0.3223
  916loPI   GL213298   4.249  13.930   6.582  0.3759  0.3271  0.3007
  916loPI   C1A13299   4.505  13.461   7.012  0.0075  0.0200 -0.1386
  916loPI   C2A13300   4.636  13.433   7.458  0.0805 -0.3300  0.1854
  916loPI   C3A13301   4.698  13.416   7.928 -0.0346 -0.3556  0.1328
  916loPI   C4A13302   4.594  13.515   8.403 -0.1149 -0.1123 -0.2329
  916loPI   C5A13303   4.406  13.671   8.763 -0.0208 -0.1157  0.1170
  916loPI   C6A13304   4.069  13.866   9.042  0.0073  0.1846 -0.2518
  916loPI   C1B13305   4.202  14.093   6.960  0.1739  0.4165  0.0386
  916loPI   C2B13306   4.237  14.147   7.368  0.1170  0.1407 -0.0083
  916loPI   C3B13307   4.236  14.010   7.759 -0.0090 -0.2532  0.1323
  916loPI   C4B13308   4.407  13.879   8.126 -0.0542 -0.0185  0.1566
  917loPI    C113309  10.426   7.419   6.068  0.1210  0.1525 -0.0032
  917loPI    C213310  10.371   7.591   5.711 -0.0176  0.1423  0.0124
  917loPI    C313311  10.253   7.213   5.772  0.1041  0.1077  0.0376
  917loPI   PO413312  10.345   7.592   6.254 -0.3270  0.1418 -0.0685
  917loPI   GL113313  10.495   7.670   6.628 -0.1519 -0.1831 -0.0018
  917loPI   GL213314  10.673   7.929   6.638 -0.3513  0.0117  0.0245
  917loPI   C1A13315  10.403   7.643   7.073 -0.1674 -0.1860  0.0317
  917loPI   C2A13316  10.296   7.657   7.537  0.2685  0.1691 -0.1035
  917loPI   C3A13317  10.242   7.555   7.881  0.1624 -0.3722 -0.0050
  917loPI   C4A13318  10.271   7.446   8.330 -0.0389  0.1395 -0.1372
  917loPI   C5A13319  10.093   7.727   8.709 -0.0165 -0.0371 -0.0242
  917loPI   C6A13320  10.352   7.791   9.040  0.0475 -0.4609 -0.1799
  917loPI   C1B13321  10.559   8.149   6.922  0.1813 -0.0243 -0.1745
  917loPI   C2B13322  10.521   8.072   7.342 -0.1505  0.2217  0.3932
  917loPI   C3B13323  10.456   8.124   7.765 -0.2041 -0.1834  0.1220
  917loPI   C4B13324  10.368   7.998   8.225  0.0526  0.2648 -0.2620
  918loPI    C113325  10.301   2.855   6.341  0.0126  0.0631 -0.0676
  918loPI    C213326   9.996   3.113   6.331 -0.0893 -0.0593 -0.1454
  918loPI    C313327  10.217   3.051   6.003 -0.1287 -0.1459 -0.1559
  918loPI   PO413328  10.395   2.860   6.528  0.1605 -0.0191 -0.1242
  918loPI   GL113329  10.342   3.026   6.937  0.2549  0.2123 -0.2485
  918loPI   GL213330  10.585   3.283   6.903  0.0604  0.1068  0.2224
  918loPI   C1A13331  10.292   2.843   7.398 -0.0857 -0.1199 -0.0656
  918loPI   C2A13332  10.232   2.678   7.807  0.0725  0.3551  0.1780
  918loPI   C3A13333  10.122   2.651   8.322  0.1673  0.0255  0.1005
  918loPI   C4A13334  10.190   2.782   8.732  0.1789 -0.1383 -0.3359
  918loPI   C5A13335  10.697   2.717   8.932  0.2698 -0.1743  0.2758
  918loPI   C6A13336  11.176   2.688   8.872  0.0147 -0.0986  0.1169
  918loPI   C1B13337  10.494   3.287   7.288 -0.0462  0.1820  0.1603
  918loPI   C2B13338  10.598   3.170   7.676  0.2835  0.0404  0.1320
  918loPI   C3B13339  10.460   3.130   8.128 -0.0163 -0.0422 -0.0694
  918loPI   C4B13340  10.493   3.254   8.522  0.1396 -0.1581  0.0411
  919loPI    C113341  13.194   4.751   5.971 -0.1347 -0.1684 -0.1095
  919loPI    C213342  13.406   4.977   5.719 -0.0421  0.0094  0.1241
  919loPI    C313343  13.452   4.580   5.718  0.0335  0.0174 -0.0657
  919loPI   PO413344  13.285   4.834   6.263  0.0699 -0.1081 -0.0707
  919loPI   GL113345  13.100   4.945   6.693  0.2144  0.0027 -0.2018
  919loPI   GL213346  13.304   4.638   6.740 -0.1090  0.1890 -0.2103
  919loPI   C1A13347  13.091   5.012   7.167  0.1290 -0.0426 -0.0369
  919loPI   C2A13348  13.083   5.071   7.515 -0.1271 -0.2340  0.1887
  919loPI   C3A13349  13.022   5.138   7.919 -0.1922 -0.1874  0.0859
  919loPI   C4A13350  12.875   5.094   8.284  0.0332  0.1485 -0.0152
  919loPI   C5A13351  12.755   4.828   8.742 -0.0976 -0.1381  0.0524
  919loPI   C6A13352  12.394   4.522   8.919 -0.2319 -0.0161  0.1299
  919loPI   C1B13353  13.459   4.550   7.205  0.0250  0.1073  0.2135
  919loPI   C2B13354  13.382   4.457   7.579  0.2456 -0.3429 -0.0343
  919loPI   C3B13355  13.328   4.548   8.050 -0.0599  0.1678  0.1628
  919loPI   C4B13356  13.112   4.538   8.495  0.1270 -0.1717  0.1993
  920loPI    C113357   7.053  14.230   5.942  0.1439 -0.0851 -0.1632
  920loPI    C213358   6.897  14.232   5.574 -0.0295  0.0347 -0.0904
  920loPI    C313359   7.247  14.414   5.644 -0.0308  0.0730 -0.1810
  920loPI   PO413360   6.813  14.216   6.097 -0.0179 -0.2435 -0.2151
  920loPI   GL113361   6.850  13.951   6.492 -0.7179  0.0844 -0.2334
  920loPI   GL213362   6.641  14.096   6.606  0.0863 -0.1293  0.2195
  920loPI   C1A13363   7.098  13.991   6.881 -0.1636 -0.1309  0.3766
  920loPI   C2A13364   7.196  13.907   7.313  0.4404 -0.2098 -0.1566
  920loPI   C3A13365   7.236  13.927   7.699 -0.1822  0.2010 -0.0591
  920loPI   C4A13366   7.188  13.912   8.118  0.1865  0.0137 -0.0234
  920loPI   C5A13367   7.343  13.952   8.575  0.0477 -0.3824  0.0962
  920loPI   C6A13368   7.150  13.783   8.913  0.2924  0.1551 -0.0014
  920loPI   C1B13369   6.548  13.851   6.968 -0.5359 -0.0907 -0.0393
  920loPI   C2B13370   6.746  13.879   7.449  0.1544 -0.1237  0.1589
  920loPI   C3B13371   6.640  13.898   7.830 -0.0417 -0.2268  0.3339
  920loPI   C4B13372   6.718  13.801   8.295  0.0501 -0.2233 -0.0364
  921loPI    C113373  12.487   9.129   6.094 -0.1439 -0.3500 -0.1418
  921loPI    C213374  12.149   9.246   5.916  0.0404  0.0856 -0.2181
  921loPI    C313375  12.497   9.272   5.721  0.2033  0.2656  0.0873
  921loPI   PO413376  12.400   9.224   6.362 -0.1389  0.3451  0.0004
  921loPI   GL113377  12.266   9.491   6.699 -0.1458 -0.0629  0.0785
  921loPI   GL213378  11.924   9.331   6.623  0.0485  0.1759 -0.1352
  921loPI   C1A13379  12.301   9.646   7.070  0.1469  0.1248  0.0212
  921loPI   C2A13380  12.238   9.630   7.423  0.0326 -0.1602  0.1350
  921loPI   C3A13381  12.215   9.496   7.910  0.2580 -0.1529 -0.3265
  921loPI   C4A13382  12.318   9.456   8.316 -0.0755  0.2415  0.0740
  921loPI   C5A13383  12.571   9.572   8.651  0.0797 -0.0349 -0.1582
  921loPI   C6A13384  12.957   9.720   8.942 -0.1069 -0.3352  0.3279
  921loPI   C1B13385  12.083   9.225   7.120  0.2908  0.0307 -0.2184
  921loPI   C2B13386  12.051   9.051   7.511 -0.0684 -0.1650  0.2385
  921loPI   C3B13387  12.021   8.996   7.973  0.2788 -0.1205 -0.0139
  921loPI   C4B13388  12.016   9.056   8.350  0.0436 -0.2046 -0.1381
  922loPI    C113389   2.194   1.244   6.333 -0.1313 -0.2667  0.1404
  922loPI    C213390   2.049   0.923   6.142 -0.1715 -0.1656 -0.0002
  922loPI    C313391   2.444   0.982   6.164 -0.1623 -0.2525  0.0723
  922loPI   PO413392   2.062   1.226   6.563 -0.1364  0.3755 -0.2457
  922loPI   GL113393   2.246   1.023   6.957 -0.0731 -0.2065  0.1709
  922loPI   GL213394   1.984   1.185   7.071 -0.1600 -0.2427 -0.2265
  922loPI   C1A13395   2.454   1.230   7.245 -0.0359  0.2443 -0.0305
  922loPI   C2A13396   2.469   0.993   7.693  0.0252 -0.1204  0.1617
  922loPI   C3A13397   2.649   1.083   8.119  0.1557  0.1659  0.3532
  922loPI   C4A13398   2.649   1.125   8.518  0.0157  0.2648 -0.2694
  922loPI   C5A13399   2.571   1.175   8.892 -0.1532 -0.2735  0.2018
  922loPI   C6A13400   2.386   0.909   9.239 -0.1432 -0.0286  0.0162
  922loPI   C1B13401   2.014   1.162   7.485  0.0343 -0.2597  0.1654
  922loPI   C2B13402   2.107   1.040   7.973 -0.1000 -0.1663 -0.0941
  922loPI   C3B13403   2.134   1.101   8.464 -0.1868 -0.1512  0.0774
  922loPI   C4B13404   2.069   1.061   8.841  0.0772 -0.0069 -0.1475
  923loPI    C113405   0.867   9.271   6.054 -0.0476 -0.1223  0.2677
  923loPI    C213406   0.630   9.516   5.844  0.0742  0.0667  0.3480
  923loPI    C313407   0.749   9.168   5.686  0.0553  0.1458  0.1577
  923loPI   PO413408   0.909   9.419   6.382 -0.2919  0.1648  0.0185
  923loPI   GL113409   0.700   9.410   6.789 -0.0377 -0.0663  0.3500
  923loPI   GL213410   0.922   9.192   6.884  0.0191  0.1813 -0.0719
  923loPI   C1A13411   0.572   9.722   7.054 -0.2855  0.1800  0.0831
  923loPI   C2A13412   0.487   9.736   7.579  0.0291  0.1426  0.1191
  923loPI   C3A13413   0.600   9.700   8.081  0.0563  0.0608  0.0075
  923loPI   C4A13414   0.352   9.663   8.470  0.2530 -0.1979 -0.1411
  923loPI   C5A13415   0.057   9.957   8.746 -0.4531  0.0673  0.0454
  923loPI   C6A13416  -0.227   9.797   9.027 -0.1433 -0.2092 -0.0869
  923loPI   C1B13417   0.824   9.334   7.320 -0.0944  0.0085  0.2855
  923loPI   C2B13418   0.784   9.288   7.752  0.2933  0.0334 -0.2448
  923loPI   C3B13419   0.802   9.227   8.175 -0.0509 -0.1891 -0.3351
  923loPI   C4B13420   0.758   9.259   8.680  0.1509 -0.1667 -0.3058
  924loPI    C113421   9.234  15.745   5.786  0.0750  0.0208  0.1398
  924loPI    C213422   8.973  15.551   5.553  0.1220 -0.0164  0.1179
  924loPI    C313423   9.174  15.865   5.410  0.2133 -0.0908  0.0812
  924loPI   PO413424   9.294  15.594   5.952  0.3573  0.0315  0.1284
  924loPI   GL113425   9.338  15.647   6.367 -0.3451  0.1468  0.1424
  924loPI   GL213426   9.089  15.693   6.468 -0.0806 -0.2001  0.0974
  924loPI   C1A13427   9.642  15.850   6.701  0.0639  0.3606  0.0493
  924loPI   C2A13428   9.823  15.762   7.117 -0.2483 -0.0383 -0.0062
  924loPI   C3A13429   9.879  15.631   7.550  0.2046  0.1558  0.0013
  924loPI   C4A13430   9.890  15.480   7.944 -0.0821 -0.1302  0.0261
  924loPI   C5A13431   9.957  15.390   8.404 -0.0531 -0.0084 -0.0066
  924loPI   C6A13432   9.874  15.471   8.813  0.2536  0.0395 -0.0533
  924loPI   C1B13433   9.234  15.517   6.916 -0.3650  0.1393  0.1345
  924loPI   C2B13434   9.374  15.611   7.371  0.1951  0.0047  0.1207
  924loPI   C3B13435   9.376  15.463   7.711  0.0268 -0.0136 -0.1438
  924loPI   C4B13436   9.312  15.429   8.136 -0.0960  0.3087  0.1360
  925loPI    C113437   2.708  16.901   6.204  0.2196 -0.2299 -0.1578
  925loPI    C213438   2.912  16.946   5.863  0.0287  0.2237 -0.2193
  925loPI    C313439   2.626  17.208   5.961 -0.0572 -0.0159  0.1955
  925loPI   PO413440   2.872  16.904   6.409 -0.0410 -0.0182  0.0329
  925loPI   GL113441   2.785  17.128   6.792  0.1495 -0.0524  0.1728
  925loPI   GL213442   2.942  17.416   6.899 -0.0885  0.2233 -0.3312
  925loPI   C1A13443   2.988  16.940   7.225  0.1881 -0.0692 -0.1874
  925loPI   C2A13444   3.037  16.978   7.665  0.1802 -0.0754  0.0622
  925loPI   C3A13445   3.005  16.910   8.205  0.2173  0.1858  0.3034
  925loPI   C4A13446   2.826  17.027   8.612  0.0666  0.1880  0.0140
  925loPI   C5A13447   2.401  16.945   8.796  0.0415  0.0800  0.0321
  925loPI   C6A13448   1.966  16.870   9.068 -0.0542 -0.0320  0.2586
  925loPI   C1B13449   2.730  17.332   7.276 -0.1591  0.1045 -0.0305
  925loPI   C2B13450   2.716  17.346   7.771  0.0607 -0.0102 -0.4167
  925loPI   C3B13451   2.706  17.405   8.214  0.0316  0.0844 -0.3872
  925loPI   C4B13452   2.485  17.413   8.593 -0.1460 -0.0522 -0.0816
  926loPI    C113453   7.704  13.267   5.939 -0.1932 -0.1448  0.0838
  926loPI    C213454   7.533  13.040   5.658  0.0385  0.0013 -0.1812
  926loPI    C313455   7.316  13.311   5.855 -0.0876  0.0235 -0.3479
  926loPI   PO413456   7.819  13.115   6.109  0.2720 -0.0925 -0.1782
  926loPI   GL113457   8.100  13.252   6.438 -0.1680  0.0116 -0.0820
  926loPI   GL213458   7.867  13.039   6.569 -0.1505 -0.2467  0.0131
  926loPI   C1A13459   8.329  13.150   6.803  0.1375 -0.4278 -0.1928
  926loPI   C2A13460   8.286  13.167   7.254  0.2707 -0.2035  0.0933
  926loPI   C3A13461   8.322  13.100   7.656 -0.3741  0.0856  0.0634
  926loPI   C4A13462   8.377  13.162   8.071  0.1151  0.1161  0.1985
  926loPI   C5A13463   8.401  13.391   8.456  0.1537  0.1656 -0.0160
  926loPI   C6A13464   8.275  13.165   8.845  0.0717 -0.3185  0.1253
  926loPI   C1B13465   7.829  13.086   6.947  0.2074  0.1530  0.1060
  926loPI   C2B13466   7.791  13.203   7.370  0.0667  0.1231 -0.1821
  926loPI   C3B13467   7.774  13.154   7.867  0.1504  0.1583 -0.1565
  926loPI   C4B13468   7.920  13.163   8.317  0.1303 -0.0479  0.0647
  927loPI    C113469   8.895   9.495   5.759  0.1011 -0.0808 -0.0162
  927loPI    C213470   8.796   9.820   5.548 -0.0257 -0.0708  0.0578
  927loPI    C313471   9.017   9.532   5.379  0.0827  0.0507 -0.0096
  927loPI   PO413472   8.932   9.635   5.998 -0.0174  0.2617 -0.4647
  927loPI   GL113473   8.745   9.624   6.415 -0.0913  0.1633  0.0504
  927loPI   GL213474   9.072   9.400   6.436 -0.1072 -0.0694  0.0011
  927loPI   C1A13475   8.846   9.900   6.804  0.1445  0.0660  0.0360
  927loPI   C2A13476   8.952   9.958   7.194  0.1624  0.0397  0.0280
  927loPI   C3A13477   8.889   9.809   7.605  0.2988  0.0630  0.0766
  927loPI   C4A13478   8.833  10.106   7.974 -0.1490  0.2283 -0.2479
  927loPI   C5A13479   8.576  10.383   8.302 -0.1852  0.0633  0.1044
  927loPI   C6A13480   8.254  10.542   8.512 -0.2783 -0.1138 -0.2185
  927loPI   C1B13481   9.230   9.457   6.829  0.0899 -0.1787 -0.3820
  927loPI   C2B13482   9.215   9.421   7.344 -0.2686  0.2798  0.2530
  927loPI   C3B13483   9.363   9.381   7.746 -0.2232  0.0019  0.0087
  927loPI   C4B13484   9.283   9.417   8.125 -0.0679  0.1335  0.3184
  928loPI    C113485   3.405  10.900   5.965 -0.1327 -0.2528  0.0401
  928loPI    C213486   3.347  10.651   5.657 -0.3044 -0.1734  0.0074
  928loPI    C313487   3.376  11.045   5.593  0.1095 -0.1943  0.0424
  928loPI   PO413488   3.236  10.854   6.120  0.1886 -0.0940 -0.0180
  928loPI   GL113489   3.133  10.816   6.543 -0.0135 -0.0311 -0.1469
  928loPI   GL213490   3.390  10.647   6.578  0.1330 -0.0263 -0.1916
  928loPI   C1A13491   3.032  10.791   7.047 -0.0648  0.1202 -0.0808
  928loPI   C2A13492   3.136  10.757   7.539 -0.1485  0.3091 -0.1960
  928loPI   C3A13493   3.183  10.794   8.011 -0.3418 -0.2272  0.2434
  928loPI   C4A13494   3.304  10.786   8.473  0.0191  0.3434 -0.0209
  928loPI   C5A13495   3.638  10.609   8.732 -0.0402  0.0824  0.1472
  928loPI   C6A13496   3.703  10.184   8.735  0.1235 -0.0143 -0.0243
  928loPI   C1B13497   3.610  10.684   7.104  0.6537  0.0652 -0.1793
  928loPI   C2B13498   3.624  10.686   7.530  0.1960  0.1740  0.0311
  928loPI   C3B13499   3.757  10.751   7.990  0.0910  0.0091  0.0816
  928loPI   C4B13500   3.928  10.814   8.316  0.0663  0.2638  0.0717
  929loPI    C113501   8.438  15.419   6.141 -0.0950  0.1557  0.0542
  929loPI    C213502   8.516  15.637   5.815  0.0253  0.0942  0.0411
  929loPI    C313503   8.807  15.558   6.077  0.0505 -0.2836 -0.0960
  929loPI   PO413504   8.253  15.489   6.230  0.0744  0.1990  0.0294
  929loPI   GL113505   8.223  15.577   6.603  0.2082 -0.2500 -0.0507
  929loPI   GL213506   8.043  15.818   6.782  0.3382 -0.0906 -0.0300
  929loPI   C1A13507   8.295  15.405   6.903  0.0271  0.2228  0.0870
  929loPI   C2A13508   8.335  15.356   7.311  0.2295 -0.1894 -0.1734
  929loPI   C3A13509   8.353  15.398   7.685  0.0823 -0.1251 -0.0474
  929loPI   C4A13510   8.307  15.390   8.062 -0.1156  0.0979 -0.0404
  929loPI   C5A13511   8.293  15.362   8.528 -0.0006 -0.1814 -0.1304
  929loPI   C6A13512   8.484  15.860   8.629 -0.2790  0.3961 -0.1328
  929loPI   C1B13513   7.967  15.793   7.187 -0.2938 -0.1178  0.2313
  929loPI   C2B13514   8.084  15.819   7.534 -0.3294 -0.0135 -0.2795
  929loPI   C3B13515   7.946  15.857   7.925 -0.0174  0.0477 -0.0153
  929loPI   C4B13516   8.076  15.756   8.278 -0.3921  0.3138 -0.1065
  930loPI    C113517   1.668  10.127   6.146 -0.0855  0.1813 -0.0833
  930loPI    C213518   2.041  10.234   6.244 -0.1362  0.1282  0.1730
  930loPI    C313519   1.980   9.974   5.947  0.0415 -0.0030  0.2496
  930loPI   PO413520   1.586  10.190   6.432  0.0357 -0.0703  0.1995
  930loPI   GL113521   1.351  10.288   6.855  0.0297 -0.1326  0.2105
  930loPI   GL213522   1.442   9.948   6.825  0.0136  0.1116 -0.1010
  930loPI   C1A13523   1.208  10.299   7.267 -0.1076 -0.0490  0.0322
  930loPI   C2A13524   1.262  10.344   7.638  0.1824 -0.0554 -0.0388
  930loPI   C3A13525   1.354  10.255   8.088  0.1064 -0.1394  0.2222
  930loPI   C4A13526   1.361  10.167   8.530 -0.1683  0.0693  0.0334
  930loPI   C5A13527   1.233   9.869   8.856  0.4721 -0.1316  0.0165
  930loPI   C6A13528   1.273   9.447   8.971  0.2780 -0.1696  0.2395
  930loPI   C1B13529   1.525   9.912   7.318  0.3171 -0.2146  0.2072
  930loPI   C2B13530   1.537   9.852   7.768  0.2511 -0.1837 -0.0151
  930loPI   C3B13531   1.501   9.741   8.239  0.1765  0.2983 -0.1105
  930loPI   C4B13532   1.647   9.641   8.626  0.5179  0.2367 -0.3146
  931loPI    C113533   2.657  11.049   6.562 -0.0342  0.0249 -0.0513
  931loPI    C213534   2.583  11.187   6.194  0.0217 -0.2430 -0.1657
  931loPI    C313535   2.760  10.832   6.242  0.1321 -0.1523  0.1197
  931loPI   PO413536   2.765  11.371   6.685 -0.1962 -0.0189 -0.0133
  931loPI   GL113537   2.717  11.761   6.860  0.2391  0.0696  0.3064
  931loPI   GL213538   2.758  12.071   6.997  0.1021 -0.5860  0.0875
  931loPI   C1A13539   2.574  11.687   7.265  0.0651 -0.3717 -0.1284
  931loPI   C2A13540   2.514  11.762   7.707  0.0025 -0.2625 -0.0548
  931loPI   C3A13541   2.422  11.686   8.172 -0.2538  0.3027  0.0118
  931loPI   C4A13542   2.254  11.564   8.530  0.0824 -0.0903  0.0283
  931loPI   C5A13543   2.219  11.474   8.921  0.0389 -0.1223  0.3435
  931loPI   C6A13544   2.276  11.212   9.253 -0.1869  0.0798 -0.0178
  931loPI   C1B13545   2.941  12.004   7.454  0.4065 -0.2191  0.2265
  931loPI   C2B13546   2.938  11.939   7.831 -0.0903  0.2139  0.0022
  931loPI   C3B13547   2.931  11.774   8.204 -0.0019  0.3433 -0.0868
  931loPI   C4B13548   2.737  11.562   8.510  0.0088 -0.0077 -0.1364
  932loPI    C113549  16.431  13.760   6.160  0.0783 -0.0091  0.1101
  932loPI    C213550  16.451  14.136   6.023 -0.0348 -0.0837 -0.1164
  932loPI    C313551  16.552  13.830   5.785 -0.0359 -0.2036  0.0354
  932loPI   PO413552  16.545  13.771   6.309  0.1388 -0.0037  0.2799
  932loPI   GL113553  16.314  13.682   6.707 -0.0868  0.2633  0.0594
  932loPI   GL213554  16.186  13.372   6.802 -0.2133 -0.2421  0.1001
  932loPI   C1A13555  16.384  13.770   7.160 -0.1877  0.0982 -0.1325
  932loPI   C2A13556  16.493  13.692   7.702  0.2770 -0.1323  0.1017
  932loPI   C3A13557  16.502  13.692   8.174  0.1879 -0.3537 -0.0291
  932loPI   C4A13558  16.514  13.632   8.622  0.0715 -0.2007 -0.2713
  932loPI   C5A13559  16.539  13.379   8.924 -0.2110  0.1010  0.0734
  932loPI   C6A13560  16.566  12.981   9.154  0.2128 -0.1997 -0.0291
  932loPI   C1B13561  16.236  13.244   7.172 -0.1584  0.1765 -0.0087
  932loPI   C2B13562  16.294  13.247   7.609  0.2886 -0.1845 -0.0154
  932loPI   C3B13563  16.266  13.227   8.061 -0.3654 -0.0705 -0.2893
  932loPI   C4B13564  16.252  13.211   8.473 -0.1694  0.2279 -0.2621
  933loPI    C113565  10.963  12.792   5.988 -0.1295  0.1785 -0.1949
  933loPI    C213566  10.778  12.785   5.633 -0.0450 -0.2705 -0.2362
  933loPI    C313567  11.165  12.885   5.656 -0.1369  0.0983 -0.2219
  933loPI   PO413568  10.785  12.923   6.165 -0.2071  0.0595  0.0689
  933loPI   GL113569  10.382  12.933   6.351  0.0493 -0.2248 -0.0151
  933loPI   GL213570  10.588  12.942   6.606 -0.0300  0.3101 -0.1173
  933loPI   C1A13571  10.248  13.273   6.627 -0.0578  0.1550  0.2601
  933loPI   C2A13572  10.286  13.268   7.048  0.0253  0.0171 -0.0518
  933loPI   C3A13573  10.416  13.351   7.441 -0.1695  0.0258 -0.0697
  933loPI   C4A13574  10.497  13.330   7.873 -0.1703 -0.0580  0.2010
  933loPI   C5A13575  10.425  13.305   8.347  0.2646  0.1971 -0.2152
  933loPI   C6A13576  10.380  13.244   8.758 -0.0187  0.0507 -0.1099
  933loPI   C1B13577  10.565  12.870   7.045  0.2948 -0.2480  0.0888
  933loPI   C2B13578  10.683  12.981   7.541 -0.1731  0.1478  0.3070
  933loPI   C3B13579  10.779  12.934   7.820 -0.0411 -0.0548  0.0382
  933loPI   C4B13580  10.755  12.960   8.239  0.1730  0.0193  0.1159
  934loPI    C113581   5.733   6.443   6.149  0.1243 -0.0475  0.0544
  934loPI    C213582   5.513   6.139   6.286 -0.0130  0.0504  0.0536
  934loPI    C313583   5.537   6.207   5.893  0.2455 -0.1288  0.0359
  934loPI   PO413584   5.607   6.699   6.270 -0.1766  0.2121 -0.1923
  934loPI   GL113585   5.562   6.846   6.632  0.0100  0.1583 -0.1104
  934loPI   GL213586   5.582   6.629   6.827 -0.1329 -0.1778  0.2671
  934loPI   C1A13587   5.784   7.089   6.862 -0.1829 -0.1427  0.1869
  934loPI   C2A13588   5.812   7.041   7.409  0.1827 -0.0361 -0.2374
  934loPI   C3A13589   5.791   7.133   7.841  0.0984 -0.2629 -0.1091
  934loPI   C4A13590   5.810   7.204   8.276 -0.0829 -0.1244  0.2020
  934loPI   C5A13591   5.770   7.246   8.717  0.2331  0.1291 -0.0991
  934loPI   C6A13592   5.596   7.055   8.999 -0.0584 -0.1995 -0.0441
  934loPI   C1B13593   5.606   6.618   7.269  0.0636 -0.0570  0.1209
  934loPI   C2B13594   5.565   6.625   7.741  0.0758  0.1298 -0.0332
  934loPI   C3B13595   5.413   6.662   8.167  0.2339 -0.2009 -0.1087
  934loPI   C4B13596   5.642   6.786   8.575  0.5039 -0.0600  0.0895
  935loPI    C113597   1.315  13.516   6.183  0.2372  0.1186  0.0671
  935loPI    C213598   1.514  13.184   6.081 -0.1457 -0.0928 -0.0087
  935loPI    C313599   1.603  13.532   5.905  0.0802 -0.2050 -0.1199
  935loPI   PO413600   1.295  13.469   6.419 -0.1078 -0.4198  0.1590
  935loPI   GL113601   1.037  13.715   6.693 -0.2268 -0.1929 -0.0160
  935loPI   GL213602   0.739  13.773   6.694  0.0728 -0.0660  0.1386
  935loPI   C1A13603   1.095  13.730   7.048 -0.1756  0.0859  0.0663
  935loPI   C2A13604   1.082  13.676   7.405  0.1110 -0.0535  0.1783
  935loPI   C3A13605   1.099  13.502   7.801 -0.0263  0.3104 -0.0240
  935loPI   C4A13606   1.233  13.512   8.191 -0.1518  0.0697  0.1363
  935loPI   C5A13607   1.273  13.656   8.640 -0.3677  0.3965  0.1378
  935loPI   C6A13608   1.130  13.852   8.963 -0.1426  0.0664  0.0593
  935loPI   C1B13609   0.670  14.014   7.146  0.0411 -0.0568 -0.2362
  935loPI   C2B13610   0.739  14.028   7.595 -0.2984 -0.3113 -0.1545
  935loPI   C3B13611   0.806  13.886   7.977  0.2551 -0.0501 -0.0401
  935loPI   C4B13612   0.858  13.879   8.465 -0.1313 -0.2470  0.0201
  936loPI    C113613   3.213   7.020   6.437 -0.1654 -0.1109 -0.1567
  936loPI    C213614   2.852   6.873   6.524 -0.1309 -0.0541  0.0879
  936loPI    C313615   3.002   7.176   6.738  0.0535 -0.0639 -0.0255
  936loPI   PO413616   3.344   6.796   6.392 -0.1822  0.0056  0.0891
  936loPI   GL113617   3.353   6.739   6.886 -0.0374 -0.3656  0.2299
  936loPI   GL213618   2.992   6.773   7.025 -0.0454  0.1615  0.1706
  936loPI   C1A13619   3.497   6.733   7.245  0.2109 -0.0352 -0.0487
  936loPI   C2A13620   3.561   6.678   7.624  0.1021  0.1250  0.1224
  936loPI   C3A13621   3.485   6.604   8.106  0.0705 -0.0231  0.0239
  936loPI   C4A13622   3.364   6.529   8.566  0.1234 -0.1314  0.2065
  936loPI   C5A13623   3.233   6.370   8.982  0.1640  0.0557  0.1118
  936loPI   C6A13624   3.100   6.175   9.349  0.2181  0.0391 -0.1212
  936loPI   C1B13625   3.043   6.700   7.437  0.1399 -0.0765 -0.1410
  936loPI   C2B13626   3.007   6.665   7.872 -0.0501 -0.2119  0.2179
  936loPI   C3B13627   2.937   6.608   8.332  0.1708  0.2209  0.1368
  936loPI   C4B13628   2.876   6.620   8.744  0.0623  0.2684 -0.1002
  937loPI    C113629  14.039   5.534   6.286 -0.0096 -0.0003 -0.3076
  937loPI    C213630  14.408   5.385   6.327  0.0174  0.1044 -0.1636
  937loPI    C313631  14.272   5.486   5.965  0.0735 -0.0774 -0.2365
  937loPI   PO413632  14.021   5.727   6.443 -0.2558  0.0772  0.0155
  937loPI   GL113633  13.792   5.857   6.827  0.0952  0.0060  0.0663
  937loPI   GL213634  13.466   6.016   6.779 -0.1342  0.1477  0.2556
  937loPI   C1A13635  13.622   5.838   7.269 -0.1797 -0.1727  0.0879
  937loPI   C2A13636  13.552   5.997   7.690  0.1374 -0.0758 -0.0776
  937loPI   C3A13637  13.366   6.058   8.062  0.2266  0.2543  0.2618
  937loPI   C4A13638  13.382   5.921   8.442  0.4700 -0.2430  0.1183
  937loPI   C5A13639  13.475   5.674   8.794  0.0569 -0.0216 -0.0481
  937loPI   C6A13640  13.603   5.302   9.081  0.1942  0.1383  0.2239
  937loPI   C1B13641  13.094   5.981   7.191  0.1095 -0.1339 -0.1784
  937loPI   C2B13642  12.955   5.963   7.667  0.1116  0.1427 -0.1390
  937loPI   C3B13643  12.874   5.976   8.000  0.1089  0.1089  0.4252
  937loPI   C4B13644  12.871   5.966   8.394  0.0481 -0.0031 -0.0385
  938loPI    C113645   7.175   0.516   5.949 -0.0459 -0.2087  0.0386
  938loPI    C213646   6.955   0.789   5.756  0.0568 -0.0324  0.1687
  938loPI    C313647   6.931   0.404   5.652 -0.0152  0.0383 -0.0823
  938loPI   PO413648   7.106   0.650   6.258 -0.0279 -0.1755 -0.1993
  938loPI   GL113649   6.994   0.404   6.588  0.2776 -0.1394 -0.1001
  938loPI   GL213650   6.956   0.078   6.562  0.0427 -0.3927  0.1210
  938loPI   C1A13651   7.212   0.331   7.013  0.0838 -0.2033  0.1287
  938loPI   C2A13652   7.324   0.362   7.460 -0.0171  0.3119  0.1856
  938loPI   C3A13653   7.405   0.476   7.880 -0.1609  0.1358 -0.0077
  938loPI   C4A13654   7.363   0.541   8.360 -0.0239  0.3607  0.0698
  938loPI   C5A13655   7.167   0.326   8.668  0.3876  0.0518  0.1597
  938loPI   C6A13656   6.653   0.153   8.782 -0.0034  0.0821 -0.1630
  938loPI   C1B13657   7.050  -0.120   6.921 -0.2004  0.1410 -0.1367
  938loPI   C2B13658   7.081  -0.017   7.308  0.2336  0.0167  0.3004
  938loPI   C3B13659   7.094  -0.102   7.697 -0.0873 -0.0640  0.0038
  938loPI   C4B13660   7.100  -0.112   8.119 -0.0473 -0.3757  0.0648
  939loPI    C113661   1.014   4.301   6.517 -0.0605  0.1189 -0.2042
  939loPI    C213662   0.881   3.977   6.709 -0.0414  0.2359  0.0094
  939loPI    C313663   0.702   4.096   6.372 -0.0252 -0.0161 -0.0906
  939loPI   PO413664   1.179   4.428   6.696  0.0174  0.0307 -0.0979
  939loPI   GL113665   1.317   4.395   7.119  0.1078  0.1552 -0.0271
  939loPI   GL213666   1.018   4.218   7.128 -0.0808  0.1261 -0.3070
  939loPI   C1A13667   1.422   4.011   7.356 -0.0788  0.0756 -0.1068
  939loPI   C2A13668   1.420   3.904   7.787 -0.2750  0.3410  0.3151
  939loPI   C3A13669   1.507   3.902   8.174 -0.2763  0.0470 -0.0537
  939loPI   C4A13670   1.514   3.727   8.596 -0.0305  0.0057 -0.2093
  939loPI   C5A13671   1.438   3.522   9.010  0.1349 -0.5396 -0.1702
  939loPI   C6A13672   1.181   3.086   9.135 -0.1733  0.3266  0.1993
  939loPI   C1B13673   0.876   4.380   7.567  0.1571  0.2676  0.2440
  939loPI   C2B13674   1.006   4.544   7.959  0.0464  0.0135 -0.2249
  939loPI   C3B13675   0.859   4.860   8.452 -0.2848  0.2251  0.2515
  939loPI   C4B13676   0.759   4.736   8.930 -0.0291  0.0878  0.0110
  940loPI    C113677   5.948   9.492   6.009  0.1497  0.3827  0.0711
  940loPI    C213678   5.713   9.652   5.728 -0.1529  0.1569  0.1897
  940loPI    C313679   6.110   9.679   5.695 -0.1838  0.1661 -0.2393
  940loPI   PO413680   5.729   9.555   6.248  0.1798  0.0074  0.1502
  940loPI   GL113681   5.609   9.713   6.618 -0.0346  0.1440 -0.0617
  940loPI   GL213682   5.476   9.320   6.796 -0.2211 -0.1383 -0.0282
  940loPI   C1A13683   5.550   9.802   7.004  0.0416 -0.0486 -0.0488
  940loPI   C2A13684   5.530   9.886   7.478  0.0821 -0.2358 -0.1321
  940loPI   C3A13685   5.817   9.799   7.811 -0.1712  0.0065 -0.3152
  940loPI   C4A13686   5.840   9.798   8.191 -0.3053  0.2568 -0.0587
  940loPI   C5A13687   5.786   9.587   8.585  0.2046 -0.0514  0.0445
  940loPI   C6A13688   5.871   9.638   9.059  0.2289  0.0426  0.1308
  940loPI   C1B13689   5.441   9.346   7.242 -0.3125  0.4558  0.2183
  940loPI   C2B13690   5.432   9.456   7.753 -0.0625  0.1335  0.0484
  940loPI   C3B13691   5.533   9.332   8.168 -0.0921 -0.4208  0.2386
  940loPI   C4B13692   5.457   9.141   8.511 -0.0756 -0.1130 -0.0920
  941loPI    C113693   1.582   7.463   6.163 -0.2321 -0.2305  0.0419
  941loPI    C213694   1.822   7.168   6.039 -0.0208  0.0361 -0.1988
  941loPI    C313695   1.671   7.427   5.775 -0.0394  0.2655  0.0329
  941loPI   PO413696   1.465   7.361   6.418 -0.0649  0.1417 -0.1191
  941loPI   GL113697   1.569   7.064   6.718 -0.1170 -0.0620  0.1046
  941loPI   GL213698   1.235   7.059   6.780  0.0591 -0.0433 -0.0988
  941loPI   C1A13699   1.707   7.199   7.111  0.0023 -0.0308  0.1492
  941loPI   C2A13700   1.792   7.547   7.363  0.0438  0.2415 -0.0056
  941loPI   C3A13701   1.757   7.437   7.760 -0.0482  0.1916 -0.1914
  941loPI   C4A13702   1.872   7.465   8.204  0.0981 -0.3571  0.1558
  941loPI   C5A13703   1.940   7.397   8.629 -0.2372 -0.0111  0.0168
  941loPI   C6A13704   2.065   7.211   9.013  0.2630  0.0584  0.1555
  941loPI   C1B13705   1.024   6.990   7.170 -0.0628 -0.1697 -0.1041
  941loPI   C2B13706   0.976   6.971   7.585 -0.0773 -0.3205  0.0541
  941loPI   C3B13707   1.083   6.924   7.984 -0.0149  0.5973  0.1522
  941loPI   C4B13708   1.144   6.986   8.394 -0.2530  0.0218 -0.0575
  942loPI    C113709   8.493   3.835   5.859 -0.1168 -0.0125 -0.0720
  942loPI    C213710   8.875   3.759   5.768 -0.1035 -0.1243  0.0727
  942loPI    C313711   8.621   3.882   5.483  0.0662  0.0592 -0.0018
  942loPI   PO413712   8.521   3.978   6.079 -0.0753 -0.2217 -0.0974
  942loPI   GL113713   8.460   3.963   6.471  0.0050 -0.0309  0.1438
  942loPI   GL213714   8.766   3.922   6.622 -0.2335 -0.1706  0.2846
  942loPI   C1A13715   8.261   3.860   6.839 -0.1323 -0.1325  0.1171
  942loPI   C2A13716   8.276   3.988   7.222 -0.0036  0.1022 -0.2463
  942loPI   C3A13717   8.290   4.133   7.621  0.1092 -0.0270  0.1134
  942loPI   C4A13718   8.227   4.076   8.070  0.1917 -0.2218  0.1162
  942loPI   C5A13719   8.372   4.007   8.449  0.0186 -0.1798  0.0362
  942loPI   C6A13720   8.607   3.966   8.833  0.0789 -0.0954  0.0394
  942loPI   C1B13721   8.813   4.018   6.945  0.0815 -0.4664  0.0772
  942loPI   C2B13722   8.798   4.021   7.383  0.0020  0.1401  0.0224
  942loPI   C3B13723   8.742   4.088   7.807 -0.3605  0.1341  0.1925
  942loPI   C4B13724   8.852   3.990   8.286 -0.0435 -0.1103 -0.0796
  943loPI    C113725  14.959   1.276   6.607  0.1614 -0.0954 -0.0259
  943loPI    C213726  15.051   1.615   6.416 -0.0518 -0.0094  0.0214
  943loPI    C313727  15.050   1.268   6.217 -0.2345  0.0741 -0.1269
  943loPI   PO413728  15.022   1.328   6.871 -0.2669 -0.0721 -0.0439
  943loPI   GL113729  14.752   1.358   7.161 -0.0598 -0.0284  0.1410
  943loPI   GL213730  14.703   1.613   7.129  0.2558  0.0536 -0.1966
  943loPI   C1A13731  14.904   1.436   7.571  0.0364  0.1402  0.2812
  943loPI   C2A13732  14.917   1.444   7.923 -0.2361 -0.2301  0.2518
  943loPI   C3A13733  14.927   1.314   8.439  0.0995 -0.1351 -0.3209
  943loPI   C4A13734  14.823   1.020   8.789  0.3491 -0.3109 -0.2533
  943loPI   C5A13735  14.488   0.787   8.942 -0.2329 -0.1155 -0.0677
  943loPI   C6A13736  14.202   0.523   9.306  0.0398 -0.0007  0.1455
  943loPI   C1B13737  14.593   1.811   7.519 -0.1762 -0.0046 -0.1345
  943loPI   C2B13738  14.229   1.862   7.783 -0.1304  0.1001  0.2655
  943loPI   C3B13739  13.816   1.875   7.991 -0.1406 -0.1533  0.1837
  943loPI   C4B13740  13.614   1.860   8.335 -0.0571 -0.2242  0.2041
  944loPI    C113741  10.398   8.509   5.658 -0.0624 -0.1938 -0.3180
  944loPI    C213742  10.368   8.906   5.627  0.3689 -0.1436 -0.1547
  944loPI    C313743  10.120   8.671   5.420  0.1874  0.2071 -0.3457
  944loPI   PO413744  10.528   8.519   5.962 -0.1513 -0.1150  0.1733
  944loPI   GL113745  10.509   8.447   6.366  0.0054  0.0020 -0.5024
  944loPI   GL213746  10.293   8.216   6.390  0.2366 -0.1447  0.1725
  944loPI   C1A13747  10.259   8.588   6.770 -0.0164  0.0968 -0.1667
  944loPI   C2A13748  10.203   8.477   7.077  0.2465  0.0003  0.0215
  944loPI   C3A13749  10.193   8.546   7.506 -0.0571 -0.0941 -0.2416
  944loPI   C4A13750  10.141   8.535   7.947  0.0564  0.0400 -0.0558
  944loPI   C5A13751  10.323   8.492   8.314  0.0398 -0.1156 -0.1026
  944loPI   C6A13752  10.640   8.575   8.600  0.0004 -0.2342  0.1038
  944loPI   C1B13753  10.036   8.083   6.796  0.0090 -0.4335  0.2199
  944loPI   C2B13754  10.034   7.938   7.178  0.0957  0.0202 -0.0745
  944loPI   C3B13755  10.000   8.097   7.596 -0.1625 -0.1644 -0.0091
  944loPI   C4B13756   9.946   8.056   7.990  0.0903  0.0090  0.0068
  945loPI    C113757   9.619  16.020   6.033 -0.3622  0.1280 -0.0044
  945loPI    C213758   9.628  16.162   5.659 -0.3218 -0.0900 -0.0880
  945loPI    C313759   9.705  15.776   5.728 -0.0104  0.0154  0.1796
  945loPI   PO413760   9.417  16.143   6.099  0.0965 -0.0083  0.1638
  945loPI   GL113761   9.334  16.179   6.525  0.0118  0.0462  0.3602
  945loPI   GL213762   9.433  16.458   6.650 -0.4159 -0.0750 -0.2383
  945loPI   C1A13763   9.088  16.077   6.847 -0.0057  0.0900 -0.1349
  945loPI   C2A13764   8.971  15.890   7.249 -0.1580 -0.2439  0.0652
  945loPI   C3A13765   9.033  15.981   7.685 -0.0024 -0.1355  0.1547
  945loPI   C4A13766   9.053  15.884   8.131 -0.3600  0.1603  0.1370
  945loPI   C5A13767   9.203  15.824   8.476 -0.3087 -0.0541 -0.0077
  945loPI   C6A13768   8.936  15.677   8.813  0.2418  0.0550 -0.2679
  945loPI   C1B13769   9.560  16.234   7.045  0.0673  0.0627  0.0294
  945loPI   C2B13770   9.619  16.053   7.514 -0.3049  0.1038 -0.0299
  945loPI   C3B13771   9.554  15.876   7.909  0.4047  0.1323  0.0545
  945loPI   C4B13772   9.595  16.062   8.277 -0.2135 -0.1130  0.1335
  946loPI    C113773  15.930  13.792   6.230 -0.0112 -0.0165  0.1083
  946loPI    C213774  15.643  13.853   5.959 -0.0069 -0.3363  0.0268
  946loPI    C313775  16.018  13.967   5.882 -0.0532 -0.1959  0.0059
  946loPI   PO413776  15.875  13.647   6.374 -0.0955  0.1181 -0.1842
  946loPI   GL113777  15.867  13.939   6.774  0.0362 -0.0105  0.1963
  946loPI   GL213778  15.633  14.085   6.976 -0.0983 -0.5062  0.0080
  946loPI   C1A13779  15.902  13.705   7.199 -0.0909  0.1522 -0.1743
  946loPI   C2A13780  15.999  13.708   7.627  0.0257  0.0836 -0.0621
  946loPI   C3A13781  15.966  13.662   7.956  0.1251  0.0020  0.1122
  946loPI   C4A13782  15.990  13.705   8.428 -0.0549  0.3409  0.1278
  946loPI   C5A13783  15.897  13.543   8.749 -0.1776 -0.0121 -0.0660
  946loPI   C6A13784  15.796  13.632   9.200  0.3897  0.0943  0.0291
  946loPI   C1B13785  15.621  14.127   7.442  0.1753 -0.1713  0.1617
  946loPI   C2B13786  15.629  14.021   7.800  0.0151  0.0565 -0.1554
  946loPI   C3B13787  15.681  14.026   8.262  0.2299 -0.0053 -0.5080
  946loPI   C4B13788  15.478  14.024   8.676  0.0302  0.0645  0.1278
  947loPI    C113789  11.021   5.237   6.238  0.2548 -0.0315 -0.1034
  947loPI    C213790  11.275   5.131   5.947  0.0215 -0.3646 -0.1920
  947loPI    C313791  10.884   5.164   5.869  0.0168  0.0201 -0.0267
  947loPI   PO413792  11.163   5.403   6.353  0.1768  0.1818 -0.0416
  947loPI   GL113793  11.013   5.638   6.737 -0.1497 -0.0182 -0.1379
  947loPI   GL213794  11.135   5.860   6.528 -0.0538 -0.1166 -0.1993
  947loPI   C1A13795  10.802   5.921   6.995 -0.6036 -0.0921  0.1424
  947loPI   C2A13796  10.748   5.976   7.445  0.0053 -0.0945  0.1428
  947loPI   C3A13797  10.820   5.881   7.828  0.1625 -0.0304  0.1711
  947loPI   C4A13798  10.885   6.025   8.204 -0.0507  0.2942  0.1086
  947loPI   C5A13799  11.011   5.791   8.572 -0.1670  0.1545  0.0973
  947loPI   C6A13800  11.015   5.552   9.002  0.2781  0.2713 -0.0747
  947loPI   C1B13801  11.252   6.209   6.815  0.1666 -0.1381 -0.2663
  947loPI   C2B13802  11.078   6.338   7.224 -0.1076 -0.2373 -0.2159
  947loPI   C3B13803  11.041   6.322   7.707 -0.0346 -0.3906  0.0343
  947loPI   C4B13804  11.175   6.418   8.017 -0.0236  0.3067 -0.0694
  948loPI    C113805   0.898  10.886   6.005 -0.2499 -0.2006  0.4687
  948loPI    C213806   0.584  10.774   5.784  0.0640  0.1819 -0.2025
  948loPI    C313807   0.928  10.572   5.758  0.1248  0.2738 -0.1197
  948loPI   PO413808   0.807  10.944   6.184 -0.0233 -0.4587  0.1379
  948loPI   GL113809   0.860  10.832   6.615  0.2211  0.0258 -0.0513
  948loPI   GL213810   1.019  10.669   6.803 -0.1474  0.3064 -0.1303
  948loPI   C1A13811   0.781  11.094   7.008 -0.1104  0.0876  0.0493
  948loPI   C2A13812   0.717  11.174   7.439  0.3029  0.0394 -0.4498
  948loPI   C3A13813   0.641  11.179   7.891 -0.2167  0.2329 -0.0110
  948loPI   C4A13814   0.613  11.099   8.311  0.1790  0.0220 -0.0479
  948loPI   C5A13815   0.341  10.907   8.537 -0.1088 -0.0322  0.0593
  948loPI   C6A13816   0.167  10.494   8.584 -0.2439 -0.2224 -0.1550
  948loPI   C1B13817   0.997  10.747   7.343 -0.2087  0.0548 -0.1023
  948loPI   C2B13818   0.993  10.782   7.826  0.1584  0.0242 -0.2074
  948loPI   C3B13819   1.097  10.646   8.227 -0.3419 -0.1168  0.3317
  948loPI   C4B13820   1.228  10.652   8.559 -0.0606  0.0243  0.0426
  949loPI    C113821   2.695   3.731   6.444 -0.1832 -0.1920 -0.0065
  949loPI    C213822   2.969   3.500   6.266 -0.1227 -0.0144 -0.1462
  949loPI    C313823   2.703   3.703   6.046  0.0149  0.2845 -0.0423
  949loPI   PO413824   2.650   3.580   6.664  0.2474  0.2409  0.0391
  949loPI   GL113825   2.682   3.596   6.992  0.1082  0.1195  0.0738
  949loPI   GL213826   2.380   3.441   7.170 -0.3651 -0.0632  0.2173
  949loPI   C1A13827   2.806   3.444   7.379  0.0188 -0.1160  0.0375
  949loPI   C2A13828   2.806   3.380   7.850 -0.0161 -0.0716  0.3538
  949loPI   C3A13829   2.687   3.526   8.228  0.1277 -0.3503 -0.0249
  949loPI   C4A13830   2.797   3.438   8.668 -0.1641  0.2342  0.3404
  949loPI   C5A13831   2.826   3.265   9.028 -0.0876  0.0881 -0.2061
  949loPI   C6A13832   3.070   3.278   9.350 -0.1070 -0.0501 -0.0934
  949loPI   C1B13833   2.288   3.360   7.600  0.0746 -0.1538 -0.2016
  949loPI   C2B13834   2.257   3.322   8.059  0.0188  0.0597 -0.0057
  949loPI   C3B13835   2.290   3.421   8.510 -0.0195  0.0231  0.0170
  949loPI   C4B13836   2.433   3.545   8.984  0.1256  0.1008 -0.0098
  950loPI    C113837   7.236   2.154   6.092 -0.3513  0.2792  0.0228
  950loPI    C213838   6.970   1.865   6.167  0.1408 -0.2094 -0.0466
  950loPI    C313839   7.060   1.961   5.789 -0.1505  0.1699 -0.0262
  950loPI   PO413840   7.426   2.087   6.271 -0.2283  0.3168  0.0754
  950loPI   GL113841   7.584   2.191   6.600  0.1553  0.0371 -0.4448
  950loPI   GL213842   7.810   2.205   6.714  0.1360 -0.0951 -0.1676
  950loPI   C1A13843   7.273   2.212   7.008 -0.2864  0.2420 -0.1291
  950loPI   C2A13844   7.200   2.222   7.507  0.1419 -0.1803  0.1685
  950loPI   C3A13845   7.271   2.259   7.907  0.1816  0.0392 -0.2230
  950loPI   C4A13846   7.294   2.275   8.352  0.0170  0.3505 -0.1379
  950loPI   C5A13847   7.113   1.987   8.606  0.1117  0.1689  0.0077
  950loPI   C6A13848   6.825   1.751   8.711  0.1658 -0.0598  0.3059
  950loPI   C1B13849   7.760   2.141   7.173 -0.0290 -0.0267 -0.2532
  950loPI   C2B13850   7.791   2.211   7.649 -0.0125  0.1896 -0.3446
  950loPI   C3B13851   7.783   2.284   8.081  0.1724  0.0993 -0.0115
  950loPI   C4B13852   7.748   2.237   8.540  0.1389 -0.0916 -0.4255
  951loPI    C113853   5.808  15.562   6.091  0.1160 -0.2627  0.1406
  951loPI    C213854   6.023  15.871   5.957 -0.2950 -0.0180  0.0277
  951loPI    C313855   5.860  15.613   5.698 -0.0738 -0.2519  0.1162
  951loPI   PO413856   5.914  15.524   6.275  0.1165  0.1692  0.1063
  951loPI   GL113857   6.122  15.499   6.628  0.0254 -0.0898  0.0786
  951loPI   GL213858   5.948  15.498   6.844 -0.1063 -0.0630 -0.2611
  951loPI   C1A13859   6.234  15.193   7.023  0.2082 -0.0266  0.3469
  951loPI   C2A13860   6.345  15.137   7.450 -0.0200 -0.0195  0.0607
  951loPI   C3A13861   6.127  15.188   7.843  0.0926 -0.2994 -0.0953
  951loPI   C4A13862   6.120  15.233   8.230  0.1230  0.0428 -0.2152
  951loPI   C5A13863   6.360  15.292   8.578 -0.2509  0.0082 -0.3355
  951loPI   C6A13864   6.752  15.117   8.857  0.1703 -0.1395  0.1003
  951loPI   C1B13865   5.879  15.569   7.336  0.1242 -0.0056  0.0057
  951loPI   C2B13866   5.839  15.580   7.808  0.0564 -0.2022 -0.1177
  951loPI   C3B13867   5.771  15.755   8.239  0.2142 -0.1167  0.1016
  951loPI   C4B13868   5.538  15.758   8.522  0.3975  0.1432  0.1836
  952loPI    C113869   4.378  11.879   6.190  0.3125  0.0883 -0.1090
  952loPI    C213870   4.576  11.765   5.861  0.1342 -0.1890 -0.1236
  952loPI    C313871   4.362  12.103   5.859  0.2042 -0.1449 -0.2641
  952loPI   PO413872   4.623  11.817   6.394 -0.2385  0.0301  0.0978
  952loPI   GL113873   4.824  11.502   6.661 -0.1115  0.0474  0.3706
  952loPI   GL213874   4.943  11.661   6.914  0.1148 -0.1064  0.0060
  952loPI   C1A13875   4.818  11.171   6.912 -0.4787  0.0306  0.1211
  952loPI   C2A13876   4.883  11.118   7.313  0.0677  0.1213  0.3644
  952loPI   C3A13877   5.124  11.345   7.622  0.2696  0.1400  0.2113
  952loPI   C4A13878   5.507  11.234   7.926  0.0320  0.2166  0.1252
  952loPI   C5A13879   5.439  11.098   8.406 -0.2136 -0.0913  0.2481
  952loPI   C6A13880   5.106  11.067   8.645  0.2250  0.0386  0.0798
  952loPI   C1B13881   4.883  11.629   7.316  0.2405 -0.0144 -0.2271
  952loPI   C2B13882   4.808  11.715   7.695 -0.1780 -0.1474  0.0621
  952loPI   C3B13883   4.827  11.807   8.031  0.0753 -0.3122  0.0221
  952loPI   C4B13884   4.788  11.619   8.511  0.0051  0.0723  0.3299
  953loPI    C113885  16.771   9.033   5.938  0.1064 -0.3717 -0.1364
  953loPI    C213886  16.468   9.161   5.711  0.0204 -0.1022  0.1240
  953loPI    C313887  16.555   8.771   5.726 -0.2279 -0.1674 -0.0562
  953loPI   PO413888  16.637   9.153   6.177  0.0203  0.2315 -0.0329
  953loPI   GL113889  16.397   9.101   6.461 -0.0905 -0.2716  0.2290
  953loPI   GL213890  16.194   9.333   6.625 -0.2900 -0.5372 -0.2157
  953loPI   C1A13891  16.535   9.001   6.935 -0.0511  0.1578 -0.2564
  953loPI   C2A13892  16.568   9.094   7.367 -0.0007 -0.2014 -0.2203
  953loPI   C3A13893  16.499   9.229   7.740  0.0327  0.0732 -0.2280
  953loPI   C4A13894  16.466   9.193   8.209 -0.1243  0.0384 -0.3197
  953loPI   C5A13895  16.667   9.357   8.607  0.3306 -0.1216 -0.1149
  953loPI   C6A13896  17.055   9.309   8.841  0.0348 -0.3593  0.0940
  953loPI   C1B13897  16.213   9.400   7.069  0.0206 -0.3537  0.2889
  953loPI   C2B13898  16.223   9.558   7.515  0.1568  0.2114  0.1534
  953loPI   C3B13899  16.191   9.622   8.006 -0.0073 -0.0955  0.2267
  953loPI   C4B13900  16.274   9.603   8.389 -0.2235 -0.2757 -0.1812
  954loPI    C113901  12.448   4.393   6.357 -0.1902  0.0288  0.0947
  954loPI    C213902  12.657   4.701   6.506 -0.2748 -0.0490  0.3814
  954loPI    C313903  12.744   4.556   6.143 -0.1852  0.2631  0.2755
  954loPI   PO413904  12.406   4.199   6.492  0.0321 -0.1059 -0.1426
  954loPI   GL113905  12.377   4.246   6.870 -0.0095  0.0162 -0.2140
  954loPI   GL213906  12.704   4.049   6.978 -0.0145 -0.1423  0.1159
  954loPI   C1A13907  12.356   4.574   7.280  0.1334  0.4446  0.2361
  954loPI   C2A13908  12.223   4.505   7.625  0.1848  0.3398 -0.0524
  954loPI   C3A13909  12.115   4.505   8.050 -0.1046  0.1538 -0.1239
  954loPI   C4A13910  12.092   4.448   8.513 -0.0525 -0.0104  0.0892
  954loPI   C5A13911  11.889   4.631   8.931 -0.1449  0.2010 -0.1054
  954loPI   C6A13912  11.487   4.596   9.151  0.1419  0.0225  0.0457
  954loPI   C1B13913  12.549   4.048   7.379  0.1731  0.0759 -0.0225
  954loPI   C2B13914  12.506   4.041   7.819  0.1627  0.2887  0.2320
  954loPI   C3B13915  12.363   4.023   8.332 -0.0877  0.4193  0.2828
  954loPI   C4B13916  12.546   3.956   8.794  0.0358  0.1105 -0.0369
  955loPI    C113917  12.567   1.641   6.285 -0.3198  0.2104  0.0903
  955loPI    C213918  12.741   1.925   6.065 -0.1747  0.0815  0.0371
  955loPI    C313919  12.592   1.598   5.888  0.0177 -0.0619  0.1361
  955loPI   PO413920  12.482   1.819   6.495  0.0737  0.0369 -0.0146
  955loPI   GL113921  12.281   1.613   6.883  0.2004  0.0555 -0.4243
  955loPI   GL213922  12.131   1.856   6.916 -0.1169  0.2119 -0.3494
  955loPI   C1A13923  12.348   1.675   7.341 -0.0696  0.0908  0.2451
  955loPI   C2A13924  12.293   1.566   7.769  0.3560 -0.3331  0.4138
  955loPI   C3A13925  12.465   1.285   8.072  0.1110  0.0314 -0.0370
  955loPI   C4A13926  12.343   1.203   8.476 -0.1921  0.1171  0.0196
  955loPI   C5A13927  12.537   1.159   8.930 -0.2680  0.1512 -0.3549
  955loPI   C6A13928  12.710   1.254   9.400  0.2453 -0.0692  0.1023
  955loPI   C1B13929  11.911   1.886   7.289 -0.0245 -0.1246 -0.0097
  955loPI   C2B13930  11.838   1.828   7.705 -0.1972  0.1044  0.1138
  955loPI   C3B13931  11.781   1.739   8.167 -0.1113 -0.1043  0.0530
  955loPI   C4B13932  12.272   1.709   8.280 -0.0378  0.0579  0.2102
  956loPI    C113933   3.681  17.137   6.071 -0.0684  0.1778  0.1500
  956loPI    C213934   3.772  16.764   6.182 -0.0165  0.1748  0.0979
  956loPI    C313935   3.420  16.841   6.009 -0.0110  0.1428  0.0723
  956loPI   PO413936   3.743  17.278   6.361  0.0205 -0.0877  0.1023
  956loPI   GL113937   3.770  17.311   6.769 -0.0906  0.0866 -0.4143
  956loPI   GL213938   4.135  17.290   6.970 -0.0045  0.1462 -0.0171
  956loPI   C1A13939   3.686  17.058   7.134  0.0124 -0.1451 -0.2558
  956loPI   C2A13940   3.583  17.077   7.601 -0.2260  0.1281  0.1726
  956loPI   C3A13941   3.524  17.098   8.026 -0.2585  0.0262 -0.0361
  956loPI   C4A13942   3.457  16.983   8.397  0.0747  0.1024 -0.1567
  956loPI   C5A13943   3.287  17.071   8.844  0.0868 -0.1607 -0.0844
  956loPI   C6A13944   3.306  16.916   9.240 -0.3322  0.1574 -0.0339
  956loPI   C1B13945   4.085  17.168   7.354  0.0717 -0.0040  0.1845
  956loPI   C2B13946   4.072  17.168   7.797  0.2397 -0.2793 -0.1029
  956loPI   C3B13947   4.217  17.423   8.179  0.1132 -0.2755  0.0035
  956loPI   C4B13948   4.219  17.586   8.654  0.2055 -0.1658 -0.2014
  957loPI    C113949   5.166  13.123   6.024  0.1046  0.0389  0.2196
  957loPI    C213950   4.944  12.808   5.917  0.0091  0.2189 -0.1284
  957loPI    C313951   5.317  12.753   6.050 -0.0155 -0.0421 -0.1618
  957loPI   PO413952   4.907  13.275   6.089 -0.1544  0.1149 -0.1148
  957loPI   GL113953   4.663  13.281   6.587  0.2855  0.2287 -0.0370
  957loPI   GL213954   4.854  13.509   6.622  0.0750  0.1594 -0.0359
  957loPI   C1A13955   4.769  13.056   7.026 -0.1114 -0.2669 -0.3077
  957loPI   C2A13956   4.937  13.059   7.461  0.2408  0.1472  0.0294
  957loPI   C3A13957   4.976  13.026   7.939 -0.3034 -0.1711  0.0590
  957loPI   C4A13958   5.035  13.208   8.320 -0.1575  0.1657  0.0789
  957loPI   C5A13959   4.955  13.331   8.756  0.0710  0.0293 -0.0381
  957loPI   C6A13960   4.552  13.321   9.065 -0.2346  0.1174  0.3316
  957loPI   C1B13961   4.965  13.522   7.035 -0.2431 -0.0086  0.2970
  957loPI   C2B13962   5.132  13.546   7.400 -0.0835  0.1374 -0.2032
  957loPI   C3B13963   5.197  13.631   7.842 -0.3204  0.0981 -0.2870
  957loPI   C4B13964   5.290  13.614   8.335  0.0380  0.0838 -0.0026
  958loPI    C113965  17.059  13.462   6.179  0.1286 -0.0005  0.2193
  958loPI    C213966  16.944  13.820   6.042 -0.2628 -0.2187 -0.0410
  958loPI    C313967  17.282  13.654   5.908 -0.2162 -0.0634 -0.1181
  958loPI   PO413968  17.094  13.478   6.436 -0.2187 -0.1075  0.0268
  958loPI   GL113969  16.965  13.569   6.850  0.0750 -0.2302  0.2453
  958loPI   GL213970  16.791  13.783   6.761 -0.1360 -0.2438 -0.1799
  958loPI   C1A13971  16.748  13.370   7.240 -0.0910  0.0169  0.3633
  958loPI   C2A13972  16.823  13.189   7.697  0.1904 -0.2619 -0.2161
  958loPI   C3A13973  16.788  13.319   8.062  0.0447  0.0153 -0.0358
  958loPI   C4A13974  16.780  13.225   8.445 -0.0520 -0.3455  0.0804
  958loPI   C5A13975  16.969  13.078   8.862  0.1231 -0.0096  0.0550
  958loPI   C6A13976  17.330  12.794   8.831 -0.0590 -0.2088 -0.2366
  958loPI   C1B13977  16.955  13.881   7.228  0.1179  0.3541 -0.0292
  958loPI   C2B13978  16.997  13.660   7.515 -0.1603  0.0883 -0.0936
  958loPI   C3B13979  16.984  13.766   7.982 -0.1603 -0.0294  0.0494
  958loPI   C4B13980  16.999  13.656   8.385 -0.1345 -0.3450 -0.1899
  959loPI    C113981   8.379  13.359   5.990  0.0338 -0.1468 -0.1699
  959loPI    C213982   8.116  13.299   5.694 -0.1281  0.0051 -0.0597
  959loPI    C313983   8.307  13.649   5.724 -0.2349  0.0499  0.1094
  959loPI   PO413984   8.598  13.150   6.082 -0.1281  0.0088  0.1105
  959loPI   GL113985   8.622  12.907   6.466  0.1658  0.0829  0.0759
  959loPI   GL213986   8.807  13.215   6.556 -0.2004  0.0128  0.0337
  959loPI   C1A13987   8.552  12.639   6.813 -0.0638 -0.2244 -0.0026
  959loPI   C2A13988   8.532  12.671   7.237 -0.4047 -0.1085 -0.1184
  959loPI   C3A13989   8.654  12.655   7.614  0.1706  0.1263 -0.4840
  959loPI   C4A13990   8.593  12.737   8.087  0.4196 -0.1776  0.0982
  959loPI   C5A13991   8.708  12.793   8.493  0.0611  0.0846 -0.2684
  959loPI   C6A13992   9.006  12.977   8.792 -0.0377  0.0791 -0.1932
  959loPI   C1B13993   8.801  13.085   6.930 -0.0492 -0.0767  0.0935
  959loPI   C2B13994   8.888  13.141   7.367  0.1430  0.0355 -0.0814
  959loPI   C3B13995   8.842  13.118   7.765  0.1938  0.1482 -0.3695
  959loPI   C4B13996   8.835  13.196   8.204  0.2267  0.0179  0.1043
  960loPI    C113997  10.170  14.137   5.764 -0.2108  0.0112 -0.1001
  960loPI    C213998  10.028  13.889   5.484 -0.0809  0.0010 -0.1575
  960loPI    C313999   9.886  14.262   5.511 -0.2462 -0.0651 -0.0983
  960loPI   PO414000  10.142  13.988   5.996 -0.3383  0.1121  0.2723
  960loPI   GL114001  10.060  13.735   6.375  0.1896  0.4137 -0.0845
  960loPI   GL214002   9.726  13.754   6.321 -0.3135  0.3051  0.1156
  960loPI   C1A14003  10.093  13.690   6.826 -0.1502  0.0410 -0.0894
  960loPI   C2A14004  10.100  13.711   7.245 -0.0766 -0.0445 -0.0664
  960loPI   C3A14005  10.098  13.793   7.653  0.0830  0.1702 -0.2100
  960loPI   C4A14006  10.169  13.688   8.099  0.4473 -0.3529  0.0322
  960loPI   C5A14007  10.276  13.761   8.604 -0.1673  0.0372  0.1211
  960loPI   C6A14008  10.238  13.842   9.030  0.2233 -0.1197 -0.0317
  960loPI   C1B14009   9.556  13.645   6.742  0.1522  0.0536 -0.2338
  960loPI   C2B14010   9.611  13.632   7.175 -0.1425  0.1760 -0.1077
  960loPI   C3B14011   9.551  13.782   7.627 -0.1496  0.0370 -0.1234
  960loPI   C4B14012   9.611  13.674   8.046 -0.0960  0.0122  0.1678
  961loPI    C114013  15.402   0.034   6.211 -0.1901  0.0719 -0.1230
  961loPI    C214014  15.543   0.205   5.878  0.1521  0.1710  0.0672
  961loPI    C314015  15.148   0.176   5.937  0.0883  0.1831 -0.3280
  961loPI   PO414016  15.395   0.159   6.475 -0.1307 -0.2516 -0.0465
  961loPI   GL114017  15.453   0.310   6.829  0.1022 -0.1798 -0.1274
  961loPI   GL214018  15.182   0.419   6.891  0.0337  0.2466 -0.2261
  961loPI   C1A14019  15.755   0.204   7.243 -0.0519  0.1449  0.1485
  961loPI   C2A14020  15.994   0.177   7.630 -0.1013 -0.1652  0.0077
  961loPI   C3A14021  15.978   0.119   8.088 -0.0252 -0.0481  0.4259
  961loPI   C4A14022  15.945   0.016   8.512  0.0342 -0.5562  0.2485
  961loPI   C5A14023  15.808  -0.058   8.924 -0.1410 -0.0202  0.1921
  961loPI   C6A14024  15.789   0.124   9.298  0.0333  0.1637 -0.0751
  961loPI   C1B14025  15.047   0.448   7.279  0.0783  0.1246 -0.4282
  961loPI   C2B14026  15.129   0.574   7.664  0.2270 -0.0447  0.0595
  961loPI   C3B14027  15.257   0.458   8.186  0.2264 -0.2057 -0.0658
  961loPI   C4B14028  15.177   0.387   8.541 -0.2471  0.3115  0.1878
  962loPI    C114029  14.294  10.348   6.104  0.0557  0.0382 -0.0647
  962loPI    C214030  14.445  10.491   5.762 -0.0885  0.2902 -0.0253
  962loPI    C314031  14.129  10.245   5.754  0.0668  0.0902 -0.0853
  962loPI   PO414032  14.511  10.308   6.218  0.0318  0.3577  0.0412
  962loPI   GL114033  14.531  10.479   6.589 -0.0700 -0.5839 -0.0062
  962loPI   GL214034  14.175  10.564   6.525  0.2007  0.1069 -0.2154
  962loPI   C1A14035  14.603  10.267   6.925  0.0162 -0.1387  0.2653
  962loPI   C2A14036  14.615  10.269   7.365  0.0189  0.0931 -0.1697
  962loPI   C3A14037  14.478  10.251   7.754 -0.0876  0.1461  0.1624
  962loPI   C4A14038  14.587  10.383   8.064 -0.2754  0.1007 -0.2302
  962loPI   C5A14039  14.453  10.324   8.555  0.4314 -0.2230 -0.1523
  962loPI   C6A14040  14.596  10.573   8.739  0.1993 -0.0952 -0.0685
  962loPI   C1B14041  14.216  10.655   7.000  0.1990  0.2160 -0.2032
  962loPI   C2B14042  14.239  10.681   7.390 -0.1897  0.2036 -0.0781
  962loPI   C3B14043  14.230  10.692   7.823 -0.0553  0.0554  0.1916
  962loPI   C4B14044  14.241  10.875   8.188  0.1984 -0.1968  0.0531
  963loPI    C114045  12.283  17.131   6.114 -0.0388  0.1256  0.1843
  963loPI    C214046  12.461  17.316   5.808  0.0182  0.2382  0.2847
  963loPI    C314047  12.210  17.012   5.739  0.1408  0.1693  0.1346
  963loPI   PO414048  12.210  17.260   6.267  0.0544  0.0398  0.0455
  963loPI   GL114049  12.316  17.173   6.727  0.0964 -0.0731  0.2298
  963loPI   GL214050  12.105  17.399   6.747 -0.2899 -0.0911 -0.1939
  963loPI   C1A14051  12.164  17.191   7.199  0.1986  0.0650 -0.0604
  963loPI   C2A14052  12.039  17.138   7.642  0.2277 -0.1472  0.0809
  963loPI   C3A14053  12.060  17.099   8.079  0.0122  0.0926 -0.1440
  963loPI   C4A14054  12.132  17.075   8.438  0.2804 -0.1649  0.1198
  963loPI   C5A14055  12.146  17.398   8.773  0.3123  0.0709  0.2905
  963loPI   C6A14056  12.517  17.552   9.039 -0.0430 -0.0337 -0.0971
  963loPI   C1B14057  12.179  17.719   7.117  0.0533  0.1033 -0.0532
  963loPI   C2B14058  12.130  17.699   7.601 -0.4220 -0.1878 -0.2358
  963loPI   C3B14059  11.951  17.636   8.040  0.4217 -0.0261 -0.1803
  963loPI   C4B14060  11.831  17.497   8.434 -0.0776 -0.1386  0.2887
  964loPI    C114061  16.502   1.030   6.497  0.0182  0.0799 -0.0252
  964loPI    C214062  16.720   0.757   6.301  0.0806  0.0118  0.1373
  964loPI    C314063  16.333   0.808   6.210  0.1260  0.0290 -0.0499
  964loPI   PO414064  16.481   0.945   6.711  0.1739  0.1204 -0.0054
  964loPI   GL114065  16.557   0.655   7.026  0.1786 -0.2154 -0.2791
  964loPI   GL214066  16.281   0.392   7.017 -0.0741 -0.0152 -0.0606
  964loPI   C1A14067  16.565   0.738   7.504 -0.1857 -0.0194 -0.2901
  964loPI   C2A14068  16.597   0.678   7.940 -0.1057 -0.1060 -0.2775
  964loPI   C3A14069  16.652   0.754   8.344 -0.0148  0.2345 -0.1861
  964loPI   C4A14070  16.734   0.860   8.763  0.0936  0.2235  0.0170
  964loPI   C5A14071  16.808   1.147   9.045  0.2402 -0.0096  0.2063
  964loPI   C6A14072  17.025   1.233   9.360  0.2283 -0.4414  0.2463
  964loPI   C1B14073  16.417   0.286   7.382 -0.1627 -0.0306  0.2452
  964loPI   C2B14074  16.422   0.242   7.872 -0.0739 -0.0632 -0.3137
  964loPI   C3B14075  16.422   0.230   8.281 -0.2459 -0.1181 -0.2226
  964loPI   C4B14076  16.515   0.005   8.542 -0.1661 -0.0452 -0.3181
  965loPI    C114077   4.988   5.325   6.096  0.1032  0.0664 -0.2351
  965loPI    C214078   5.357   5.255   5.956  0.1747 -0.1649  0.0593
  965loPI    C314079   5.125   4.950   6.071 -0.1088 -0.0203 -0.1174
  965loPI   PO414080   5.051   5.522   6.243  0.1710 -0.1225  0.1434
  965loPI   GL114081   5.094   5.584   6.583  0.0111 -0.0071  0.0805
  965loPI   GL214082   5.327   5.515   6.809 -0.2816 -0.0279 -0.0011
  965loPI   C1A14083   4.955   5.758   6.991 -0.1335  0.2727  0.0146
  965loPI   C2A14084   5.041   5.765   7.426 -0.1510 -0.1395  0.1738
  965loPI   C3A14085   5.109   5.794   7.892 -0.2591  0.1283  0.4505
  965loPI   C4A14086   5.070   5.804   8.348  0.1788 -0.3853  0.0706
  965loPI   C5A14087   4.999   5.685   8.848 -0.1187 -0.0035  0.3892
  965loPI   C6A14088   4.818   5.326   9.103 -0.0913 -0.1948 -0.2137
  965loPI   C1B14089   5.359   5.382   7.196  0.0339  0.0530 -0.5125
  965loPI   C2B14090   5.367   5.280   7.690 -0.1593  0.1741  0.0716
  965loPI   C3B14091   5.338   5.412   8.109  0.0829  0.0214 -0.2682
  965loPI   C4B14092   5.236   5.370   8.518 -0.0747 -0.0033 -0.2233
  966loPI    C114093  12.299  12.423   5.968 -0.1550  0.0375  0.0713
  966loPI    C214094  12.397  12.710   5.707  0.1636 -0.0135  0.1313
  966loPI    C314095  12.231  12.370   5.578 -0.0366  0.1173  0.0393
  966loPI   PO414096  12.466  12.521   6.157 -0.0358 -0.1797  0.2999
  966loPI   GL114097  12.313  12.796   6.470  0.0275 -0.2843  0.1009
  966loPI   GL214098  12.375  12.988   6.597 -0.0564 -0.1653 -0.2033
  966loPI   C1A14099  12.007  12.678   6.826 -0.1059 -0.0189  0.2148
  966loPI   C2A14100  12.006  12.705   7.260 -0.1063 -0.0403 -0.3359
  966loPI   C3A14101  12.083  12.639   7.706  0.1518  0.1538 -0.1324
  966loPI   C4A14102  12.095  12.727   8.200  0.3709  0.0041 -0.0469
  966loPI   C5A14103  12.122  12.559   8.562 -0.3113 -0.1837 -0.0891
  966loPI   C6A14104  12.085  12.323   8.994 -0.0984 -0.1858  0.1878
  966loPI   C1B14105  12.265  13.142   7.086  0.0560 -0.0489 -0.0263
  966loPI   C2B14106  12.219  13.126   7.488  0.1456  0.1861  0.2978
  966loPI   C3B14107  12.322  13.062   7.812 -0.1357  0.0051 -0.1671
  966loPI   C4B14108  12.308  13.174   8.193 -0.2540  0.4825 -0.1848
  967loPI    C114109   7.866  12.495   6.013  0.2117 -0.0624 -0.0108
  967loPI    C214110   7.974  12.766   5.740  0.1053  0.0663  0.0736
  967loPI    C314111   8.220  12.464   5.829  0.1142 -0.0132 -0.2097
  967loPI   PO414112   7.804  12.641   6.224  0.2970 -0.0164 -0.0757
  967loPI   GL114113   7.559  12.684   6.588  0.2440  0.2014  0.3236
  967loPI   GL214114   7.360  12.951   6.649  0.1948 -0.3959 -0.1055
  967loPI   C1A14115   7.537  12.561   7.008 -0.2095 -0.2632  0.1166
  967loPI   C2A14116   7.632  12.612   7.403 -0.0438  0.0783 -0.0269
  967loPI   C3A14117   7.606  12.651   7.810  0.0203 -0.0443  0.1653
  967loPI   C4A14118   7.681  12.621   8.199 -0.2158  0.0238 -0.0392
  967loPI   C5A14119   7.733  12.673   8.610 -0.0779 -0.0056 -0.0879
  967loPI   C6A14120   7.815  12.965   8.814  0.1787 -0.1844 -0.1263
  967loPI   C1B14121   7.297  13.032   7.015  0.1002  0.0729  0.1154
  967loPI   C2B14122   7.316  13.042   7.369  0.0733  0.1322  0.0980
  967loPI   C3B14123   7.277  13.045   7.698 -0.0744 -0.0699 -0.1092
  967loPI   C4B14124   7.343  12.977   8.104 -0.0787  0.2260  0.0003
  968loPI    C114125   8.240  14.436   5.943 -0.3980 -0.0664 -0.1476
  968loPI    C214126   8.077  14.076   5.880 -0.0183 -0.2815  0.0555
  968loPI    C314127   8.419  14.175   5.698 -0.2009  0.0440 -0.1235
  968loPI   PO414128   8.349  14.427   6.184 -0.1422  0.0658  0.2082
  968loPI   GL114129   8.335  14.597   6.496  0.3110 -0.0397 -0.0078
  968loPI   GL214130   8.098  14.517   6.685 -0.0913 -0.0940 -0.3908
  968loPI   C1A14131   8.560  14.835   6.817 -0.0048  0.0598 -0.4118
  968loPI   C2A14132   8.611  14.956   7.219 -0.0670 -0.0037 -0.2713
  968loPI   C3A14133   8.674  15.050   7.667 -0.0270  0.0486 -0.1292
  968loPI   C4A14134   8.645  15.048   8.151  0.3827  0.0199 -0.0021
  968loPI   C5A14135   8.574  14.953   8.541 -0.0798  0.1243  0.1598
  968loPI   C6A14136   8.710  14.678   8.874  0.0055 -0.2062 -0.0252
  968loPI   C1B14137   7.836  14.458   7.125 -0.0985  0.1536 -0.0051
  968loPI   C2B14138   7.977  14.471   7.588  0.0038 -0.3813 -0.0286
  968loPI   C3B14139   7.921  14.469   8.012 -0.2246 -0.2160  0.1273
  968loPI   C4B14140   7.897  14.521   8.491 -0.1708 -0.3848  0.1049
  969loPI    C114141  14.829  14.582   6.423 -0.2647 -0.0071  0.1551
  969loPI    C214142  14.690  14.221   6.325 -0.0434 -0.0586  0.0227
  969loPI    C314143  14.680  14.518   6.058 -0.2849  0.0528  0.1527
  969loPI   PO414144  14.708  14.640   6.653  0.0542 -0.1614 -0.0088
  969loPI   GL114145  14.619  14.952   6.970  0.0471  0.3670 -0.2754
  969loPI   GL214146  14.987  14.864   6.996 -0.3763 -0.0671 -0.2073
  969loPI   C1A14147  14.417  14.889   7.256  0.0319 -0.0095 -0.1334
  969loPI   C2A14148  14.387  14.787   7.667  0.1988 -0.1074 -0.2204
  969loPI   C3A14149  14.393  14.812   8.107  0.0206 -0.0353 -0.1289
  969loPI   C4A14150  14.393  14.705   8.454 -0.1952  0.0181  0.2048
  969loPI   C5A14151  14.133  14.820   8.786  0.2519 -0.0530 -0.4433
  969loPI   C6A14152  14.146  15.242   9.017 -0.0390  0.1503  0.1776
  969loPI   C1B14153  15.022  14.907   7.435  0.1402  0.1049 -0.1257
  969loPI   C2B14154  14.917  14.940   7.846 -0.2555 -0.0180  0.2664
  969loPI   C3B14155  14.774  15.101   8.296  0.1235  0.1514 -0.0792
  969loPI   C4B14156  14.580  15.158   8.620 -0.3217 -0.0568 -0.0180
  970loPI    C114157  13.310  16.794   6.514  0.2922  0.0953  0.0965
  970loPI    C214158  13.272  17.190   6.478 -0.1523  0.0366 -0.1575
  970loPI    C314159  13.467  16.981   6.198 -0.3571  0.0198 -0.2897
  970loPI   PO414160  13.073  16.710   6.629  0.0372 -0.0735 -0.0255
  970loPI   GL114161  13.053  16.611   6.912 -0.0193  0.0309  0.1086
  970loPI   GL214162  12.962  16.292   6.788  0.2587 -0.0035 -0.2290
  970loPI   C1A14163  13.122  16.656   7.268 -0.2975  0.1949 -0.2553
  970loPI   C2A14164  13.067  16.623   7.678 -0.0390 -0.1745  0.3104
  970loPI   C3A14165  13.051  16.595   8.042 -0.2588  0.1982 -0.1169
  970loPI   C4A14166  13.204  16.632   8.477 -0.0139  0.2808  0.1439
  970loPI   C5A14167  13.284  16.463   8.924 -0.0846  0.0380  0.1654
  970loPI   C6A14168  13.618  16.457   9.200 -0.1145  0.1243  0.0231
  970loPI   C1B14169  13.100  16.208   7.085 -0.0258  0.0479  0.3329
  970loPI   C2B14170  13.123  16.160   7.486  0.0732 -0.2206 -0.2162
  970loPI   C3B14171  13.030  15.985   7.885 -0.1527  0.1779  0.1034
  970loPI   C4B14172  13.110  16.134   8.273  0.0797  0.2790 -0.1630
  971loPI    C114173  16.268   5.154   6.253  0.1971 -0.0462 -0.0930
  971loPI    C214174  16.442   5.513   6.237 -0.0070  0.0501 -0.1888
  971loPI    C314175  16.498   5.250   5.941  0.0113  0.0643 -0.1980
  971loPI   PO414176  16.249   5.023   6.460  0.0545  0.1018  0.1197
  971loPI   GL114177  16.448   4.845   6.764 -0.0570  0.0550  0.1076
  971loPI   GL214178  16.262   4.613   6.934 -0.1731 -0.2422  0.0082
  971loPI   C1A14179  16.701   4.861   7.205 -0.2044 -0.0381  0.0304
  971loPI   C2A14180  16.781   4.936   7.539 -0.0145  0.2291 -0.3106
  971loPI   C3A14181  16.857   4.913   7.982  0.1475 -0.0893  0.1843
  971loPI   C4A14182  16.729   5.198   8.337  0.1291  0.0940  0.2339
  971loPI   C5A14183  16.856   5.307   8.776 -0.0224  0.3392  0.1360
  971loPI   C6A14184  17.221   5.398   9.100  0.0247 -0.1182  0.0356
  971loPI   C1B14185  16.355   4.598   7.399  0.3072  0.0958  0.0104
  971loPI   C2B14186  16.449   4.632   7.864  0.2209 -0.0481 -0.3663
  971loPI   C3B14187  16.512   4.642   8.255  0.1514  0.0987  0.0903
  971loPI   C4B14188  16.404   4.538   8.614 -0.1892 -0.1166 -0.2276
  972loPI    C114189   0.090  14.490   6.163 -0.1696 -0.0652 -0.0796
  972loPI    C214190  -0.196  14.300   5.959  0.0226 -0.1683 -0.2562
  972loPI    C314191   0.173  14.146   5.976  0.1004  0.0288 -0.1370
  972loPI   PO414192  -0.036  14.568   6.404 -0.0570  0.0320 -0.2664
  972loPI   GL114193   0.070  14.462   6.720 -0.4360 -0.2083  0.0864
  972loPI   GL214194   0.401  14.303   6.829  0.0392 -0.1816 -0.3459
  972loPI   C1A14195  -0.019  14.309   7.135  0.1740  0.1072  0.2166
  972loPI   C2A14196  -0.035  14.457   7.517  0.1855 -0.2551 -0.0269
  972loPI   C3A14197   0.018  14.247   7.879 -0.0129  0.0329 -0.0879
  972loPI   C4A14198   0.033  14.144   8.302  0.1050  0.3134 -0.1490
  972loPI   C5A14199   0.025  13.898   8.784  0.1408 -0.1361 -0.0729
  972loPI   C6A14200   0.204  13.978   9.234  0.0825 -0.1347  0.0567
  972loPI   C1B14201   0.457  14.419   7.279  0.0696  0.3420  0.0982
  972loPI   C2B14202   0.503  14.426   7.771  0.0212  0.1311  0.2498
  972loPI   C3B14203   0.520  14.278   8.114  0.2408  0.0972 -0.0859
  972loPI   C4B14204   0.478  14.213   8.557 -0.1124 -0.2905 -0.0812
  973loPI    C114205  11.895   8.298   5.438 -0.1402  0.2643 -0.0996
  973loPI    C214206  11.775   8.238   5.061  0.0009  0.3399 -0.1572
  973loPI    C314207  12.059   8.509   5.140  0.1927  0.1072 -0.0328
  973loPI   PO414208  11.703   8.235   5.569 -0.0757  0.1141  0.3193
  973loPI   GL114209  11.540   8.159   6.079 -0.3576  0.2191 -0.2051
  973loPI   GL214210  11.558   8.502   6.297  0.1252  0.0839 -0.0491
  973loPI   C1A14211  11.650   7.939   6.473  0.2778 -0.0511  0.1548
  973loPI   C2A14212  11.578   8.011   6.901  0.0284  0.2179  0.1818
  973loPI   C3A14213  11.542   8.129   7.178 -0.1356 -0.1635 -0.0115
  973loPI   C4A14214  11.493   8.130   7.535  0.3211 -0.1111 -0.1740
  973loPI   C5A14215  11.427   8.128   7.941  0.1897  0.1769  0.2189
  973loPI   C6A14216  11.293   8.397   8.259 -0.0505  0.0076  0.0990
  973loPI   C1B14217  11.430   8.483   6.655 -0.0933 -0.0259  0.0968
  973loPI   C2B14218  11.396   8.566   6.935  0.0358  0.0074  0.1539
  973loPI   C3B14219  11.240   8.554   7.322 -0.1218 -0.0427  0.1811
  973loPI   C4B14220  11.228   8.524   7.747  0.2122  0.0674  0.1965
  974loPI    C114221   5.451   2.475   6.243 -0.0658 -0.0756  0.0892
  974loPI    C214222   5.444   2.724   5.931 -0.1091 -0.2180 -0.0248
  974loPI    C314223   5.127   2.699   6.174 -0.0591 -0.0759  0.0563
  974loPI   PO414224   5.598   2.604   6.413 -0.0961 -0.1248  0.1632
  974loPI   GL114225   5.949   2.431   6.669  0.1213  0.0766  0.0192
  974loPI   GL214226   6.191   2.235   6.732 -0.0114 -0.0730 -0.0232
  974loPI   C1A14227   5.952   2.639   7.043 -0.1071  0.1640  0.0267
  974loPI   C2A14228   6.044   2.618   7.426 -0.0036 -0.0047 -0.1359
  974loPI   C3A14229   5.962   2.625   7.835  0.1921 -0.1536  0.1440
  974loPI   C4A14230   5.867   2.600   8.213 -0.2967  0.0673 -0.1019
  974loPI   C5A14231   5.883   2.641   8.585 -0.0364 -0.0075  0.0301
  974loPI   C6A14232   5.711   2.868   8.902 -0.1902 -0.0909  0.1174
  974loPI   C1B14233   6.257   2.211   7.190 -0.1691  0.0304 -0.1573
  974loPI   C2B14234   6.249   2.194   7.574 -0.2204  0.2948  0.3852
  974loPI   C3B14235   6.215   2.219   7.924  0.2918  0.0610  0.1010
  974loPI   C4B14236   6.200   2.157   8.329 -0.1220  0.0178  0.1754
  975loPI    C114237  12.821  13.583   5.806 -0.0508  0.1790 -0.0060
  975loPI    C214238  12.616  13.725   5.493 -0.1879  0.1347  0.0630
  975loPI    C314239  12.993  13.844   5.556 -0.1072  0.0280 -0.2051
  975loPI   PO414240  12.663  13.696   6.152 -0.4348 -0.4750  0.1172
  975loPI   GL114241  12.536  13.492   6.600  0.0248  0.0920 -0.1828
  975loPI   GL214242  12.258  13.538   6.425 -0.0545  0.2143  0.1051
  975loPI   C1A14243  12.491  13.579   6.989  0.0543 -0.0695 -0.0067
  975loPI   C2A14244  12.418  13.674   7.458 -0.2485 -0.1052 -0.0440
  975loPI   C3A14245  12.510  13.640   7.873 -0.3073 -0.1590 -0.0234
  975loPI   C4A14246  12.511  13.630   8.279  0.0695 -0.0664  0.0070
  975loPI   C5A14247  12.458  13.510   8.647  0.1459 -0.0890  0.0284
  975loPI   C6A14248  12.785  13.241   8.899  0.1424  0.1103  0.0284
  975loPI   C1B14249  12.026  13.474   6.812  0.2059  0.1576 -0.1865
  975loPI   C2B14250  11.970  13.515   7.290  0.2350 -0.1081  0.1266
  975loPI   C3B14251  11.976  13.474   7.710  0.1159  0.0179 -0.0876
  975loPI   C4B14252  11.972  13.573   8.183  0.3499 -0.0596  0.2776
  976loPI    C114253   8.466  11.099   5.891  0.1113 -0.0602 -0.0627
  976loPI    C214254   8.330  11.387   5.649  0.3620  0.1185  0.0049
  976loPI    C314255   8.506  11.063   5.494 -0.0769 -0.0867 -0.0800
  976loPI   PO414256   8.584  11.212   6.149  0.1048 -0.1557  0.2164
  976loPI   GL114257   8.376  11.357   6.578  0.2657  0.0535 -0.0287
  976loPI   GL214258   8.532  11.645   6.372 -0.0981  0.2444 -0.1243
  976loPI   C1A14259   8.524  11.272   7.002  0.0732  0.0911  0.1139
  976loPI   C2A14260   8.570  11.289   7.461  0.1557  0.0865  0.1551
  976loPI   C3A14261   8.473  11.379   7.858 -0.0378  0.1173  0.3944
  976loPI   C4A14262   8.568  11.323   8.362  0.2103 -0.0106 -0.2894
  976loPI   C5A14263   8.750  11.326   8.724 -0.3811 -0.0955  0.2974
  976loPI   C6A14264   9.088  11.358   9.147 -0.1013 -0.1492 -0.1529
  976loPI   C1B14265   8.644  11.724   6.802 -0.3255 -0.1499  0.0436
  976loPI   C2B14266   8.679  11.770   7.275  0.0044  0.1506  0.2588
  976loPI   C3B14267   8.695  11.838   7.772  0.2615 -0.0768  0.0802
  976loPI   C4B14268   8.787  11.883   8.131 -0.2032 -0.0803  0.2458
  977loPI    C114269  14.334   0.709   6.463  0.0189 -0.0409 -0.0155
  977loPI    C214270  14.576   0.993   6.321 -0.0318  0.0039 -0.0125
  977loPI    C314271  14.442   0.705   6.078 -0.1116  0.0756 -0.0538
  977loPI   PO414272  14.353   0.870   6.724 -0.0619 -0.0265 -0.4747
  977loPI   GL114273  14.236   0.754   7.194 -0.1398  0.1249 -0.1964
  977loPI   GL214274  14.551   0.559   7.163  0.2310  0.1927  0.0263
  977loPI   C1A14275  14.204   0.866   7.659 -0.0168 -0.1993  0.1369
  977loPI   C2A14276  14.185   0.942   8.092  0.0458 -0.0756 -0.0642
  977loPI   C3A14277  13.994   1.153   8.489  0.0647  0.0223  0.2670
  977loPI   C4A14278  13.728   1.459   8.675 -0.1637  0.1306 -0.4271
  977loPI   C5A14279  13.430   1.663   8.823 -0.1534 -0.0161 -0.1600
  977loPI   C6A14280  13.187   1.956   8.666  0.0895 -0.1616  0.1662
  977loPI   C1B14281  14.386   0.347   7.471  0.1273  0.0867  0.0233
  977loPI   C2B14282  14.414   0.396   7.815 -0.4595 -0.1394  0.3152
  977loPI   C3B14283  14.358   0.422   8.252  0.0206 -0.2062  0.2222
  977loPI   C4B14284  14.207   0.641   8.538 -0.1153  0.1036 -0.0655
  978loPI    C114285   1.835   1.856   6.681 -0.3468  0.0478  0.0067
  978loPI    C214286   1.903   2.040   6.332  0.0513  0.0745  0.0948
  978loPI    C314287   2.063   1.680   6.403 -0.2453 -0.0488  0.1499
  978loPI   PO414288   1.648   1.980   6.729 -0.1731 -0.1391  0.3007
  978loPI   GL114289   1.445   1.742   6.981 -0.0033  0.0740  0.0707
  978loPI   GL214290   1.182   1.529   7.007 -0.1354  0.1734  0.0379
  978loPI   C1A14291   1.704   1.515   7.337 -0.0978  0.2576  0.0417
  978loPI   C2A14292   1.791   1.416   7.863 -0.0522 -0.0474 -0.1922
  978loPI   C3A14293   1.837   1.463   8.307  0.2693 -0.0340 -0.3435
  978loPI   C4A14294   1.833   1.580   8.687  0.0701  0.3148 -0.3774
  978loPI   C5A14295   2.024   1.836   9.004  0.2994 -0.0789  0.0051
  978loPI   C6A14296   2.332   2.109   9.069 -0.1051  0.0213 -0.1896
  978loPI   C1B14297   1.233   1.467   7.343  0.2374  0.2490 -0.0973
  978loPI   C2B14298   1.264   1.324   7.697  0.0021  0.0433  0.1476
  978loPI   C3B14299   1.233   1.444   8.102  0.0833 -0.0153  0.2357
  978loPI   C4B14300   1.347   1.539   8.524 -0.1458 -0.2189  0.0042
  979loPI    C114301  14.527   2.513   6.687 -0.0196  0.1693 -0.0047
  979loPI    C214302  14.843   2.290   6.585 -0.1030 -0.0056  0.1163
  979loPI    C314303  14.538   2.335   6.329 -0.0383  0.0573  0.0501
  979loPI   PO414304  14.659   2.672   6.846  0.2228  0.1388  0.0857
  979loPI   GL114305  14.865   2.740   7.243 -0.2460 -0.0668 -0.1854
  979loPI   GL214306  14.964   2.959   7.450 -0.1880  0.0383  0.1418
  979loPI   C1A14307  15.055   2.533   7.628 -0.1667  0.1974 -0.1358
  979loPI   C2A14308  15.053   2.513   8.044 -0.2877 -0.2299 -0.0494
  979loPI   C3A14309  15.092   2.260   8.403  0.1586  0.0289 -0.1289
  979loPI   C4A14310  15.275   2.213   8.696 -0.0765  0.0888 -0.0989
  979loPI   C5A14311  15.496   2.360   9.055  0.1831  0.0350  0.1334
  979loPI   C6A14312  15.847   2.622   9.339  0.0584  0.4686 -0.1521
  979loPI   C1B14313  14.949   3.113   7.963 -0.0086 -0.0725  0.1610
  979loPI   C2B14314  14.959   2.914   8.355 -0.1128 -0.0361 -0.3647
  979loPI   C3B14315  15.030   2.987   8.845  0.0877 -0.0921  0.1505
  979loPI   C4B14316  14.743   3.053   9.136 -0.1170 -0.1589  0.3227
  980loPI    C114317   8.074   3.151   6.011 -0.4439  0.1241 -0.0347
  980loPI    C214318   7.962   2.825   5.807  0.0389 -0.0848  0.0191
  980loPI    C314319   8.113   3.140   5.613 -0.0096 -0.0686  0.0075
  980loPI   PO414320   8.072   3.062   6.319 -0.1910 -0.1162 -0.0107
  980loPI   GL114321   8.008   3.319   6.675  0.0329  0.2279  0.0997
  980loPI   GL214322   7.713   3.179   6.589  0.2201 -0.1739  0.0663
  980loPI   C1A14323   8.026   3.508   7.058  0.0290 -0.0131 -0.3587
  980loPI   C2A14324   8.037   3.524   7.460 -0.1139 -0.1481 -0.2611
  980loPI   C3A14325   8.059   3.626   7.942  0.1098 -0.2821  0.1679
  980loPI   C4A14326   8.126   3.500   8.399  0.0864 -0.0333  0.0776
  980loPI   C5A14327   8.148   3.682   8.809  0.1569 -0.0179 -0.1247
  980loPI   C6A14328   8.121   4.221   8.804  0.4384  0.1817 -0.0731
  980loPI   C1B14329   7.745   3.060   7.085  0.3207 -0.1079  0.0278
  980loPI   C2B14330   7.787   3.097   7.601  0.1761 -0.0660  0.3275
  980loPI   C3B14331   7.804   3.110   7.992 -0.0678 -0.2699 -0.3382
  980loPI   C4B14332   7.829   3.115   8.465  0.0062 -0.1448  0.1162
  981loPI    C114333  16.160  12.908   5.919 -0.0312  0.0212 -0.0372
  981loPI    C214334  15.988  13.045   5.586  0.0280  0.0929 -0.0386
  981loPI    C314335  16.183  12.696   5.581 -0.3613 -0.1322  0.0316
  981loPI   PO414336  15.978  12.814   6.125 -0.0476 -0.1068 -0.0495
  981loPI   GL114337  15.797  13.105   6.541 -0.1609  0.2517  0.2236
  981loPI   GL214338  16.102  12.877   6.590  0.0988 -0.0494 -0.0716
  981loPI   C1A14339  15.749  13.152   6.989 -0.1014  0.0310  0.1367
  981loPI   C2A14340  15.782  13.220   7.372  0.1238  0.1767 -0.2930
  981loPI   C3A14341  15.790  13.186   7.770  0.0079  0.1638 -0.0635
  981loPI   C4A14342  15.801  13.202   8.226 -0.2385 -0.0405  0.3270
  981loPI   C5A14343  15.633  13.047   8.606 -0.0922 -0.0092 -0.0379
  981loPI   C6A14344  15.627  13.197   8.953 -0.0565 -0.1050 -0.0666
  981loPI   C1B14345  16.140  12.706   7.051  0.1536 -0.0268  0.0326
  981loPI   C2B14346  16.134  12.823   7.540  0.3342 -0.1248 -0.1235
  981loPI   C3B14347  16.075  12.757   7.942 -0.0140 -0.2788 -0.2995
  981loPI   C4B14348  16.058  12.761   8.387  0.1284 -0.1325  0.3012
  982loPI    C114349  14.367   4.578   6.177  0.1916 -0.1509  0.0925
  982loPI    C214350  14.298   4.187   6.127 -0.0648 -0.0998  0.0317
  982loPI    C314351  14.487   4.396   5.842 -0.2752 -0.1000 -0.1104
  982loPI   PO414352  14.535   4.611   6.391  0.5023  0.2609 -0.0201
  982loPI   GL114353  14.565   4.717   6.797 -0.0126 -0.1465 -0.0780
  982loPI   GL214354  14.625   4.461   6.876  0.0324  0.1282 -0.0467
  982loPI   C1A14355  14.573   4.870   7.255  0.1375  0.3317  0.1460
  982loPI   C2A14356  14.597   5.031   7.565 -0.0402 -0.3000  0.0514
  982loPI   C3A14357  14.489   5.121   7.930 -0.1344  0.1667 -0.2326
  982loPI   C4A14358  14.394   5.164   8.347 -0.2282  0.1761 -0.1798
  982loPI   C5A14359  14.475   5.380   8.687  0.1949  0.0819  0.1147
  982loPI   C6A14360  14.431   5.695   8.969  0.1127  0.2933  0.2068
  982loPI   C1B14361  14.397   4.438   7.255  0.0622  0.2997  0.2255
  982loPI   C2B14362  14.326   4.615   7.661 -0.0222 -0.1000  0.0870
  982loPI   C3B14363  14.272   4.683   8.087 -0.1872 -0.1418 -0.0170
  982loPI   C4B14364  14.232   4.747   8.522 -0.0541 -0.3703  0.1880
  983loPI    C114365   5.702  11.947   6.358 -0.0829 -0.0281  0.2047
  983loPI    C214366   5.632  11.816   5.987  0.1257  0.0571  0.1339
  983loPI    C314367   5.464  12.156   6.114 -0.2214 -0.1475  0.2361
  983loPI   PO414368   6.027  11.811   6.347  0.0300  0.1324 -0.0294
  983loPI   GL114369   6.225  11.523   6.650  0.0356 -0.2996  0.0646
  983loPI   GL214370   6.086  11.252   6.659 -0.0944 -0.1088 -0.2588
  983loPI   C1A14371   6.543  11.486   6.884 -0.0068 -0.1735  0.0108
  983loPI   C2A14372   6.752  11.452   7.259  0.2306 -0.0144 -0.0973
  983loPI   C3A14373   6.752  11.536   7.651  0.2399 -0.1306 -0.2589
  983loPI   C4A14374   6.675  11.614   8.063 -0.0144  0.3103  0.0439
  983loPI   C5A14375   6.261  11.584   8.369 -0.1501 -0.0262  0.1735
  983loPI   C6A14376   6.155  11.975   8.588 -0.2789 -0.2246  0.0461
  983loPI   C1B14377   6.298  10.998   7.016  0.0274 -0.2147  0.2299
  983loPI   C2B14378   6.382  11.099   7.464  0.1444  0.1125  0.1060
  983loPI   C3B14379   6.421  11.178   7.863 -0.1499  0.1385 -0.1411
  983loPI   C4B14380   6.554  11.216   8.269  0.4338 -0.1572  0.1414
  984loPI    C114381   5.295   0.614   6.171 -0.0672 -0.0984 -0.0915
  984loPI    C214382   4.910   0.558   6.078 -0.0790 -0.0254 -0.0869
  984loPI    C314383   5.178   0.270   6.002 -0.1333 -0.0740 -0.0953
  984loPI   PO414384   5.375   0.571   6.463 -0.2687 -0.0356 -0.2497
  984loPI   GL114385   5.802   0.514   6.694 -0.0929  0.0545 -0.0687
  984loPI   GL214386   5.983   0.794   6.619 -0.1421  0.1948 -0.0860
  984loPI   C1A14387   6.173   0.325   6.849 -0.0020 -0.1738  0.2037
  984loPI   C2A14388   6.284   0.274   7.265  0.0397 -0.1413 -0.0757
  984loPI   C3A14389   6.311   0.336   7.714 -0.0101 -0.1263 -0.3387
  984loPI   C4A14390   6.403   0.337   8.121  0.2293  0.0559 -0.1898
  984loPI   C5A14391   6.235   0.363   8.519  0.1890 -0.0953 -0.4209
  984loPI   C6A14392   6.119   0.309   8.960  0.0064  0.2787  0.0354
  984loPI   C1B14393   5.899   0.749   7.085 -0.0705  0.2197 -0.1330
  984loPI   C2B14394   5.979   0.807   7.496  0.1466 -0.0898  0.0155
  984loPI   C3B14395   6.110   0.813   7.959  0.3970 -0.1982 -0.2936
  984loPI   C4B14396   5.978   0.764   8.365  0.2129  0.1090  0.2180
  985loPI    C114397  13.927  11.856   5.943  0.0523  0.0446 -0.1015
  985loPI    C214398  13.544  11.899   5.837  0.0587  0.1037 -0.1012
  985loPI    C314399  13.774  11.629   5.652 -0.1655 -0.4294  0.3653
  985loPI   PO414400  13.909  11.924   6.199  0.0308  0.0351 -0.2781
  985loPI   GL114401  14.181  11.809   6.514 -0.0501  0.1542  0.3258
  985loPI   GL214402  14.284  12.043   6.689 -0.0379  0.0600 -0.0308
  985loPI   C1A14403  14.134  11.594   6.869 -0.0329 -0.3809 -0.2808
  985loPI   C2A14404  14.202  11.607   7.193  0.0310  0.0235 -0.0340
  985loPI   C3A14405  14.264  11.589   7.621  0.1768  0.0176  0.0164
  985loPI   C4A14406  14.159  11.674   8.010  0.2780  0.1048 -0.0990
  985loPI   C5A14407  13.951  11.557   8.475  0.1715  0.2481 -0.2575
  985loPI   C6A14408  14.015  11.312   8.823 -0.2149 -0.0913 -0.0002
  985loPI   C1B14409  14.347  12.092   7.098  0.0529  0.0911  0.2639
  985loPI   C2B14410  14.450  12.106   7.448  0.1168  0.0445 -0.0443
  985loPI   C3B14411  14.381  12.053   7.808  0.0364  0.3155  0.1655
  985loPI   C4B14412  14.197  12.111   8.210  0.1366  0.2078 -0.1760
  986loPI    C114413   8.405   1.656   6.138 -0.1665 -0.0341  0.1838
  986loPI    C214414   8.331   1.772   6.513 -0.1518  0.0016  0.1757
  986loPI    C314415   8.200   1.417   6.384 -0.0971 -0.0407  0.2357
  986loPI   PO414416   8.703   1.685   6.152  0.1214 -0.0806  0.1489
  986loPI   GL114417   8.791   1.492   6.536  0.0467  0.1027 -0.2075
  986loPI   GL214418   9.160   1.624   6.463 -0.4226  0.2417  0.1630
  986loPI   C1A14419   8.836   1.366   6.973 -0.1773 -0.1191  0.0930
  986loPI   C2A14420   8.803   1.363   7.415  0.1046 -0.0599  0.1769
  986loPI   C3A14421   8.806   1.387   7.868 -0.1117  0.2378  0.0362
  986loPI   C4A14422   9.018   1.272   8.285 -0.0500  0.1037 -0.0641
  986loPI   C5A14423   9.305   1.032   8.630 -0.2026 -0.3066  0.1667
  986loPI   C6A14424   9.418   1.038   9.094  0.0139  0.0507 -0.0004
  986loPI   C1B14425   9.184   1.837   6.824 -0.0467  0.1502 -0.1395
  986loPI   C2B14426   9.070   1.808   7.197 -0.0131  0.1639  0.0396
  986loPI   C3B14427   9.058   1.820   7.624 -0.1815  0.1995 -0.2222
  986loPI   C4B14428   9.061   1.795   8.069 -0.0207 -0.2899  0.1347
  987loPI    C114429  12.943  10.639   5.976 -0.1206  0.0116  0.0340
  987loPI    C214430  12.880  11.003   5.824 -0.2194 -0.0471 -0.0675
  987loPI    C314431  12.663  10.693   5.695  0.0199 -0.1839 -0.1465
  987loPI   PO414432  12.946  10.642   6.211  0.3914 -0.1734 -0.0514
  987loPI   GL114433  12.770  10.387   6.595 -0.3020 -0.2498  0.0083
  987loPI   GL214434  12.501  10.368   6.581  0.1918 -0.1457 -0.2473
  987loPI   C1A14435  12.744  10.534   7.059  0.3493 -0.0769  0.0861
  987loPI   C2A14436  12.753  10.544   7.507  0.0263  0.2494 -0.1655
  987loPI   C3A14437  12.657  10.448   7.935  0.0169 -0.0625  0.3270
  987loPI   C4A14438  12.576  10.438   8.433  0.1204 -0.1012  0.0565
  987loPI   C5A14439  12.667  10.382   8.841 -0.0485 -0.1488  0.1978
  987loPI   C6A14440  12.715  10.489   9.251  0.3496 -0.1104 -0.2162
  987loPI   C1B14441  12.516  10.090   6.924  0.2730 -0.2210  0.1414
  987loPI   C2B14442  12.518  10.111   7.411 -0.0526  0.1905 -0.0832
  987loPI   C3B14443  12.369  10.001   7.805  0.0388 -0.1768 -0.2153
  987loPI   C4B14444  12.360  10.016   8.203 -0.0277 -0.0620 -0.0955
  988loPI    C114445   6.399   1.340   6.032  0.0294  0.3301  0.1255
  988loPI    C214446   6.516   1.562   5.721  0.0921  0.0998 -0.0182
  988loPI    C314447   6.565   1.165   5.712 -0.1806  0.0597  0.1603
  988loPI   PO414448   6.550   1.446   6.253  0.0001  0.2869 -0.1499
  988loPI   GL114449   6.595   1.316   6.658  0.0165 -0.0007 -0.1443
  988loPI   GL214450   6.270   1.186   6.670  0.2248  0.1952  0.3040
  988loPI   C1A14451   6.659   1.286   7.155  0.2231 -0.1840 -0.3317
  988loPI   C2A14452   6.822   1.352   7.561  0.0205  0.1697 -0.2415
  988loPI   C3A14453   6.742   1.304   7.960 -0.0267  0.1817 -0.2527
  988loPI   C4A14454   6.845   1.369   8.356 -0.1149  0.0884  0.1195
  988loPI   C5A14455   7.226   1.486   8.613  0.2482 -0.0097 -0.0020
  988loPI   C6A14456   7.442   1.244   8.812  0.1721  0.0897 -0.1143
  988loPI   C1B14457   6.213   1.120   7.097  0.2161 -0.0236  0.0274
  988loPI   C2B14458   6.228   1.251   7.499  0.3290  0.1011 -0.1805
  988loPI   C3B14459   6.263   1.327   7.863  0.0595 -0.1852 -0.0999
  988loPI   C4B14460   6.214   1.218   8.278  0.0349  0.0584 -0.0681
  989loPI    C114461   9.636   3.856   6.070  0.1048  0.0748  0.0930
  989loPI    C214462   9.335   4.005   5.852 -0.1314 -0.2708  0.1745
  989loPI    C314463   9.660   3.857   5.671 -0.0735 -0.0334  0.0809
  989loPI   PO414464   9.545   3.982   6.315 -0.0811  0.0334  0.0265
  989loPI   GL114465   9.777   3.849   6.653 -0.0154 -0.4276 -0.2152
  989loPI   GL214466   9.820   4.094   6.868  0.0305 -0.2530 -0.2844
  989loPI   C1A14467   9.594   3.694   7.120  0.0214 -0.1318  0.0315
  989loPI   C2A14468   9.645   3.679   7.538 -0.0195  0.0022 -0.3304
  989loPI   C3A14469   9.630   3.513   7.962  0.0115 -0.1948  0.1776
  989loPI   C4A14470   9.575   3.478   8.337 -0.3921  0.0867 -0.1407
  989loPI   C5A14471   9.328   3.505   8.626 -0.1701  0.1675 -0.0557
  989loPI   C6A14472   9.106   3.814   8.836  0.1312  0.2005  0.2919
  989loPI   C1B14473   9.762   4.115   7.334  0.1285 -0.2584 -0.1513
  989loPI   C2B14474   9.889   4.046   7.713 -0.1287  0.0988 -0.0704
  989loPI   C3B14475   9.825   3.964   8.144  0.1483  0.2273 -0.1905
  989loPI   C4B14476   9.919   4.095   8.538  0.2115  0.0609  0.0462
  990loPI    C114477  14.444  11.250   5.967  0.0052 -0.2225 -0.1375
  990loPI    C214478  14.634  11.463   5.686  0.0883 -0.1855 -0.0542
  990loPI    C314479  14.234  11.470   5.707  0.0894 -0.0553 -0.0661
  990loPI   PO414480  14.582  11.291   6.230 -0.1640  0.0050 -0.0923
  990loPI   GL114481  14.800  11.431   6.597  0.2703  0.2245 -0.0615
  990loPI   GL214482  14.576  11.582   6.702 -0.0121 -0.1098 -0.2368
  990loPI   C1A14483  14.894  11.212   6.887 -0.0417 -0.1577  0.1516
  990loPI   C2A14484  14.963  11.169   7.319 -0.2526 -0.0337 -0.3056
  990loPI   C3A14485  14.957  11.288   7.701 -0.0583 -0.1837  0.0732
  990loPI   C4A14486  14.964  11.280   8.111  0.0967 -0.0550 -0.3309
  990loPI   C5A14487  15.231  11.231   8.521  0.2979  0.1618  0.1153
  990loPI   C6A14488  15.611  11.354   8.582 -0.0540  0.0282  0.1243
  990loPI   C1B14489  14.676  11.632   7.157 -0.0013  0.1726  0.0737
  990loPI   C2B14490  14.750  11.687   7.652  0.0571 -0.0077 -0.0470
  990loPI   C3B14491  14.638  11.657   8.093  0.2045 -0.1266 -0.0470
  990loPI   C4B14492  14.419  11.790   8.426 -0.1613  0.0205 -0.0297
  991loPI    C114493   8.013   3.927   5.995  0.0630 -0.0994 -0.1356
  991loPI    C214494   7.712   3.841   5.745 -0.0027  0.1977 -0.1627
  991loPI    C314495   8.052   3.630   5.730 -0.1595 -0.0547 -0.2208
  991loPI   PO414496   7.943   3.945   6.215 -0.1536 -0.2182  0.0667
  991loPI   GL114497   7.833   3.814   6.552  0.0332 -0.0452 -0.0077
  991loPI   GL214498   7.754   3.979   6.728  0.2376  0.3006 -0.2316
  991loPI   C1A14499   7.533   3.542   6.919  0.0159 -0.0278  0.0655
  991loPI   C2A14500   7.506   3.441   7.319  0.1000  0.2549  0.2597
  991loPI   C3A14501   7.544   3.526   7.788 -0.3751 -0.0094 -0.1502
  991loPI   C4A14502   7.524   3.530   8.255 -0.1092  0.0965 -0.4182
  991loPI   C5A14503   7.571   3.562   8.669 -0.2216 -0.2245  0.2313
  991loPI   C6A14504   7.526   3.392   9.145 -0.0760  0.2783 -0.2065
  991loPI   C1B14505   7.760   3.908   7.169  0.1500 -0.0824  0.4190
  991loPI   C2B14506   7.811   3.957   7.549 -0.0451  0.0194  0.1566
  991loPI   C3B14507   7.760   4.022   7.929  0.0009  0.1294  0.1599
  991loPI   C4B14508   7.888   3.972   8.406 -0.0317  0.0199 -0.2707
  992loPI    C114509   4.488  14.116   5.987 -0.1330 -0.0132  0.0097
  992loPI    C214510   4.131  14.010   6.131 -0.0990  0.0162  0.1162
  992loPI    C314511   4.159  14.166   5.764 -0.1961  0.0196  0.1097
  992loPI   PO414512   4.587  14.260   6.222 -0.2247  0.2495  0.1228
  992loPI   GL114513   4.852  14.377   6.506 -0.2541  0.1648 -0.2155
  992loPI   GL214514   4.501  14.397   6.703  0.0039  0.2988 -0.0476
  992loPI   C1A14515   4.999  14.444   6.900  0.4128  0.0322  0.0376
  992loPI   C2A14516   5.025  14.517   7.369  0.0444 -0.0031  0.2168
  992loPI   C3A14517   5.064  14.556   7.868  0.0450 -0.3278  0.3037
  992loPI   C4A14518   5.014  14.434   8.258 -0.1583 -0.0039 -0.0968
  992loPI   C5A14519   4.984  14.388   8.607 -0.4204 -0.0862 -0.3633
  992loPI   C6A14520   5.077  14.216   9.033 -0.0575  0.2030 -0.0993
  992loPI   C1B14521   4.530  14.474   7.162 -0.1445  0.0422 -0.0433
  992loPI   C2B14522   4.514  14.515   7.669  0.0463 -0.1488 -0.0055
  992loPI   C3B14523   4.536  14.338   8.060  0.1095  0.2929 -0.1828
  992loPI   C4B14524   4.555  14.219   8.490 -0.0378 -0.1819 -0.0894
  993loPI    C114525  15.711  12.640   5.750  0.0719 -0.0063  0.0468
  993loPI    C214526  15.521  12.627   5.398  0.1669  0.1208 -0.0099
  993loPI    C314527  15.808  12.361   5.481  0.1604  0.1052 -0.0379
  993loPI   PO414528  15.531  12.625   5.920  0.0258 -0.0624 -0.2414
  993loPI   GL114529  15.636  12.570   6.347 -0.1447 -0.2022 -0.0972
  993loPI   GL214530  15.829  12.297   6.431 -0.0908  0.1498  0.1533
  993loPI   C1A14531  15.631  12.729   6.780  0.2526  0.1476  0.3093
  993loPI   C2A14532  15.660  12.723   7.219  0.1163 -0.1246  0.2522
  993loPI   C3A14533  15.600  12.624   7.604 -0.0911  0.0371  0.0927
  993loPI   C4A14534  15.551  12.627   8.070 -0.0025  0.0225  0.0862
  993loPI   C5A14535  15.525  12.598   8.486  0.2731  0.0800  0.1862
  993loPI   C6A14536  15.732  12.268   8.703 -0.0448 -0.1433  0.1655
  993loPI   C1B14537  15.946  12.246   6.764 -0.0459  0.0852  0.0198
  993loPI   C2B14538  15.929  12.241   7.179  0.0118  0.2352 -0.0119
  993loPI   C3B14539  15.898  12.252   7.692 -0.0656  0.1309 -0.2776
  993loPI   C4B14540  15.910  12.265   8.143 -0.1037 -0.3355 -0.0402
  994loPI    C114541   0.675   8.758   5.869  0.1625  0.1189  0.1619
  994loPI    C214542   1.066   8.789   5.945  0.2547 -0.0067 -0.2352
  994loPI    C314543   0.921   8.456   5.779  0.0175  0.1364 -0.3195
  994loPI   PO414544   0.491   8.865   6.158  0.1634  0.1208  0.1252
  994loPI   GL114545   0.372   8.673   6.579  0.1424  0.1646  0.0873
  994loPI   GL214546   0.596   8.944   6.645 -0.2179 -0.1948  0.2431
  994loPI   C1A14547   0.155   8.733   6.875  0.2876  0.1881  0.1203
  994loPI   C2A14548   0.251   8.647   7.271 -0.2506  0.2041 -0.0742
  994loPI   C3A14549   0.360   8.686   7.709  0.2664 -0.1626  0.4058
  994loPI   C4A14550   0.581   8.785   8.107 -0.0926  0.0946  0.0083
  994loPI   C5A14551   0.646   8.833   8.608 -0.0752  0.1187  0.0818
  994loPI   C6A14552   0.298   8.984   8.847 -0.0967 -0.0803  0.1235
  994loPI   C1B14553   0.390   9.161   7.038  0.0406  0.1538  0.4223
  994loPI   C2B14554   0.393   9.129   7.481 -0.0078  0.0611  0.1030
  994loPI   C3B14555   0.340   9.257   7.957 -0.0138  0.1103 -0.1326
  994loPI   C4B14556   0.143   9.255   8.439 -0.1523  0.2583 -0.0719
  995loPI    C114557   0.204   9.780   5.872 -0.0764 -0.0537  0.0020
  995loPI    C214558  -0.098  10.039   5.909 -0.1149 -0.1127  0.1070
  995loPI    C314559  -0.052   9.832   5.570 -0.0225  0.1075 -0.0167
  995loPI   PO414560   0.240   9.703   6.077 -0.2258  0.1562 -0.0221
  995loPI   GL114561  -0.020   9.592   6.449 -0.1047 -0.0160  0.0730
  995loPI   GL214562  -0.161   9.857   6.394  0.0151  0.2167  0.2262
  995loPI   C1A14563   0.132   9.616   6.823  0.0977 -0.1259  0.0937
  995loPI   C2A14564   0.152   9.522   7.284  0.0816  0.0062  0.0279
  995loPI   C3A14565   0.062   9.640   7.693 -0.0092 -0.2061  0.1242
  995loPI   C4A14566   0.073   9.671   8.073 -0.0823 -0.1950  0.0407
  995loPI   C5A14567  -0.143   9.652   8.367  0.2583 -0.3560  0.0487
  995loPI   C6A14568  -0.449   9.928   8.610 -0.2646  0.0702 -0.0200
  995loPI   C1B14569  -0.261  10.135   6.733 -0.1644 -0.4290  0.3234
  995loPI   C2B14570  -0.232  10.160   7.156 -0.0844 -0.1734  0.2351
  995loPI   C3B14571  -0.263  10.043   7.608  0.1739  0.1999  0.1006
  995loPI   C4B14572  -0.217  10.137   8.070 -0.0639 -0.1536 -0.2260
  996loPI    C114573   3.449   7.427   6.135  0.0851 -0.1127  0.0609
  996loPI    C214574   3.800   7.386   5.947  0.1525  0.0198  0.1562
  996loPI    C314575   3.530   7.650   5.813 -0.0112 -0.2524 -0.0613
  996loPI   PO414576   3.523   7.505   6.401 -0.1830 -0.0868 -0.0092
  996loPI   GL114577   3.450   7.404   6.848 -0.3127 -0.0585 -0.1744
  996loPI   GL214578   3.683   7.121   6.884 -0.1951 -0.0101 -0.0421
  996loPI   C1A14579   3.230   7.151   7.194 -0.0754  0.1511  0.2091
  996loPI   C2A14580   3.211   7.098   7.711 -0.2474  0.0673  0.0534
  996loPI   C3A14581   3.294   7.077   8.155  0.1906  0.1769  0.0291
  996loPI   C4A14582   3.090   7.097   8.598 -0.0253 -0.2119  0.0974
  996loPI   C5A14583   3.425   6.919   8.994 -0.0594  0.2259  0.1059
  996loPI   C6A14584   3.871   7.002   9.115 -0.1655 -0.1913  0.0506
  996loPI   C1B14585   3.760   7.118   7.329  0.0711  0.0412 -0.0245
  996loPI   C2B14586   3.752   7.124   7.753 -0.1361  0.2066  0.1438
  996loPI   C3B14587   3.752   7.174   8.160 -0.0387 -0.0863  0.0244
  996loPI   C4B14588   3.629   7.088   8.556 -0.1524 -0.2375 -0.0007
  997loPI    C114589   1.906   9.264   6.127 -0.0212 -0.0281  0.1170
  997loPI    C214590   2.180   9.493   5.947  0.0658 -0.1302  0.1186
  997loPI    C314591   1.934   9.266   5.728  0.0108 -0.0712  0.1189
  997loPI   PO414592   1.825   9.417   6.292  0.0972  0.0059  0.2262
  997loPI   GL114593   1.593   9.245   6.667 -0.1432  0.0641  0.1697
  997loPI   GL214594   1.341   9.447   6.819 -0.2320 -0.0705  0.0093
  997loPI   C1A14595   1.766   9.384   7.091 -0.2960  0.2411  0.0873
  997loPI   C2A14596   1.738   9.472   7.490 -0.2126 -0.1761 -0.1456
  997loPI   C3A14597   1.781   9.379   7.924  0.0207  0.0184  0.0547
  997loPI   C4A14598   1.861   9.284   8.331 -0.0722  0.0456 -0.1264
  997loPI   C5A14599   1.612   9.126   8.791 -0.0858 -0.1884 -0.2356
  997loPI   C6A14600   1.533   9.195   9.254 -0.2397  0.0074  0.0214
  997loPI   C1B14601   1.301   9.407   7.254 -0.0180  0.0441  0.1763
  997loPI   C2B14602   1.220   9.454   7.693 -0.0145  0.1162 -0.1231
  997loPI   C3B14603   1.287   9.281   8.041 -0.1163  0.0314 -0.0661
  997loPI   C4B14604   1.265   9.380   8.459 -0.0179  0.0858 -0.1018
  998loPI    C114605   8.820  14.204   6.018  0.0107  0.0572  0.0734
  998loPI    C214606   8.867  13.875   5.794 -0.0179  0.1451 -0.0629
  998loPI    C314607   8.959  14.234   5.644  0.0983  0.1914  0.1162
  998loPI   PO414608   8.852  14.186   6.232  0.2635 -0.0390 -0.0201
  998loPI   GL114609   8.765  14.373   6.631  0.1102  0.2905  0.4392
  998loPI   GL214610   8.956  14.555   6.598 -0.1531 -0.2638  0.1683
  998loPI   C1A14611   8.427  14.386   6.999 -0.2150  0.2135  0.1647
  998loPI   C2A14612   8.356  14.522   7.293  0.0880  0.0764 -0.2480
  998loPI   C3A14613   8.585  14.503   7.602 -0.1085  0.2152 -0.0321
  998loPI   C4A14614   8.454  14.509   7.920 -0.0609 -0.0744 -0.0243
  998loPI   C5A14615   8.425  14.502   8.383 -0.0453 -0.1673  0.2517
  998loPI   C6A14616   8.311  14.307   8.728  0.0657  0.2635 -0.2355
  998loPI   C1B14617   8.928  14.548   7.066 -0.4213 -0.0902  0.0595
  998loPI   C2B14618   9.002  14.681   7.426  0.0365  0.2474  0.0668
  998loPI   C3B14619   9.041  14.537   7.826  0.0380 -0.2507  0.0001
  998loPI   C4B14620   8.892  14.523   8.222  0.0878  0.0081 -0.0422
  999loPI    C114621   4.096   9.386   5.922  0.0102 -0.1109 -0.1733
  999loPI    C214622   4.336   9.663   6.084 -0.1476 -0.1224  0.0858
  999loPI    C314623   4.472   9.427   5.791  0.0216  0.1558 -0.0636
  999loPI   PO414624   4.051   9.284   6.186  0.0688 -0.1666  0.1155
  999loPI   GL114625   3.905   9.318   6.576  0.0452 -0.2078 -0.1658
  999loPI   GL214626   3.833   9.630   6.518 -0.0104  0.0588 -0.1839
  999loPI   C1A14627   3.869   9.318   7.026  0.1026 -0.5928 -0.2006
  999loPI   C2A14628   3.844   9.418   7.411 -0.2389 -0.0195  0.0306
  999loPI   C3A14629   3.833   9.345   7.771  0.0079  0.2845  0.0396
  999loPI   C4A14630   3.994   9.304   8.156 -0.0940  0.1899 -0.1413
  999loPI   C5A14631   4.298   9.524   8.450  0.0722  0.2549  0.4460
  999loPI   C6A14632   4.660   9.638   8.615  0.0749 -0.0851  0.0345
  999loPI   C1B14633   4.047   9.851   6.849  0.1152  0.0925 -0.1190
  999loPI   C2B14634   4.096   9.854   7.264 -0.3499  0.1588  0.3332
  999loPI   C3B14635   4.077   9.824   7.670  0.0737  0.1412  0.0246
  999loPI   C4B14636   4.253   9.891   8.083  0.1779  0.3041 -0.1051
 1000loPI    C114637  10.888   5.710   5.874  0.0532  0.1895 -0.0951
 1000loPI    C214638  10.573   5.867   5.683 -0.2309 -0.0732  0.1456
 1000loPI    C314639  10.766   5.553   5.527 -0.0665  0.1051 -0.0157
 1000loPI   PO414640  10.744   5.632   6.112  0.0815 -0.2586 -0.0672
 1000loPI   GL114641  10.494   5.491   6.416 -0.1983 -0.1152 -0.0882
 1000loPI   GL214642  10.550   5.795   6.538  0.1335  0.1838  0.0703
 1000loPI   C1A14643  10.557   5.424   6.884  0.1474 -0.1892 -0.1653
 1000loPI   C2A14644  10.623   5.486   7.285  0.1008 -0.1938  0.2615
 1000loPI   C3A14645  10.544   5.515   7.613  0.0103 -0.0256  0.3071
 1000loPI   C4A14646  10.620   5.397   8.006 -0.2023  0.3168  0.0263
 1000loPI   C5A14647  10.624   5.422   8.481 -0.0389  0.3942 -0.0295
 1000loPI   C6A14648  10.577   5.768   8.795  0.0756  0.3598 -0.1833
 1000loPI   C1B14649  10.336   5.899   6.963  0.0742 -0.0097 -0.2076
 1000loPI   C2B14650  10.298   5.885   7.333  0.1363 -0.1048 -0.3163
 1000loPI   C3B14651  10.307   5.894   7.841 -0.1985 -0.0468  0.1702
 1000loPI   C4B14652  10.444   5.806   8.196  0.2017 -0.1461 -0.1450
 1001loPI    C114653  15.407  13.440   5.987 -0.0204  0.2369 -0.0202
 1001loPI    C214654  15.773  13.281   6.004 -0.0918  0.1026  0.3712
 1001loPI    C314655  15.497  13.121   5.762  0.0780  0.1485  0.1431
 1001loPI   PO414656  15.328  13.503   6.262 -0.2885  0.1678 -0.1028
 1001loPI   GL114657  15.487  13.512   6.711  0.3339 -0.2607  0.0693
 1001loPI   GL214658  15.186  13.515   6.723  0.2230 -0.1544  0.1280
 1001loPI   C1A14659  15.439  13.615   7.124 -0.0004 -0.0800 -0.3900
 1001loPI   C2A14660  15.480  13.564   7.548  0.2520 -0.2421 -0.1626
 1001loPI   C3A14661  15.481  13.554   8.046 -0.1761 -0.1621  0.1086
 1001loPI   C4A14662  15.488  13.509   8.462 -0.1806 -0.2351  0.0228
 1001loPI   C5A14663  15.335  13.627   8.918  0.0593  0.1966 -0.0964
 1001loPI   C6A14664  14.842  13.792   9.093  0.1342  0.3924 -0.0332
 1001loPI   C1B14665  14.956  13.570   7.077  0.3114 -0.0789  0.1089
 1001loPI   C2B14666  14.903  13.544   7.522 -0.2203  0.1683 -0.0976
 1001loPI   C3B14667  14.933  13.481   7.875 -0.0822 -0.0332 -0.1104
 1001loPI   C4B14668  14.836  13.440   8.184 -0.0190  0.4566  0.0466
 1002loPI    C114669   4.174  16.481   5.941 -0.0914  0.0607 -0.0473
 1002loPI    C214670   4.342  16.119   5.945  0.1609  0.1765  0.1098
 1002loPI    C314671   3.970  16.165   5.806  0.2429 -0.0902 -0.2114
 1002loPI   PO414672   4.218  16.568   6.184 -0.0739  0.1255  0.0657
 1002loPI   GL114673   4.001  16.445   6.510  0.1706  0.0381 -0.4055
 1002loPI   GL214674   3.819  16.268   6.709  0.1470 -0.3199 -0.0473
 1002loPI   C1A14675   3.975  16.673   7.006 -0.1047  0.1472  0.0701
 1002loPI   C2A14676   3.865  16.680   7.426 -0.1425 -0.0142  0.0643
 1002loPI   C3A14677   3.872  16.724   7.820  0.0310  0.1316 -0.0877
 1002loPI   C4A14678   3.858  16.744   8.193  0.1605 -0.0379  0.0154
 1002loPI   C5A14679   3.943  17.088   8.398  0.1831 -0.3222  0.1332
 1002loPI   C6A14680   3.917  17.251   8.917  0.1003 -0.0385 -0.3083
 1002loPI   C1B14681   3.748  16.226   7.146  0.2266 -0.2322 -0.0940
 1002loPI   C2B14682   3.731  16.152   7.569  0.0703 -0.0597 -0.0795
 1002loPI   C3B14683   3.663  16.195   8.010 -0.0094 -0.0806 -0.1449
 1002loPI   C4B14684   3.724  16.271   8.408  0.2574 -0.2662 -0.1256
 1003loPI    C114685   5.914  14.605   6.207  0.2242  0.0006  0.0630
 1003loPI    C214686   5.647  14.464   5.944  0.0854 -0.0311  0.2187
 1003loPI    C314687   5.955  14.687   5.818  0.0299 -0.0603  0.0286
 1003loPI   PO414688   5.946  14.343   6.328  0.0556 -0.1262  0.0062
 1003loPI   GL114689   6.187  14.193   6.654 -0.0610 -0.0817 -0.0105
 1003loPI   GL214690   6.187  13.831   6.711  0.0052 -0.3128 -0.1392
 1003loPI   C1A14691   6.424  14.340   6.927 -0.1593 -0.1547 -0.4034
 1003loPI   C2A14692   6.269  14.257   7.393  0.3413  0.0185  0.1850
 1003loPI   C3A14693   6.373  14.335   7.769  0.2144  0.1922 -0.0899
 1003loPI   C4A14694   6.387  14.291   8.141  0.0286 -0.0445  0.1482
 1003loPI   C5A14695   6.307  14.409   8.593 -0.1455 -0.3420  0.1122
 1003loPI   C6A14696   6.132  14.742   8.840 -0.1118  0.0131  0.0876
 1003loPI   C1B14697   6.127  13.815   7.205  0.1609 -0.0963  0.1513
 1003loPI   C2B14698   6.198  13.754   7.664  0.0460 -0.0622  0.0971
 1003loPI   C3B14699   6.192  13.822   8.105  0.2102 -0.0555 -0.1328
 1003loPI   C4B14700   6.279  13.921   8.483  0.0728  0.1141  0.0180
 1004loPI    C114701   1.783   2.865   6.457  0.0287 -0.0182  0.1100
 1004loPI    C214702   1.881   3.224   6.312  0.0317 -0.0544  0.0217
 1004loPI    C314703   2.161   2.941   6.350  0.0443 -0.0240  0.1605
 1004loPI   PO414704   1.682   2.948   6.661 -0.0529  0.2565  0.4214
 1004loPI   GL114705   1.467   2.756   7.021  0.0241 -0.3952  0.4045
 1004loPI   GL214706   1.829   2.615   7.236 -0.0289  0.2456 -0.2764
 1004loPI   C1A14707   1.270   2.913   7.449  0.1612  0.2371 -0.0407
 1004loPI   C2A14708   1.300   3.012   7.858 -0.0580 -0.2014 -0.0878
 1004loPI   C3A14709   1.476   2.956   8.266 -0.0287  0.2253  0.0973
 1004loPI   C4A14710   1.642   3.014   8.682 -0.0636  0.1532  0.2038
 1004loPI   C5A14711   1.812   2.823   8.977  0.2094 -0.0455  0.0956
 1004loPI   C6A14712   1.687   2.710   9.281  0.0416  0.0142 -0.0003
 1004loPI   C1B14713   1.660   2.551   7.584 -0.3189 -0.2320  0.0919
 1004loPI   C2B14714   1.660   2.487   8.009  0.0125 -0.0672  0.0925
 1004loPI   C3B14715   1.841   2.490   8.446  0.1442 -0.1722  0.0784
 1004loPI   C4B14716   1.809   2.332   8.830  0.1382 -0.0073 -0.0771
 1005loPI    C114717  11.987  15.699   5.940 -0.0966  0.2535 -0.0235
 1005loPI    C214718  11.662  15.486   6.032  0.1465 -0.0125  0.2433
 1005loPI    C314719  11.823  15.456   5.668  0.1395 -0.2356  0.2576
 1005loPI   PO414720  12.099  15.748   6.134 -0.1322 -0.1825 -0.2128
 1005loPI   GL114721  12.067  15.617   6.556  0.1335 -0.3454  0.0898
 1005loPI   GL214722  12.286  15.385   6.761 -0.1261 -0.0958  0.1110
 1005loPI   C1A14723  11.960  15.710   7.025 -0.0759 -0.3157  0.2107
 1005loPI   C2A14724  11.995  15.752   7.470  0.0188  0.1977 -0.1393
 1005loPI   C3A14725  11.863  15.780   7.886 -0.1716  0.1675 -0.1223
 1005loPI   C4A14726  11.922  15.743   8.287  0.1211 -0.1883 -0.2473
 1005loPI   C5A14727  11.755  15.549   8.743  0.2612 -0.0565  0.1122
 1005loPI   C6A14728  11.615  15.168   8.909 -0.2342 -0.0370  0.3130
 1005loPI   C1B14729  12.282  15.340   7.125  0.2438  0.0593  0.1922
 1005loPI   C2B14730  12.300  15.367   7.534 -0.1165 -0.3847  0.0791
 1005loPI   C3B14731  12.251  15.310   7.968 -0.0785 -0.3241  0.1587
 1005loPI   C4B14732  12.191  15.302   8.440  0.0967 -0.0166  0.2529
 1006loPI    C114733  12.255   5.927   5.978 -0.0525  0.0958  0.0849
 1006loPI    C214734  11.899   5.971   5.801 -0.1103  0.1517  0.2134
 1006loPI    C314735  12.189   5.764   5.619 -0.2594 -0.0280  0.1777
 1006loPI   PO414736  12.185   5.969   6.282 -0.2209 -0.1099 -0.3276
 1006loPI   GL114737  12.040   5.719   6.643  0.3916  0.4554 -0.0627
 1006loPI   GL214738  12.302   5.598   6.685 -0.3135 -0.2424 -0.0130
 1006loPI   C1A14739  12.042   5.833   7.054  0.2964  0.0537  0.1544
 1006loPI   C2A14740  12.022   5.810   7.470 -0.0912 -0.2873  0.0299
 1006loPI   C3A14741  11.904   5.861   7.858 -0.0677  0.1556 -0.0637
 1006loPI   C4A14742  11.869   5.915   8.315  0.1195 -0.0026  0.2686
 1006loPI   C5A14743  12.092   6.182   8.640 -0.2671 -0.2520  0.2097
 1006loPI   C6A14744  11.811   6.561   8.808 -0.3047 -0.0468  0.2223
 1006loPI   C1B14745  12.327   5.452   7.124 -0.1439  0.1487  0.0706
 1006loPI   C2B14746  12.275   5.390   7.616 -0.1690 -0.2258  0.1793
 1006loPI   C3B14747  12.248   5.474   7.927 -0.0401  0.0966  0.1880
 1006loPI   C4B14748  12.142   5.394   8.317 -0.2518 -0.2715 -0.0824
 1007loPI    C114749   7.500  12.241   5.846  0.0671  0.0766 -0.0963
 1007loPI    C214750   7.505  12.540   5.581  0.3026  0.0467 -0.1280
 1007loPI    C314751   7.365  12.181   5.475 -0.3164  0.2338  0.0130
 1007loPI   PO414752   7.329  12.354   6.082 -0.2452  0.2405  0.1980
 1007loPI   GL114753   7.498  12.230   6.413 -0.0509  0.2842 -0.1098
 1007loPI   GL214754   7.817  12.241   6.485 -0.2660  0.2422  0.0694
 1007loPI   C1A14755   7.317  12.080   6.795 -0.1217 -0.1222 -0.1222
 1007loPI   C2A14756   7.329  12.038   7.221 -0.1022 -0.0983  0.1909
 1007loPI   C3A14757   7.431  12.169   7.566  0.1394 -0.4969  0.0560
 1007loPI   C4A14758   7.465  12.167   7.972  0.0380 -0.2528  0.0853
 1007loPI   C5A14759   7.576  12.153   8.403  0.0696 -0.1286  0.1168
 1007loPI   C6A14760   7.556  12.241   8.856  0.0640  0.0429 -0.0023
 1007loPI   C1B14761   7.848  12.151   6.875 -0.0256 -0.1134 -0.1114
 1007loPI   C2B14762   7.909  12.118   7.258 -0.1723  0.1055 -0.2569
 1007loPI   C3B14763   7.940  12.251   7.751 -0.2583  0.1752 -0.0682
 1007loPI   C4B14764   7.991  12.214   8.137  0.1660 -0.0721  0.0538
 1008loPI    C114765  11.892   3.827   6.398  0.0485  0.0444 -0.0203
 1008loPI    C214766  12.222   3.858   6.174  0.0457 -0.0365 -0.0360
 1008loPI    C314767  11.879   3.739   6.008  0.0521 -0.1324  0.0187
 1008loPI   PO414768  12.006   3.803   6.621 -0.0086  0.1664 -0.0131
 1008loPI   GL114769  11.767   3.900   6.864  0.0743 -0.2662  0.1005
 1008loPI   GL214770  12.022   4.087   7.126  0.0449  0.0672  0.0626
 1008loPI   C1A14771  11.744   3.729   7.266  0.1318  0.2347 -0.0316
 1008loPI   C2A14772  11.754   3.588   7.736  0.0473 -0.0200 -0.1988
 1008loPI   C3A14773  11.764   3.538   8.177 -0.0801 -0.0651  0.2767
 1008loPI   C4A14774  11.768   3.542   8.630  0.0242 -0.0258  0.1572
 1008loPI   C5A14775  11.634   3.318   8.954  0.3418 -0.1597  0.2754
 1008loPI   C6A14776  11.580   3.016   9.143 -0.1148  0.0944 -0.1025
 1008loPI   C1B14777  11.963   4.084   7.560  0.0327  0.0394 -0.1947
 1008loPI   C2B14778  11.956   3.986   8.022  0.0303 -0.3551  0.0300
 1008loPI   C3B14779  11.797   3.991   8.428 -0.4295 -0.1368  0.0433
 1008loPI   C4B14780  11.568   4.150   8.776  0.2268  0.0856  0.1290
 1009loPI    C114781   5.031   2.300   6.473 -0.0416 -0.0038  0.2691
 1009loPI    C214782   4.844   1.946   6.460  0.1489 -0.0963 -0.0557
 1009loPI    C314783   5.215   1.982   6.314  0.1591  0.2222  0.0418
 1009loPI   PO414784   4.845   2.459   6.658 -0.1287 -0.6097  0.4682
 1009loPI   GL114785   4.900   2.620   7.063  0.2017 -0.0522  0.0925
 1009loPI   GL214786   4.808   2.961   6.926  0.0819  0.0637  0.0461
 1009loPI   C1A14787   4.842   2.643   7.514 -0.2954  0.0021  0.1030
 1009loPI   C2A14788   4.886   2.571   7.981  0.0105  0.3222  0.1213
 1009loPI   C3A14789   4.889   2.680   8.372  0.0225 -0.2940 -0.0562
 1009loPI   C4A14790   4.958   2.511   8.777  0.0341  0.0773 -0.1032
 1009loPI   C5A14791   5.353   2.390   9.014  0.1372 -0.0245  0.1129
 1009loPI   C6A14792   5.542   2.063   9.248  0.0093 -0.2019  0.1240
 1009loPI   C1B14793   4.586   3.009   7.325 -0.1173  0.1823  0.2222
 1009loPI   C2B14794   4.634   3.004   7.743 -0.2107  0.0396 -0.1046
 1009loPI   C3B14795   4.624   3.054   8.065  0.3686 -0.2087  0.0185
 1009loPI   C4B14796   4.610   3.029   8.529  0.1546  0.3931 -0.1542
 1010loPI    C114797   6.423   3.145   6.181 -0.2034 -0.0412  0.1157
 1010loPI    C214798   6.485   2.782   6.025 -0.0443  0.1974 -0.4012
 1010loPI    C314799   6.308   3.066   5.806 -0.2813  0.4005  0.0401
 1010loPI   PO414800   6.328   3.096   6.378  0.0532 -0.0399  0.0894
 1010loPI   GL114801   6.370   2.678   6.497  0.0187 -0.0651 -0.2867
 1010loPI   GL214802   6.737   2.739   6.478  0.1240 -0.0963  0.1065
 1010loPI   C1A14803   6.416   2.603   6.899  0.1789 -0.3490 -0.1519
 1010loPI   C2A14804   6.497   2.692   7.320  0.0521 -0.1366  0.2595
 1010loPI   C3A14805   6.485   2.600   7.752  0.2385 -0.4533  0.1692
 1010loPI   C4A14806   6.511   2.603   8.112 -0.0296  0.1575 -0.2545
 1010loPI   C5A14807   6.412   2.660   8.576 -0.0784  0.1771  0.4131
 1010loPI   C6A14808   6.314   2.463   8.982  0.2346 -0.1026 -0.2885
 1010loPI   C1B14809   6.935   2.625   6.907 -0.0569 -0.0948  0.2606
 1010loPI   C2B14810   7.040   2.615   7.302  0.0512  0.0194  0.0202
 1010loPI   C3B14811   6.983   2.596   7.699  0.1167 -0.0322  0.1183
 1010loPI   C4B14812   7.043   2.641   8.138 -0.0787  0.0641 -0.0364
 1011loPI    C114813  15.581   1.731   6.665  0.1789 -0.1962  0.0511
 1011loPI    C214814  15.755   2.032   6.467 -0.1860 -0.0340 -0.0302
 1011loPI    C314815  15.862   1.655   6.390  0.1450  0.0629 -0.0585
 1011loPI   PO414816  15.599   1.818   6.895  0.0851 -0.0738 -0.0642
 1011loPI   GL114817  15.838   1.702   7.164 -0.0375 -0.1715 -0.3484
 1011loPI   GL214818  15.753   1.334   7.027 -0.1495  0.0477 -0.0407
 1011loPI   C1A14819  15.917   1.508   7.603  0.0100  0.0301 -0.1166
 1011loPI   C2A14820  16.002   1.455   8.023 -0.1291 -0.0799 -0.1097
 1011loPI   C3A14821  15.952   1.464   8.464 -0.1034  0.2546  0.0049
 1011loPI   C4A14822  16.006   1.434   8.953  0.0293  0.2245  0.1445
 1011loPI   C5A14823  15.895   1.052   9.120  0.0092  0.0378  0.0300
 1011loPI   C6A14824  15.653   0.752   9.074  0.1476  0.2555  0.5418
 1011loPI   C1B14825  15.704   1.080   7.382 -0.0525 -0.1213  0.2159
 1011loPI   C2B14826  15.738   1.025   7.793 -0.1759  0.0564  0.0019
 1011loPI   C3B14827  15.785   1.052   8.146 -0.1910 -0.1636  0.2992
 1011loPI   C4B14828  15.838   0.913   8.622  0.0560  0.2616  0.2079
 1012loPI    C114829   3.176  14.138   6.331 -0.1998 -0.1293 -0.0650
 1012loPI    C214830   2.866  14.305   6.140 -0.1426  0.1741  0.1021
 1012loPI    C314831   3.231  14.313   5.976 -0.2543 -0.3703 -0.1942
 1012loPI   PO414832   3.129  14.168   6.559 -0.2487  0.1074 -0.1476
 1012loPI   GL114833   2.983  14.283   6.893  0.0458  0.3531  0.0943
 1012loPI   GL214834   2.726  14.396   6.875  0.0258 -0.1448 -0.0195
 1012loPI   C1A14835   2.834  14.186   7.336  0.0930  0.0219  0.0748
 1012loPI   C2A14836   2.884  14.151   7.781 -0.1311 -0.2017  0.0990
 1012loPI   C3A14837   3.028  14.202   8.111 -0.2080 -0.3064  0.0262
 1012loPI   C4A14838   3.121  14.218   8.609 -0.0259  0.1147 -0.0112
 1012loPI   C5A14839   3.439  14.283   8.874  0.1183  0.1383 -0.1470
 1012loPI   C6A14840   3.866  14.367   8.927 -0.2388  0.1023  0.0643
 1012loPI   C1B14841   2.563  14.753   7.065  0.0002  0.3395  0.2880
 1012loPI   C2B14842   2.551  14.753   7.562  0.0832  0.1682 -0.0102
 1012loPI   C3B14843   2.617  14.639   7.989  0.1645  0.1269  0.0678
 1012loPI   C4B14844   2.654  14.516   8.422 -0.1332 -0.0608 -0.0145
 1013loPI    C114845  10.750   1.072   6.339  0.0737  0.0933  0.2137
 1013loPI    C214846  10.961   1.191   6.021 -0.0030  0.2334  0.2146
 1013loPI    C314847  10.562   1.173   6.000  0.0210 -0.3562  0.1023
 1013loPI   PO414848  10.902   1.214   6.546 -0.1148  0.0681 -0.0308
 1013loPI   GL114849  11.180   1.169   6.844 -0.0831 -0.0491 -0.1106
 1013loPI   GL214850  11.452   0.965   6.967 -0.1325 -0.0992 -0.1769
 1013loPI   C1A14851  11.135   1.320   7.194  0.1771 -0.1435  0.0967
 1013loPI   C2A14852  11.088   1.393   7.574  0.0980  0.1224  0.3053
 1013loPI   C3A14853  10.893   1.391   7.955  0.1588  0.0448  0.0243
 1013loPI   C4A14854  10.769   1.351   8.389  0.0374  0.1260 -0.0163
 1013loPI   C5A14855  10.783   1.110   8.683 -0.4392  0.2187 -0.1213
 1013loPI   C6A14856  10.834   1.191   9.149 -0.1759 -0.2179  0.1293
 1013loPI   C1B14857  11.267   0.933   7.413  0.0239  0.0772  0.2912
 1013loPI   C2B14858  11.158   0.897   7.783  0.0517  0.0138  0.0979
 1013loPI   C3B14859  11.149   0.996   8.210 -0.0502 -0.4814  0.0967
 1013loPI   C4B14860  11.277   1.176   8.586  0.0968  0.0110  0.0682
 1014loPI    C114861   1.301  16.688   6.427  0.0009  0.0181  0.0733
 1014loPI    C214862   1.403  16.991   6.186  0.3418 -0.1063  0.0563
 1014loPI    C314863   1.400  17.043   6.582  0.0055  0.0320  0.0386
 1014loPI   PO414864   1.455  16.543   6.363  0.0090  0.0277  0.0356
 1014loPI   GL114865   1.830  16.488   6.630  0.0603 -0.0535  0.1132
 1014loPI   GL214866   1.774  16.691   6.756 -0.0786 -0.0166  0.0502
 1014loPI   C1A14867   1.880  16.407   7.130 -0.0942  0.1401  0.0292
 1014loPI   C2A14868   1.837  16.351   7.563 -0.1806 -0.1510  0.3049
 1014loPI   C3A14869   1.950  16.301   8.000 -0.0143  0.0579 -0.1325
 1014loPI   C4A14870   1.792  16.379   8.407  0.2827 -0.0298 -0.0154
 1014loPI   C5A14871   1.724  16.503   8.892  0.1588 -0.1463  0.1333
 1014loPI   C6A14872   1.429  16.258   9.156 -0.0917 -0.1604  0.1817
 1014loPI   C1B14873   1.517  16.826   7.146  0.4329  0.0890  0.1025
 1014loPI   C2B14874   1.550  16.819   7.552 -0.3049 -0.0006 -0.0427
 1014loPI   C3B14875   1.585  16.708   7.983  0.0160 -0.2326  0.4006
 1014loPI   C4B14876   1.411  16.753   8.401  0.0453 -0.3613 -0.2940
 1015loPI    C114877   9.565  17.054   6.137 -0.0864  0.1087 -0.2423
 1015loPI    C214878   9.363  16.957   6.469  0.0075 -0.2042 -0.2734
 1015loPI    C314879   9.165  17.077   6.143 -0.0810  0.1768 -0.0853
 1015loPI   PO414880   9.818  17.201   6.350  0.0608 -0.1198 -0.3254
 1015loPI   GL114881   9.671  17.214   6.732  0.0537 -0.0275  0.0642
 1015loPI   GL214882   9.725  17.514   6.763  0.2065 -0.3933  0.3150
 1015loPI   C1A14883   9.561  16.905   6.923  0.3185  0.3361  0.2999
 1015loPI   C2A14884   9.507  16.807   7.292  0.3086 -0.3115 -0.1483
 1015loPI   C3A14885   9.513  16.788   7.802 -0.0218  0.1632  0.0250
 1015loPI   C4A14886   9.389  16.711   8.237 -0.0594  0.1423  0.1283
 1015loPI   C5A14887   9.206  16.797   8.684  0.0968  0.3283  0.1005
 1015loPI   C6A14888   9.142  16.636   9.158 -0.0560  0.0238  0.0515
 1015loPI   C1B14889   9.578  17.388   7.225  0.1163  0.2917 -0.2486
 1015loPI   C2B14890   9.465  17.256   7.615 -0.1478 -0.1161 -0.3657
 1015loPI   C3B14891   9.253  17.405   7.947  0.0331  0.0703  0.0316
 1015loPI   C4B14892   9.118  17.165   8.261 -0.1685 -0.2769 -0.1602
 1016loPI    C114893  11.580   4.210   6.108 -0.2122 -0.1620  0.0463
 1016loPI    C214894  11.966   4.313   6.084 -0.2463  0.0128  0.2253
 1016loPI    C314895  11.758   4.238   5.751 -0.0053 -0.2850  0.1376
 1016loPI   PO414896  11.409   4.437   6.304  0.0024 -0.0191 -0.2225
 1016loPI   GL114897  11.282   4.483   6.700  0.1423 -0.2096 -0.2092
 1016loPI   GL214898  11.484   4.394   6.882 -0.0011  0.0606  0.0227
 1016loPI   C1A14899  11.227   4.828   7.031  0.3316  0.0162  0.1348
 1016loPI   C2A14900  11.163   4.764   7.466 -0.0166 -0.0287 -0.0081
 1016loPI   C3A14901  11.198   4.515   7.856 -0.1721 -0.1982 -0.1515
 1016loPI   C4A14902  11.150   4.537   8.220 -0.0609 -0.2690  0.1150
 1016loPI   C5A14903  10.900   4.447   8.609  0.0844  0.5980  0.1192
 1016loPI   C6A14904  10.557   4.400   8.930  0.1049 -0.0525  0.0328
 1016loPI   C1B14905  11.495   4.200   7.301 -0.1175 -0.0505 -0.1673
 1016loPI   C2B14906  11.487   4.036   7.741 -0.2004 -0.2720 -0.0464
 1016loPI   C3B14907  11.444   4.058   8.083 -0.1446  0.0270  0.1329
 1016loPI   C4B14908  11.228   4.080   8.422  0.0167 -0.2717 -0.2564
 1017loPI    C114909  11.270   7.384   5.688 -0.0496 -0.0572 -0.1755
 1017loPI    C214910  11.557   7.209   5.473  0.1739  0.0721  0.0125
 1017loPI    C314911  11.247   7.381   5.289  0.3999  0.2482 -0.2112
 1017loPI   PO414912  11.201   7.239   5.842 -0.0658 -0.1045  0.0445
 1017loPI   GL114913  10.992   7.112   6.200 -0.3686 -0.0647 -0.1851
 1017loPI   GL214914  10.728   7.146   6.412 -0.1880  0.0484 -0.0874
 1017loPI   C1A14915  11.116   7.089   6.639  0.1056 -0.3315 -0.1424
 1017loPI   C2A14916  11.125   7.229   7.080  0.2179 -0.1319 -0.0924
 1017loPI   C3A14917  11.082   7.274   7.554  0.2277 -0.1720  0.0856
 1017loPI   C4A14918  11.142   7.248   7.948  0.0449 -0.0070 -0.2544
 1017loPI   C5A14919  11.169   7.167   8.473  0.0739 -0.0007  0.1043
 1017loPI   C6A14920  10.974   7.011   8.855  0.0612  0.3591 -0.0037
 1017loPI   C1B14921  10.643   7.226   6.818 -0.3438 -0.0986  0.0999
 1017loPI   C2B14922  10.653   7.198   7.251  0.0167 -0.0482  0.1615
 1017loPI   C3B14923  10.614   7.208   7.722  0.0894  0.0594 -0.0483
 1017loPI   C4B14924  10.667   7.214   8.190 -0.0472  0.0916 -0.0510
 1018loPI    C114925  12.667  14.463   5.848 -0.0866 -0.2415  0.0372
 1018loPI    C214926  12.698  14.065   5.834  0.1153 -0.2217 -0.1375
 1018loPI    C314927  12.455  14.255   5.580  0.1371 -0.2216 -0.1583
 1018loPI   PO414928  12.746  14.481   6.134 -0.1578  0.1984 -0.3449
 1018loPI   GL114929  12.647  14.155   6.355 -0.2064  0.0361 -0.0020
 1018loPI   GL214930  12.389  14.291   6.472  0.1424 -0.0578 -0.1747
 1018loPI   C1A14931  12.662  14.013   6.745 -0.1869  0.2042  0.0833
 1018loPI   C2A14932  12.622  14.025   7.231 -0.0894 -0.1337 -0.0060
 1018loPI   C3A14933  12.624  14.097   7.667 -0.1680 -0.0479 -0.1241
 1018loPI   C4A14934  12.562  14.102   8.120 -0.0591 -0.0348  0.0768
 1018loPI   C5A14935  12.797  14.036   8.473  0.1715 -0.0703  0.1112
 1018loPI   C6A14936  13.210  14.048   8.704 -0.3744 -0.0738 -0.1005
 1018loPI   C1B14937  12.142  13.953   6.613  0.0196  0.1358 -0.3166
 1018loPI   C2B14938  12.151  13.945   7.061 -0.3470  0.2293  0.1509
 1018loPI   C3B14939  12.125  14.024   7.548  0.2271 -0.3175 -0.2053
 1018loPI   C4B14940  12.139  13.952   7.914  0.0632 -0.1108  0.0114
 1019loPI    C114941  14.319   6.986   6.075 -0.0599 -0.0126 -0.0620
 1019loPI    C214942  14.497   6.734   5.821  0.0305 -0.1329  0.1185
 1019loPI    C314943  14.360   7.086   5.690 -0.1249 -0.2872 -0.1424
 1019loPI   PO414944  14.464   6.848   6.326  0.0572 -0.0104 -0.0516
 1019loPI   GL114945  14.371   6.614   6.702  0.0587 -0.1105  0.0331
 1019loPI   GL214946  14.494   6.877   6.887 -0.1439  0.0722 -0.0792
 1019loPI   C1A14947  14.334   6.402   7.084  0.0642 -0.2056  0.2159
 1019loPI   C2A14948  14.304   6.458   7.569 -0.0229 -0.0767  0.1896
 1019loPI   C3A14949  14.246   6.469   8.011 -0.0298  0.1351 -0.2383
 1019loPI   C4A14950  14.152   6.483   8.399 -0.0351  0.0320 -0.1690
 1019loPI   C5A14951  13.909   6.502   8.699  0.0789 -0.0460  0.0832
 1019loPI   C6A14952  13.675   6.234   9.045 -0.0088 -0.0073  0.0372
 1019loPI   C1B14953  14.557   6.858   7.276 -0.0556  0.0145  0.0396
 1019loPI   C2B14954  14.513   6.910   7.706  0.2224  0.1376  0.2172
 1019loPI   C3B14955  14.476   6.856   8.227  0.1683 -0.1559  0.3521
 1019loPI   C4B14956  14.432   7.070   8.650  0.0653  0.3573 -0.0754
 1020loPI    C114957   2.874   9.887   6.151 -0.0797  0.1071  0.0764
 1020loPI    C214958   2.715   9.547   6.012 -0.1014  0.0554  0.2261
 1020loPI    C314959   3.076   9.664   5.888 -0.2419  0.1596 -0.0957
 1020loPI   PO414960   2.821   9.864   6.434 -0.0037 -0.1693 -0.0539
 1020loPI   GL114961   2.626   9.672   6.681 -0.1395 -0.0834  0.2929
 1020loPI   GL214962   2.719   9.368   6.758 -0.0926  0.3455  0.0532
 1020loPI   C1A14963   2.566   9.802   7.077 -0.1603  0.1553  0.2268
 1020loPI   C2A14964   2.560   9.873   7.570 -0.1479 -0.0897 -0.1069
 1020loPI   C3A14965   2.548   9.767   7.953 -0.0024 -0.1364  0.1429
 1020loPI   C4A14966   2.521   9.876   8.449  0.2779  0.1031  0.0258
 1020loPI   C5A14967   2.212   9.668   8.687 -0.0804 -0.2515 -0.0344
 1020loPI   C6A14968   2.102   9.287   8.884  0.1083 -0.1475 -0.3638
 1020loPI   C1B14969   2.727   9.361   7.095  0.0054  0.3466  0.3141
 1020loPI   C2B14970   2.797   9.367   7.509  0.0801 -0.0789 -0.2522
 1020loPI   C3B14971   2.840   9.329   8.000  0.2419 -0.0997 -0.1887
 1020loPI   C4B14972   2.881   9.520   8.429 -0.1624 -0.1731  0.1741
 1021loPI    C114973  10.888  17.144   6.224  0.1191  0.0167  0.0805
 1021loPI    C214974  10.845  17.436   5.954 -0.2026  0.0336  0.1461
 1021loPI    C314975  10.972  17.075   5.839 -0.2561  0.0649 -0.0141
 1021loPI   PO414976  10.709  17.125   6.339  0.0109 -0.1988  0.1962
 1021loPI   GL114977  10.658  17.176   6.787  0.4301  0.2667 -0.3578
 1021loPI   GL214978  10.763  17.419   6.714  0.0997  0.2335 -0.0814
 1021loPI   C1A14979  10.584  17.061   7.122  0.0502  0.3014 -0.1793
 1021loPI   C2A14980  10.599  16.941   7.523 -0.3167 -0.0372 -0.0557
 1021loPI   C3A14981  10.468  17.171   7.878  0.1299  0.0606 -0.2000
 1021loPI   C4A14982  10.611  17.101   8.278  0.0666 -0.3450  0.0653
 1021loPI   C5A14983  10.752  17.289   8.712 -0.1752  0.1585  0.0272
 1021loPI   C6A14984  10.967  17.119   8.940  0.0266 -0.1695 -0.0201
 1021loPI   C1B14985  10.577  17.566   7.110 -0.0342 -0.0921 -0.2340
 1021loPI   C2B14986  10.404  17.506   7.474 -0.0066 -0.1569 -0.0683
 1021loPI   C3B14987  10.358  17.626   7.873 -0.2005 -0.0707  0.1717
 1021loPI   C4B14988  10.240  17.474   8.224 -0.0318  0.2138  0.0744
 1022loPI    C114989  12.108   2.641   6.286  0.1254  0.0556 -0.1026
 1022loPI    C214990  11.988   2.769   5.927 -0.1833  0.1193  0.0202
 1022loPI    C314991  11.952   2.383   6.023  0.2828  0.0229 -0.1651
 1022loPI   PO414992  12.027   2.841   6.446 -0.0220 -0.1100 -0.1441
 1022loPI   GL114993  11.868   2.973   6.809 -0.0904 -0.1765 -0.2133
 1022loPI   GL214994  11.796   3.289   6.611 -0.1855  0.0816  0.2010
 1022loPI   C1A14995  11.803   2.829   7.254 -0.0754  0.2409  0.0043
 1022loPI   C2A14996  11.814   2.739   7.756 -0.0877  0.1589 -0.1135
 1022loPI   C3A14997  11.839   2.677   8.215 -0.2554 -0.2180 -0.1560
 1022loPI   C4A14998  12.056   2.641   8.635 -0.1380 -0.1699 -0.2802
 1022loPI   C5A14999  12.140   2.391   8.850 -0.1759  0.0168  0.0320
 1022loPI   C6A15000  12.369   2.044   9.011  0.0746 -0.2532  0.0323
 1022loPI   C1B15001  11.542   3.329   7.020  0.0581 -0.0965 -0.1892
 1022loPI   C2B15002  11.550   3.256   7.438 -0.0269 -0.3070  0.3519
 1022loPI   C3B15003  11.494   3.189   7.903 -0.1063 -0.1727 -0.0209
 1022loPI   C4B15004  11.491   3.193   8.443  0.2934 -0.2680 -0.0177
 1023loPI    C115005   0.096   6.323   6.332 -0.1029  0.0813  0.1053
 1023loPI    C215006   0.405   6.297   6.585 -0.0702  0.1326  0.0712
 1023loPI    C315007   0.459   6.225   6.196 -0.1265  0.0250  0.0825
 1023loPI   PO415008  -0.163   6.230   6.553 -0.0742 -0.1157  0.1631
 1023loPI   GL115009  -0.334   6.461   6.968 -0.0371 -0.0532 -0.0637
 1023loPI   GL215010  -0.431   6.819   6.872 -0.1433 -0.1265  0.0110
 1023loPI   C1A15011  -0.315   6.419   7.445  0.3985  0.0778 -0.1623
 1023loPI   C2A15012  -0.331   6.478   7.858  0.0101  0.0297  0.3881
 1023loPI   C3A15013  -0.173   6.511   8.318  0.1352 -0.3066 -0.1197
 1023loPI   C4A15014  -0.037   6.547   8.739  0.0513 -0.0767 -0.0590
 1023loPI   C5A15015   0.320   6.707   8.924  0.1131 -0.2692  0.1936
 1023loPI   C6A15016   0.612   6.520   9.260 -0.0598  0.1484  0.0534
 1023loPI   C1B15017  -0.469   6.888   7.244 -0.1020  0.2169 -0.0296
 1023loPI   C2B15018  -0.466   6.904   7.709 -0.0656 -0.0099 -0.2400
 1023loPI   C3B15019  -0.414   6.953   8.156 -0.0472  0.0190  0.0286
 1023loPI   C4B15020  -0.519   6.984   8.536  0.0158 -0.2095  0.1014
 1024loPI    C115021  10.129   6.476   6.014 -0.0941 -0.0137 -0.1440
 1024loPI    C215022  10.342   6.346   5.701 -0.2716 -0.1636 -0.2044
 1024loPI    C315023  10.190   6.716   5.700  0.0868 -0.0119 -0.1086
 1024loPI   PO415024  10.294   6.423   6.245 -0.0089  0.0638  0.1594
 1024loPI   GL115025  10.160   6.153   6.601 -0.1878  0.1714 -0.0047
 1024loPI   GL215026  10.072   5.779   6.542  0.1835  0.1753  0.3745
 1024loPI   C1A15027  10.065   6.330   6.961  0.0995 -0.1617 -0.0186
 1024loPI   C2A15028   9.930   6.355   7.332  0.1161  0.0255 -0.0862
 1024loPI   C3A15029  10.030   6.331   7.729 -0.0514  0.1009  0.0702
 1024loPI   C4A15030  10.001   6.136   8.188  0.1618  0.0944 -0.1165
 1024loPI   C5A15031   9.987   5.939   8.623  0.0127  0.2780  0.0573
 1024loPI   C6A15032  10.156   5.666   9.005  0.1315  0.0309  0.1202
 1024loPI   C1B15033   9.823   5.891   6.921  0.1537 -0.1314  0.0341
 1024loPI   C2B15034   9.760   5.852   7.295 -0.1528 -0.0782 -0.0049
 1024loPI   C3B15035   9.805   5.894   7.798 -0.2832 -0.1214 -0.0532
 1024loPI   C4B15036   9.641   5.762   8.242 -0.2084  0.0917 -0.0903
 1025loPI    C115037  14.982  10.949   6.021  0.2711  0.1560 -0.0177
 1025loPI    C215038  15.025  11.204   5.716 -0.0140  0.1769 -0.0427
 1025loPI    C315039  14.730  10.934   5.711  0.2466 -0.1141  0.0131
 1025loPI   PO415040  14.980  11.049   6.235 -0.3259  0.1476 -0.0185
 1025loPI   GL115041  14.905  10.828   6.532  0.1338  0.0329  0.0472
 1025loPI   GL215042  15.158  10.763   6.714 -0.1837  0.0626  0.1851
 1025loPI   C1A15043  14.750  10.754   7.029 -0.1508  0.2114  0.0052
 1025loPI   C2A15044  14.794  10.763   7.498  0.2193 -0.3001 -0.1539
 1025loPI   C3A15045  14.776  10.821   7.896 -0.1150 -0.3715 -0.0560
 1025loPI   C4A15046  14.738  10.896   8.338  0.0108  0.1489 -0.1907
 1025loPI   C5A15047  14.341  10.957   8.695  0.0105  0.1584 -0.1892
 1025loPI   C6A15048  14.035  10.639   8.606  0.1083 -0.2612  0.1148
 1025loPI   C1B15049  15.226  10.804   7.156 -0.2195 -0.0958  0.2044
 1025loPI   C2B15050  15.282  10.866   7.626 -0.0409  0.2367 -0.0316
 1025loPI   C3B15051  15.280  10.904   8.085  0.1413  0.0465  0.3213
 1025loPI   C4B15052  15.187  10.697   8.447 -0.1759  0.0678 -0.1298
 1026loPI    C115053   9.702  14.849   5.685  0.0585 -0.1559 -0.0208
 1026loPI    C215054   9.836  14.744   5.323  0.0249  0.1867 -0.1362
 1026loPI    C315055   9.472  14.904   5.362  0.0268  0.1475  0.0504
 1026loPI   PO415056   9.708  14.698   5.940  0.0350 -0.1340 -0.0974
 1026loPI   GL115057   9.592  14.698   6.320 -0.1226  0.3193  0.1318
 1026loPI   GL215058   9.316  14.732   6.336 -0.2148 -0.0735  0.2786
 1026loPI   C1A15059   9.963  14.738   6.763 -0.0311  0.0035  0.1165
 1026loPI   C2A15060   9.994  14.565   7.192  0.1577  0.2183 -0.1572
 1026loPI   C3A15061   9.983  14.705   7.607 -0.0088 -0.3580 -0.1934
 1026loPI   C4A15062  10.050  14.611   8.097 -0.3029 -0.0190 -0.2162
 1026loPI   C5A15063   9.893  14.701   8.404  0.1132  0.2660 -0.1048
 1026loPI   C6A15064   9.762  14.882   8.860 -0.0335 -0.1067 -0.0918
 1026loPI   C1B15065   9.480  14.668   6.789 -0.2191 -0.0175  0.0976
 1026loPI   C2B15066   9.430  14.667   7.153 -0.0459 -0.1622 -0.0541
 1026loPI   C3B15067   9.533  14.545   7.611 -0.0345  0.1814 -0.0227
 1026loPI   C4B15068   9.490  14.581   8.065 -0.0434 -0.2168 -0.1369
 1027loPI    C115069  13.431   4.175   6.473 -0.0798  0.0653  0.2301
 1027loPI    C215070  13.637   4.231   6.135 -0.1026 -0.2111  0.1676
 1027loPI    C315071  13.246   4.313   6.147 -0.0767 -0.0840  0.1642
 1027loPI   PO415072  13.645   4.228   6.655 -0.0443  0.2726  0.2248
 1027loPI   GL115073  13.862   4.507   6.941 -0.2580 -0.0094 -0.1651
 1027loPI   GL215074  14.079   4.762   6.978  0.1236  0.5027 -0.2467
 1027loPI   C1A15075  13.898   4.539   7.406  0.0065 -0.0276  0.0967
 1027loPI   C2A15076  13.808   4.610   7.819 -0.2377 -0.2046  0.0729
 1027loPI   C3A15077  13.731   4.709   8.215  0.5061 -0.1733  0.0281
 1027loPI   C4A15078  13.605   4.615   8.631  0.1042 -0.2441 -0.1530
 1027loPI   C5A15079  13.271   4.678   8.916 -0.3061 -0.2364 -0.1736
 1027loPI   C6A15080  12.942   4.499   9.017 -0.2292  0.1204  0.1360
 1027loPI   C1B15081  14.040   5.007   7.342  0.1275  0.1610  0.1525
 1027loPI   C2B15082  14.035   5.072   7.714  0.1461 -0.2036 -0.1075
 1027loPI   C3B15083  13.975   5.158   8.104  0.5255 -0.3073 -0.3117
 1027loPI   C4B15084  13.889   5.122   8.586  0.0089 -0.0588  0.2573
 1028loPI    C115085   1.308   6.472   6.037  0.0775 -0.0235  0.1414
 1028loPI    C215086   1.621   6.675   5.894  0.0470  0.0270  0.1463
 1028loPI    C315087   1.457   6.382   5.677 -0.2394  0.3563 -0.0921
 1028loPI   PO415088   1.372   6.397   6.273 -0.0045  0.1515  0.2161
 1028loPI   GL115089   1.392   6.609   6.631  0.2963  0.1030 -0.0975
 1028loPI   GL215090   1.304   6.268   6.805 -0.3310 -0.0558 -0.4092
 1028loPI   C1A15091   1.504   6.712   7.033  0.0353  0.2663  0.0848
 1028loPI   C2A15092   1.462   6.855   7.423  0.1760 -0.2121 -0.1196
 1028loPI   C3A15093   1.664   7.001   7.615  0.0206  0.3177  0.2312
 1028loPI   C4A15094   1.586   7.038   8.074 -0.1564 -0.0228 -0.0198
 1028loPI   C5A15095   1.720   7.064   8.370  0.0960  0.0377  0.0377
 1028loPI   C6A15096   1.645   7.030   8.762 -0.1118 -0.0894 -0.1566
 1028loPI   C1B15097   1.490   6.180   7.122 -0.1679 -0.0072 -0.1221
 1028loPI   C2B15098   1.589   6.173   7.550  0.1136 -0.1541  0.2887
 1028loPI   C3B15099   1.704   6.161   8.060  0.0483 -0.2523 -0.2848
 1028loPI   C4B15100   1.607   6.118   8.443  0.2437 -0.3573  0.0104
 1029loPI    C115101  13.451  12.638   6.265 -0.0847  0.0201  0.0291
 1029loPI    C215102  13.376  13.027   6.209  0.0172  0.0368  0.0063
 1029loPI    C315103  13.525  12.807   5.910 -0.0575 -0.0242  0.0135
 1029loPI   PO415104  13.279  12.549   6.419  0.2909 -0.2109 -0.0667
 1029loPI   GL115105  13.090  12.268   6.761 -0.0405  0.2257  0.2892
 1029loPI   GL215106  13.372  12.379   6.897 -0.1650 -0.0659  0.3164
 1029loPI   C1A15107  12.912  12.283   7.034 -0.1279 -0.0350  0.0633
 1029loPI   C2A15108  12.892  12.236   7.522  0.1841  0.0888 -0.2521
 1029loPI   C3A15109  12.853  12.303   8.015 -0.3360 -0.1665 -0.0484
 1029loPI   C4A15110  12.870  12.367   8.444  0.2013 -0.0481  0.0144
 1029loPI   C5A15111  12.549  12.128   8.707  0.4009  0.3323  0.0595
 1029loPI   C6A15112  12.435  11.752   8.935  0.3267  0.2988  0.0980
 1029loPI   C1B15113  13.341  12.388   7.293  0.0029  0.2289  0.1268
 1029loPI   C2B15114  13.396  12.394   7.847 -0.1989  0.0694  0.0262
 1029loPI   C3B15115  13.346  12.386   8.327 -0.0704  0.1265 -0.0216
 1029loPI   C4B15116  13.258  12.413   8.749  0.1478  0.0466 -0.2036
 1030loPI    C115117   8.999  16.650   5.906  0.1039  0.2044 -0.1725
 1030loPI    C215118   9.134  16.350   5.679 -0.0531 -0.0023  0.0039
 1030loPI    C315119   8.815  16.562   5.562 -0.0545 -0.0239 -0.0317
 1030loPI   PO415120   9.111  16.524   6.191 -0.0686  0.0140  0.3160
 1030loPI   GL115121   8.939  16.680   6.644 -0.0706  0.1686 -0.0493
 1030loPI   GL215122   8.857  16.359   6.566  0.0910  0.1242  0.0735
 1030loPI   C1A15123   9.135  16.522   7.024  0.1246  0.1088 -0.2510
 1030loPI   C2A15124   9.298  16.374   7.478  0.5044 -0.3074  0.0357
 1030loPI   C3A15125   9.253  16.296   7.968 -0.2611  0.0957  0.0453
 1030loPI   C4A15126   9.168  16.331   8.478  0.2067  0.0345 -0.0639
 1030loPI   C5A15127   8.956  16.218   8.746 -0.1684  0.1857 -0.0838
 1030loPI   C6A15128   8.574  16.321   8.747 -0.2124  0.3816 -0.0599
 1030loPI   C1B15129   8.667  16.312   6.965 -0.0610  0.0760 -0.3567
 1030loPI   C2B15130   8.738  16.292   7.429 -0.0740 -0.2511  0.2444
 1030loPI   C3B15131   8.707  16.413   7.816 -0.2943  0.1960 -0.2230
 1030loPI   C4B15132   8.662  16.312   8.203 -0.3656  0.1459 -0.2285
 1031loPI    C115133   6.552  10.730   5.930 -0.1423  0.0294 -0.1422
 1031loPI    C215134   6.732  10.477   5.678  0.1124  0.1654 -0.1006
 1031loPI    C315135   6.384  10.647   5.577 -0.0125 -0.1244 -0.1693
 1031loPI   PO415136   6.487  10.580   6.198 -0.2140 -0.1854 -0.1689
 1031loPI   GL115137   6.194  10.690   6.551  0.1518  0.0404  0.4226
 1031loPI   GL215138   6.350  10.242   6.569  0.0980  0.0576 -0.1756
 1031loPI   C1A15139   6.095  10.511   6.857 -0.3014 -0.0229  0.0802
 1031loPI   C2A15140   6.149  10.587   7.359 -0.1372  0.0325 -0.2111
 1031loPI   C3A15141   6.226  10.688   7.745 -0.0299 -0.0005 -0.0446
 1031loPI   C4A15142   6.360  10.702   8.072  0.2972  0.0469 -0.0624
 1031loPI   C5A15143   6.486  10.756   8.526 -0.0068 -0.0313  0.0992
 1031loPI   C6A15144   6.601  11.101   8.787 -0.1632  0.0326 -0.0578
 1031loPI   C1B15145   6.536  10.184   6.974 -0.1179  0.1435 -0.2548
 1031loPI   C2B15146   6.546  10.208   7.332 -0.3344 -0.2220  0.1479
 1031loPI   C3B15147   6.577  10.277   7.771 -0.1146  0.0786  0.0273
 1031loPI   C4B15148   6.597  10.250   8.161  0.1010  0.0039  0.0725
 1032loPI    C115149   7.269   3.561   5.921  0.1913 -0.0916  0.1968
 1032loPI    C215150   7.148   3.222   5.748  0.0816 -0.0800  0.2504
 1032loPI    C315151   7.042   3.575   5.592  0.3564 -0.0689  0.0822
 1032loPI   PO415152   7.229   3.503   6.259  0.1216 -0.0316  0.1565
 1032loPI   GL115153   7.133   3.323   6.619  0.0329 -0.0027  0.0809
 1032loPI   GL215154   7.198   3.003   6.579  0.1168  0.0993 -0.0377
 1032loPI   C1A15155   7.017   3.489   7.004  0.3024  0.0055  0.1019
 1032loPI   C2A15156   7.029   3.480   7.509  0.3588 -0.4251 -0.1412
 1032loPI   C3A15157   7.010   3.519   7.918  0.1395  0.0423  0.0637
 1032loPI   C4A15158   7.007   3.491   8.372  0.1698 -0.4432 -0.1212
 1032loPI   C5A15159   6.961   3.725   8.714  0.0389  0.0136 -0.1718
 1032loPI   C6A15160   7.053   4.075   9.037  0.0932 -0.3850  0.2890
 1032loPI   C1B15161   7.216   3.057   7.030 -0.5316 -0.2042 -0.0823
 1032loPI   C2B15162   7.305   3.027   7.488 -0.1389  0.1085  0.1459
 1032loPI   C3B15163   7.291   3.113   8.005  0.1550 -0.1521  0.0595
 1032loPI   C4B15164   7.206   3.015   8.455  0.1632  0.0141  0.0895
 1033loPI    C115165  16.430   6.779   6.434 -0.2809  0.1104  0.1892
 1033loPI    C215166  16.508   6.446   6.641 -0.1152  0.0121 -0.0268
 1033loPI    C315167  16.320   6.423   6.289 -0.0259  0.1379 -0.0835
 1033loPI   PO415168  16.231   6.876   6.639 -0.2397 -0.0853 -0.0245
 1033loPI   GL115169  15.891   6.847   6.948 -0.1058  0.3445  0.1701
 1033loPI   GL215170  15.854   6.555   7.123  0.0830 -0.1102  0.2734
 1033loPI   C1A15171  16.049   7.018   7.246 -0.2102  0.0655 -0.0715
 1033loPI   C2A15172  16.043   7.071   7.712 -0.1171 -0.1859  0.1045
 1033loPI   C3A15173  15.778   6.920   8.028  0.2398  0.0302 -0.2514
 1033loPI   C4A15174  15.723   6.815   8.543 -0.0713 -0.0297  0.0956
 1033loPI   C5A15175  15.635   6.696   8.932  0.0016 -0.2597  0.0578
 1033loPI   C6A15176  15.306   6.901   9.206  0.0330  0.1890  0.0890
 1033loPI   C1B15177  15.732   6.752   7.529  0.2338  0.2365 -0.0806
 1033loPI   C2B15178  15.688   6.475   7.866  0.1149  0.2253  0.1481
 1033loPI   C3B15179  15.835   6.392   8.299  0.1672 -0.2540  0.0381
 1033loPI   C4B15180  16.034   6.457   8.745 -0.0486 -0.0627  0.1683
 1034loPI    C115181   8.278   6.921   5.372  0.0156 -0.0162  0.0763
 1034loPI    C215182   8.571   6.761   5.151  0.0399 -0.0834  0.1564
 1034loPI    C315183   8.500   7.155   5.135  0.2352 -0.0430  0.2514
 1034loPI   PO415184   8.348   6.735   5.673  0.1031  0.2636 -0.0028
 1034loPI   GL115185   8.175   6.671   6.230 -0.0210 -0.2080  0.1978
 1034loPI   GL215186   7.874   6.720   6.207 -0.0730  0.0944  0.1374
 1034loPI   C1A15187   8.293   6.691   6.612  0.0885  0.1557 -0.0734
 1034loPI   C2A15188   8.240   6.744   7.008  0.3343  0.2260 -0.2849
 1034loPI   C3A15189   8.195   6.716   7.357 -0.1458 -0.1328 -0.1207
 1034loPI   C4A15190   8.078   6.672   7.783 -0.4352  0.1397  0.2843
 1034loPI   C5A15191   8.033   6.667   8.200 -0.2616 -0.0001  0.2470
 1034loPI   C6A15192   8.329   6.650   8.532  0.0438 -0.0979 -0.1352
 1034loPI   C1B15193   7.761   6.709   6.646 -0.0022  0.1872 -0.2489
 1034loPI   C2B15194   7.680   6.722   7.098  0.1648 -0.0000  0.0911
 1034loPI   C3B15195   7.683   6.765   7.460 -0.4895 -0.0604  0.3374
 1034loPI   C4B15196   7.575   6.629   7.932  0.0098  0.2342  0.1197
 1035loPI    C115197   6.400  15.541   6.030  0.2710  0.0607  0.0619
 1035loPI    C215198   6.612  15.328   5.767  0.2134  0.0725  0.0058
 1035loPI    C315199   6.341  15.593   5.638 -0.0445 -0.1518  0.0774
 1035loPI   PO415200   6.460  15.464   6.236 -0.0418 -0.0045  0.0516
 1035loPI   GL115201   6.585  15.302   6.561  0.2988  0.1524 -0.0369
 1035loPI   GL215202   6.943  15.240   6.496  0.4371 -0.2452 -0.0303
 1035loPI   C1A15203   6.711  15.250   6.982  0.2332  0.3433 -0.0556
 1035loPI   C2A15204   6.801  15.203   7.292 -0.0216  0.0303 -0.0636
 1035loPI   C3A15205   6.846  15.198   7.781 -0.2116  0.0435  0.3729
 1035loPI   C4A15206   6.652  15.309   8.122  0.0015 -0.0209  0.0578
 1035loPI   C5A15207   6.916  15.307   8.407  0.1602  0.0231  0.1236
 1035loPI   C6A15208   7.015  15.549   8.764  0.1772  0.0108 -0.0418
 1035loPI   C1B15209   7.215  15.303   6.765 -0.1096  0.1080  0.0496
 1035loPI   C2B15210   7.280  15.258   7.231 -0.0193  0.0740  0.0040
 1035loPI   C3B15211   7.306  15.250   7.669 -0.0522  0.4856  0.2299
 1035loPI   C4B15212   7.281  15.222   8.089 -0.0994  0.1304 -0.3077
 1036loPI    C115213   1.395  12.546   6.240  0.1786 -0.1661 -0.0540
 1036loPI    C215214   1.443  12.315   5.917 -0.4177  0.1155 -0.3611
 1036loPI    C315215   1.555  12.699   5.906  0.3174 -0.0672  0.0563
 1036loPI   PO415216   1.448  12.454   6.475 -0.4552 -0.0915 -0.0340
 1036loPI   GL115217   1.322  12.701   6.807 -0.1182 -0.0544  0.4326
 1036loPI   GL215218   1.052  12.649   6.747 -0.0617  0.1957 -0.1496
 1036loPI   C1A15219   1.362  12.559   7.220  0.0174 -0.4130  0.0451
 1036loPI   C2A15220   1.383  12.507   7.632  0.2655  0.1394  0.0999
 1036loPI   C3A15221   1.354  12.646   7.995  0.2191 -0.2222  0.2502
 1036loPI   C4A15222   1.299  12.598   8.488  0.0134 -0.2522  0.1462
 1036loPI   C5A15223   1.098  12.759   8.880 -0.1513 -0.3130  0.0454
 1036loPI   C6A15224   0.899  12.975   9.203  0.0581 -0.0977 -0.0304
 1036loPI   C1B15225   0.865  12.535   7.051 -0.1051  0.0666 -0.0495
 1036loPI   C2B15226   0.806  12.459   7.433  0.0817  0.2010 -0.1865
 1036loPI   C3B15227   0.762  12.616   7.866  0.3174  0.1374 -0.2466
 1036loPI   C4B15228   0.859  12.474   8.289  0.1793  0.1805  0.0453
 1037loPI    C115229   9.116  15.135   5.870  0.1537  0.2193 -0.0712
 1037loPI    C215230   8.729  15.110   5.773  0.1092  0.2615  0.0910
 1037loPI    C315231   9.010  15.036   5.498 -0.0136  0.2729 -0.0388
 1037loPI   PO415232   9.086  15.179   6.141 -0.0964  0.1116 -0.2084
 1037loPI   GL115233   8.912  15.080   6.533  0.1085 -0.0640  0.1256
 1037loPI   GL215234   8.711  15.329   6.527 -0.1327 -0.3290 -0.0951
 1037loPI   C1A15235   9.129  14.994   6.841 -0.0871 -0.0027 -0.2613
 1037loPI   C2A15236   9.163  15.136   7.295 -0.0785 -0.0022  0.1382
 1037loPI   C3A15237   9.131  15.043   7.814  0.1176 -0.3878 -0.1470
 1037loPI   C4A15238   9.102  14.995   8.254 -0.0528  0.0474  0.1114
 1037loPI   C5A15239   9.208  14.669   8.544  0.0709  0.0485 -0.2103
 1037loPI   C6A15240   9.131  14.480   8.895 -0.3280 -0.0911  0.1535
 1037loPI   C1B15241   8.777  15.321   6.943 -0.1032 -0.4165 -0.1320
 1037loPI   C2B15242   8.781  15.471   7.391 -0.2039 -0.2453  0.1245
 1037loPI   C3B15243   8.831  15.433   7.886 -0.0081 -0.4264  0.2296
 1037loPI   C4B15244   8.837  15.476   8.323  0.2052  0.0962  0.1179
 1038loPI    C115245   5.030  11.541   6.137 -0.3113  0.0227 -0.0751
 1038loPI    C215246   5.233  11.462   5.801 -0.1549  0.0022  0.0235
 1038loPI    C315247   4.922  11.233   5.905 -0.1859 -0.0090 -0.0920
 1038loPI   PO415248   5.216  11.557   6.337 -0.0550  0.3599 -0.1062
 1038loPI   GL115249   5.406  11.713   6.699 -0.0457  0.0926  0.3088
 1038loPI   GL215250   5.713  11.510   6.857  0.0153  0.1868 -0.0330
 1038loPI   C1A15251   5.450  11.848   7.068 -0.0160  0.1269 -0.1371
 1038loPI   C2A15252   5.330  11.978   7.495  0.2511  0.2930 -0.0126
 1038loPI   C3A15253   5.357  11.802   7.875  0.1271  0.0681  0.0178
 1038loPI   C4A15254   5.413  11.843   8.265 -0.3124  0.2571 -0.2586
 1038loPI   C5A15255   5.280  11.562   8.621 -0.1977  0.0127 -0.1050
 1038loPI   C6A15256   5.505  11.210   8.893 -0.0376 -0.1007  0.3779
 1038loPI   C1B15257   5.987  11.459   7.167 -0.0887  0.1395 -0.0538
 1038loPI   C2B15258   5.863  11.911   7.339  0.0659  0.1769 -0.2528
 1038loPI   C3B15259   5.807  12.128   7.696 -0.0116  0.0120  0.1002
 1038loPI   C4B15260   5.671  12.260   8.151  0.0512  0.0345  0.0394
 1039loPI    C115261  13.896  14.459   5.873  0.3753 -0.3546 -0.1153
 1039loPI    C215262  14.248  14.649   5.885  0.1059  0.1491  0.0583
 1039loPI    C315263  14.070  14.580   5.534  0.1467  0.3390 -0.0011
 1039loPI   PO415264  13.785  14.507   6.105  0.2188  0.0469 -0.2624
 1039loPI   GL115265  13.799  14.453   6.553  0.0119  0.0260  0.0396
 1039loPI   GL215266  13.741  14.185   6.740 -0.0197 -0.0263 -0.2276
 1039loPI   C1A15267  13.963  14.584   6.999  0.1851  0.2045  0.0144
 1039loPI   C2A15268  13.978  14.630   7.431 -0.1962 -0.3808  0.1058
 1039loPI   C3A15269  13.928  14.731   7.819 -0.0881  0.0461  0.0926
 1039loPI   C4A15270  13.917  14.727   8.288  0.0484 -0.0555  0.0959
 1039loPI   C5A15271  13.588  14.856   8.656  0.0382  0.2953 -0.0405
 1039loPI   C6A15272  13.697  15.022   8.999  0.0460  0.1491 -0.2507
 1039loPI   C1B15273  13.776  14.221   7.238  0.0319 -0.4307 -0.0831
 1039loPI   C2B15274  13.757  14.215   7.595 -0.0532  0.2865 -0.0163
 1039loPI   C3B15275  13.667  14.227   8.025 -0.0215 -0.0491 -0.1256
 1039loPI   C4B15276  13.582  14.370   8.501  0.1744  0.0024  0.0935
 1040loPI    C115277   2.796   0.649   6.515 -0.0231  0.0713 -0.1652
 1040loPI    C215278   2.507   0.491   6.288 -0.0556 -0.0693 -0.0281
 1040loPI    C315279   2.810   0.262   6.414  0.1161  0.0768 -0.1695
 1040loPI   PO415280   2.648   0.745   6.674  0.3240 -0.0443  0.0453
 1040loPI   GL115281   2.507   0.587   7.055 -0.2005  0.1231  0.2376
 1040loPI   GL215282   2.378   0.347   6.874 -0.0229  0.0092  0.1342
 1040loPI   C1A15283   2.476   0.502   7.524 -0.1356 -0.0301 -0.0298
 1040loPI   C2A15284   2.427   0.572   7.941  0.0403  0.0890 -0.3622
 1040loPI   C3A15285   2.378   0.684   8.314  0.0316 -0.0860  0.2019
 1040loPI   C4A15286   2.308   0.669   8.774  0.1856 -0.0445  0.1360
 1040loPI   C5A15287   2.462   0.447   9.102  0.2891 -0.1190 -0.0707
 1040loPI   C6A15288   2.809   0.179   9.060 -0.1747 -0.0974 -0.1429
 1040loPI   C1B15289   2.253   0.173   7.268 -0.1975  0.7089  0.0031
 1040loPI   C2B15290   2.272   0.048   7.652  0.1586 -0.1682 -0.1696
 1040loPI   C3B15291   2.213   0.118   8.121  0.0002 -0.0498  0.1328
 1040loPI   C4B15292   2.016   0.251   8.527  0.0816  0.1081  0.0244
 1041loPI    C115293   7.150  10.885   5.753 -0.0497 -0.0437  0.0099
 1041loPI    C215294   6.790  10.990   5.614 -0.0477 -0.0334  0.0125
 1041loPI    C315295   7.100  10.961   5.364 -0.0208  0.0867  0.0313
 1041loPI   PO415296   7.127  10.618   5.979  0.1849 -0.1327 -0.0160
 1041loPI   GL115297   7.128  10.636   6.374  0.0297  0.0426 -0.0218
 1041loPI   GL215298   6.863  10.619   6.545 -0.2236 -0.0750 -0.0216
 1041loPI   C1A15299   7.364  10.733   6.788  0.4527 -0.0848  0.1563
 1041loPI   C2A15300   7.378  10.729   7.197 -0.1090  0.1796 -0.1591
 1041loPI   C3A15301   7.378  10.710   7.669  0.0623 -0.0288  0.1598
 1041loPI   C4A15302   7.399  10.756   8.091 -0.0491  0.1770  0.0307
 1041loPI   C5A15303   7.338  10.948   8.469 -0.1976 -0.2667 -0.1111
 1041loPI   C6A15304   7.450  11.266   8.765  0.0292 -0.1303  0.1390
 1041loPI   C1B15305   6.618  10.626   6.829 -0.0124 -0.1369 -0.0026
 1041loPI   C2B15306   6.645  10.687   7.239  0.1812 -0.0215  0.0961
 1041loPI   C3B15307   6.765  10.731   7.718 -0.0688 -0.0391 -0.1306
 1041loPI   C4B15308   6.852  10.807   8.137 -0.1446 -0.2220 -0.0071
 1042loPI    C115309  10.297   0.505   5.880 -0.1422 -0.0388 -0.2313
 1042loPI    C215310  10.264   0.800   5.612 -0.1010  0.2066  0.0278
 1042loPI    C315311  10.120   0.436   5.528  0.0117  0.2483 -0.3688
 1042loPI   PO415312  10.334   0.703   6.096 -0.1358 -0.1811  0.1801
 1042loPI   GL115313  10.393   0.765   6.550 -0.1597  0.0740  0.0182
 1042loPI   GL215314  10.312   0.470   6.685 -0.1063 -0.0101 -0.0408
 1042loPI   C1A15315  10.384   0.875   6.974  0.2946 -0.1304 -0.0916
 1042loPI   C2A15316  10.274   0.834   7.410 -0.1432  0.1715 -0.0268
 1042loPI   C3A15317  10.075   0.841   7.776 -0.3380 -0.1155 -0.0312
 1042loPI   C4A15318  10.110   0.834   8.204  0.1293 -0.0517  0.0194
 1042loPI   C5A15319  10.115   0.583   8.659 -0.1269  0.2162  0.2847
 1042loPI   C6A15320  10.260   0.276   8.832 -0.0220  0.2926 -0.0987
 1042loPI   C1B15321  10.063   0.505   7.077 -0.1915  0.0643 -0.0338
 1042loPI   C2B15322   9.928   0.406   7.501 -0.1023 -0.1305 -0.2596
 1042loPI   C3B15323   9.888   0.303   7.796 -0.3624 -0.1865 -0.5216
 1042loPI   C4B15324   9.692   0.061   8.094  0.1140  0.2085  0.2623
 1043loPI    C115325   5.140   9.546   6.127 -0.0734 -0.1264  0.0584
 1043loPI    C215326   5.327   9.236   6.297  0.1305  0.0046  0.0759
 1043loPI    C315327   5.396   9.326   5.914  0.0989  0.0500  0.0808
 1043loPI   PO415328   4.844   9.535   6.141  0.0293  0.3557 -0.3753
 1043loPI   GL115329   4.683   9.872   6.397 -0.2589  0.0521 -0.0325
 1043loPI   GL215330   4.964   9.971   6.357  0.0142  0.0017  0.2453
 1043loPI   C1A15331   4.610   9.921   6.894  0.2409 -0.3653  0.2296
 1043loPI   C2A15332   4.577   9.903   7.300 -0.2548 -0.0792 -0.3653
 1043loPI   C3A15333   4.615   9.801   7.730 -0.0826 -0.0535  0.5025
 1043loPI   C4A15334   4.769   9.870   8.145  0.1134 -0.2770  0.0486
 1043loPI   C5A15335   5.002  10.105   8.411  0.0235  0.1017 -0.0811
 1043loPI   C6A15336   4.941  10.523   8.495 -0.4844 -0.2692  0.2122
 1043loPI   C1B15337   5.119   9.876   6.765 -0.0509  0.0641 -0.1320
 1043loPI   C2B15338   5.076   9.829   7.232  0.2175 -0.0004 -0.1898
 1043loPI   C3B15339   5.154   9.820   7.785  0.0402 -0.3190  0.1648
 1043loPI   C4B15340   5.373   9.832   8.129  0.4017  0.0653 -0.3191
 1044loPI    C115341   4.585   2.364   6.201  0.2603 -0.0143  0.0369
 1044loPI    C215342   4.540   2.022   6.000 -0.1791  0.0187  0.0695
 1044loPI    C315343   4.847   2.264   5.916 -0.1022 -0.1818 -0.2445
 1044loPI   PO415344   4.400   2.274   6.434  0.2418 -0.1810 -0.2114
 1044loPI   GL115345   4.356   2.411   6.819 -0.0128 -0.2603  0.0179
 1044loPI   GL215346   4.505   2.256   6.966 -0.1062  0.1792  0.1404
 1044loPI   C1A15347   4.346   2.647   7.150  0.1602 -0.1433 -0.0791
 1044loPI   C2A15348   4.331   2.617   7.630  0.0039 -0.0314 -0.0497
 1044loPI   C3A15349   4.397   2.614   8.108 -0.4081 -0.1044  0.4079
 1044loPI   C4A15350   4.465   2.516   8.557  0.0251 -0.0940 -0.3277
 1044loPI   C5A15351   4.402   2.790   8.940  0.0563 -0.1302 -0.1761
 1044loPI   C6A15352   4.417   3.097   9.267 -0.0033  0.1520  0.0026
 1044loPI   C1B15353   4.601   2.191   7.384 -0.0720  0.1493  0.1489
 1044loPI   C2B15354   4.675   2.108   7.831 -0.0045 -0.1327 -0.0274
 1044loPI   C3B15355   4.631   2.028   8.289  0.2728 -0.1537  0.2447
 1044loPI   C4B15356   4.632   2.080   8.650  0.3057 -0.1653  0.1508
 1045loPI    C115357   3.727  11.374   5.902  0.0010  0.0793  0.1842
 1045loPI    C215358   3.934  11.060   6.038 -0.0279  0.0176  0.0868
 1045loPI    C315359   3.863  11.099   5.646 -0.0979  0.1010  0.1073
 1045loPI   PO415360   3.603  11.416   6.168 -0.0334 -0.3406 -0.2083
 1045loPI   GL115361   3.465  11.133   6.485 -0.0390  0.1354  0.2856
 1045loPI   GL215362   3.783  11.071   6.590 -0.0498  0.1173 -0.0413
 1045loPI   C1A15363   3.333  11.172   6.876 -0.4736  0.1100 -0.1690
 1045loPI   C2A15364   3.406  11.177   7.305  0.0254  0.2396 -0.1097
 1045loPI   C3A15365   3.477  11.216   7.764 -0.1411  0.1558  0.0266
 1045loPI   C4A15366   3.515  11.174   8.203  0.0149  0.2380 -0.3541
 1045loPI   C5A15367   3.669  11.162   8.578 -0.1288  0.0377 -0.0820
 1045loPI   C6A15368   3.988  10.935   8.811 -0.0871  0.0692  0.1871
 1045loPI   C1B15369   3.856  11.144   7.018 -0.3169  0.0937 -0.0080
 1045loPI   C2B15370   3.920  11.123   7.486  0.0072 -0.1440 -0.1034
 1045loPI   C3B15371   4.025  11.178   7.987 -0.1278 -0.4455  0.2405
 1045loPI   C4B15372   4.209  11.215   8.427  0.0887  0.0734 -0.0010
 1046loPI    C115373   8.400   9.086   5.790  0.0692  0.2784  0.0817
 1046loPI    C215374   8.114   9.213   5.542  0.0626  0.0005 -0.0567
 1046loPI    C315375   8.424   9.450   5.627 -0.0936  0.2171 -0.0827
 1046loPI   PO415376   8.300   8.980   6.025  0.0688 -0.0780 -0.0736
 1046loPI   GL115377   8.331   8.987   6.402 -0.1736 -0.1014 -0.2200
 1046loPI   GL215378   8.590   9.110   6.555  0.0231  0.2232 -0.0284
 1046loPI   C1A15379   8.186   9.020   6.838 -0.0382 -0.2057  0.2174
 1046loPI   C2A15380   8.185   8.972   7.254 -0.0430 -0.0116 -0.1744
 1046loPI   C3A15381   8.386   8.916   7.698 -0.0594 -0.2726 -0.1435
 1046loPI   C4A15382   8.438   9.042   8.110  0.1659  0.0951  0.0139
 1046loPI   C5A15383   8.676   9.216   8.300  0.3722 -0.0574 -0.1092
 1046loPI   C6A15384   8.573   9.563   8.622 -0.3223 -0.1323  0.1717
 1046loPI   C1B15385   8.733   9.374   6.951  0.1533 -0.0722  0.2069
 1046loPI   C2B15386   8.669   9.311   7.327 -0.2103  0.2249 -0.1266
 1046loPI   C3B15387   8.796   9.356   7.793 -0.1765  0.3604  0.0429
 1046loPI   C4B15388   8.741   9.652   8.135 -0.1256 -0.0119 -0.0953
 1047loPI    C115389  13.222   2.568   6.570 -0.0925  0.0462 -0.0984
 1047loPI    C215390  12.917   2.486   6.324 -0.1991 -0.1372  0.0920
 1047loPI    C315391  13.268   2.299   6.277 -0.0848  0.1379 -0.1820
 1047loPI   PO415392  13.037   2.875   6.673  0.1992  0.0788  0.0864
 1047loPI   GL115393  12.785   2.861   7.040 -0.2118  0.0638  0.2086
 1047loPI   GL215394  12.635   3.028   6.945  0.0279  0.1272  0.1851
 1047loPI   C1A15395  12.808   2.888   7.515 -0.2826  0.1016 -0.0922
 1047loPI   C2A15396  12.771   2.851   7.951  0.1512 -0.2735  0.1152
 1047loPI   C3A15397  12.892   2.759   8.294 -0.1379 -0.0285  0.0063
 1047loPI   C4A15398  13.058   2.569   8.645  0.2109 -0.0393  0.0305
 1047loPI   C5A15399  13.428   2.382   8.801 -0.0625  0.1122 -0.0675
 1047loPI   C6A15400  13.789   2.135   9.090  0.1266 -0.2702 -0.0281
 1047loPI   C1B15401  12.540   3.255   7.339  0.2778 -0.2092 -0.1563
 1047loPI   C2B15402  12.504   3.199   7.754  0.2359 -0.1611  0.2045
 1047loPI   C3B15403  12.625   3.160   8.284 -0.0116  0.2935  0.1672
 1047loPI   C4B15404  12.531   2.957   8.660 -0.1092 -0.0388  0.0758
 1048loPI    C115405   0.558  11.710   6.266  0.1662  0.1048  0.1573
 1048loPI    C215406   0.697  11.874   5.929  0.1386  0.0782  0.1328
 1048loPI    C315407   0.777  11.491   6.013 -0.0062  0.0333  0.0685
 1048loPI   PO415408   0.579  11.855   6.474 -0.0580 -0.0950  0.0425
 1048loPI   GL115409   0.727  11.880   6.850 -0.1663  0.1030  0.0882
 1048loPI   GL215410   0.964  11.678   7.003 -0.1320 -0.1265 -0.1097
 1048loPI   C1A15411   0.653  12.060   7.174 -0.0267  0.1415  0.0400
 1048loPI   C2A15412   0.628  12.006   7.557  0.3107  0.2153  0.1147
 1048loPI   C3A15413   0.507  12.046   7.940 -0.1051  0.0851 -0.2627
 1048loPI   C4A15414   0.541  11.958   8.417 -0.3911  0.0416  0.1343
 1048loPI   C5A15415   0.495  12.115   8.770 -0.2461 -0.2656  0.2376
 1048loPI   C6A15416   0.661  12.477   9.038 -0.1447 -0.0721 -0.2932
 1048loPI   C1B15417   0.957  11.667   7.444  0.0278  0.2562 -0.1399
 1048loPI   C2B15418   0.856  11.657   7.899 -0.1329 -0.0857 -0.0215
 1048loPI   C3B15419   0.883  11.547   8.318 -0.1184 -0.3902  0.0249
 1048loPI   C4B15420   0.728  11.514   8.770 -0.2522 -0.2061 -0.2039
 1049loPI    C115421   2.681  12.100   6.416  0.1903 -0.0005 -0.1251
 1049loPI    C215422   2.618  11.716   6.325 -0.0906 -0.0237  0.1499
 1049loPI    C315423   2.612  11.993   6.037  0.1880 -0.2309 -0.0612
 1049loPI   PO415424   2.452  12.161   6.593  0.2227 -0.1756 -0.1103
 1049loPI   GL115425   2.381  12.382   6.963 -0.1009 -0.0002  0.1260
 1049loPI   GL215426   2.148  12.065   7.046  0.1984  0.2664  0.0573
 1049loPI   C1A15427   2.582  12.414   7.307  0.2001 -0.2101 -0.3981
 1049loPI   C2A15428   2.643  12.380   7.727  0.2200  0.0378  0.3157
 1049loPI   C3A15429   2.661  12.363   8.244 -0.1630  0.1256  0.1108
 1049loPI   C4A15430   2.481  12.364   8.794 -0.0071  0.0432  0.0151
 1049loPI   C5A15431   2.297  12.555   9.096 -0.0686 -0.3118 -0.1235
 1049loPI   C6A15432   1.999  12.610   9.279 -0.0411  0.0596 -0.0315
 1049loPI   C1B15433   2.208  12.117   7.510  0.0637  0.1108  0.0643
 1049loPI   C2B15434   2.188  12.266   7.982  0.1563 -0.0000  0.2111
 1049loPI   C3B15435   2.189  12.265   8.445 -0.0318 -0.1536  0.0803
 1049loPI   C4B15436   1.946  12.455   8.788  0.1964  0.1044  0.2177
 1050loPI    C115437  12.467   7.533   5.889 -0.0222  0.1211  0.0773
 1050loPI    C215438  12.178   7.293   5.751 -0.1711  0.2390  0.1799
 1050loPI    C315439  12.474   7.410   5.508 -0.0213 -0.1556  0.1649
 1050loPI   PO415440  12.357   7.751   6.020  0.2387  0.3128  0.1256
 1050loPI   GL115441  12.292   7.827   6.461 -0.2850  0.1248 -0.0983
 1050loPI   GL215442  12.428   7.664   6.783  0.0701  0.0806  0.1762
 1050loPI   C1A15443  11.950   7.702   6.789 -0.1165  0.1511  0.1091
 1050loPI   C2A15444  11.801   7.666   7.159 -0.1792  0.4886 -0.1479
 1050loPI   C3A15445  11.791   7.749   7.507 -0.0239 -0.3816 -0.0810
 1050loPI   C4A15446  11.783   7.773   7.914  0.0987  0.2191  0.1097
 1050loPI   C5A15447  11.764   7.842   8.333 -0.2129 -0.2444 -0.2179
 1050loPI   C6A15448  11.676   7.889   8.749  0.4538 -0.2004 -0.1668
 1050loPI   C1B15449  12.314   7.765   7.262  0.1875 -0.1632 -0.1081
 1050loPI   C2B15450  12.323   7.688   7.666  0.1165 -0.0514 -0.1614
 1050loPI   C3B15451  12.299   7.715   8.019 -0.3332 -0.0393 -0.3535
 1050loPI   C4B15452  12.286   8.051   8.276  0.0252  0.0334  0.0181
 1051loPI    C115453   6.151  10.963   6.136 -0.3058  0.0109 -0.0815
 1051loPI    C215454   6.253  11.346   6.191 -0.0438 -0.0755  0.0480
 1051loPI    C315455   6.356  11.158   5.853 -0.2803  0.0018 -0.0694
 1051loPI   PO415456   5.844  10.944   6.320 -0.0817  0.0508  0.0900
 1051loPI   GL115457   5.584  11.034   6.643 -0.1146 -0.2755  0.2900
 1051loPI   GL215458   5.331  11.207   6.687  0.1117 -0.2196  0.0947
 1051loPI   C1A15459   5.800  10.897   7.040  0.0177  0.1614  0.0587
 1051loPI   C2A15460   5.792  10.966   7.562 -0.1750 -0.1494 -0.1512
 1051loPI   C3A15461   5.787  10.790   7.980  0.0026 -0.2143  0.0220
 1051loPI   C4A15462   5.884  10.649   8.418  0.0501  0.2643 -0.0009
 1051loPI   C5A15463   6.093  10.489   8.807 -0.0922 -0.1477  0.0199
 1051loPI   C6A15464   6.299  10.220   9.168 -0.2319  0.1220  0.0704
 1051loPI   C1B15465   5.299  11.309   7.119  0.1315 -0.3921 -0.0974
 1051loPI   C2B15466   5.551  11.512   7.406 -0.2950 -0.0262 -0.1115
 1051loPI   C3B15467   5.824  11.497   7.674 -0.1952 -0.0204 -0.1600
 1051loPI   C4B15468   5.867  11.760   8.030  0.2907  0.3313  0.2369
 1052loPI    C115469   3.439  10.014   6.150  0.2786  0.1006  0.0651
 1052loPI    C215470   3.719   9.751   6.039  0.0209 -0.1269 -0.0611
 1052loPI    C315471   3.485   9.921   5.764 -0.0397 -0.0223  0.0538
 1052loPI   PO415472   3.350   9.916   6.373  0.2932 -0.1492 -0.0573
 1052loPI   GL115473   3.423   9.716   6.762 -0.1362  0.2603 -0.1493
 1052loPI   GL215474   3.104   9.770   6.868  0.0690  0.0560 -0.1676
 1052loPI   C1A15475   3.568   9.769   7.196 -0.1329  0.0196 -0.1546
 1052loPI   C2A15476   3.538   9.833   7.640 -0.2638  0.1054  0.0061
 1052loPI   C3A15477   3.727   9.845   8.010 -0.3095 -0.3368 -0.1497
 1052loPI   C4A15478   3.845   9.798   8.381  0.0645  0.0226  0.0672
 1052loPI   C5A15479   3.796   9.426   8.650  0.1394  0.0368 -0.1331
 1052loPI   C6A15480   3.956   8.986   8.788  0.0008  0.0763  0.1215
 1052loPI   C1B15481   3.019   9.794   7.329  0.2208 -0.0633 -0.0400
 1052loPI   C2B15482   2.997   9.778   7.727 -0.0985  0.0760 -0.0524
 1052loPI   C3B15483   3.211   9.809   8.124 -0.0093  0.0223  0.3658
 1052loPI   C4B15484   3.306   9.838   8.526 -0.1942 -0.2393  0.0398
 1053loPI    C115485  10.101   5.161   6.057  0.0612  0.0778  0.0960
 1053loPI    C215486   9.990   5.481   5.844  0.0399 -0.0961 -0.1583
 1053loPI    C315487  10.378   5.399   5.893  0.0465  0.0071 -0.0330
 1053loPI   PO415488  10.007   5.175   6.324  0.2780  0.1440  0.0306
 1053loPI   GL115489  10.026   5.276   6.671  0.0067 -0.2360 -0.1387
 1053loPI   GL215490   9.753   4.947   6.783  0.1669 -0.0800  0.0610
 1053loPI   C1A15491  10.092   5.450   7.058  0.2962  0.1037 -0.2082
 1053loPI   C2A15492  10.035   5.475   7.561 -0.0163  0.0473 -0.0896
 1053loPI   C3A15493  10.120   5.442   7.981 -0.1603 -0.0122 -0.3663
 1053loPI   C4A15494  10.062   5.408   8.442  0.2116 -0.1031  0.3134
 1053loPI   C5A15495   9.737   5.468   8.850 -0.0254  0.2748 -0.3500
 1053loPI   C6A15496   9.612   5.198   9.210  0.1709 -0.3354  0.2703
 1053loPI   C1B15497   9.865   4.985   7.194  0.2773 -0.0458 -0.1785
 1053loPI   C2B15498   9.724   4.941   7.653  0.1872  0.0366  0.0201
 1053loPI   C3B15499   9.809   5.079   8.132  0.1201 -0.1268 -0.0678
 1053loPI   C4B15500   9.829   5.006   8.613 -0.0913 -0.1188  0.0901
 1054loPI    C115501   2.286  10.730   5.995 -0.1480 -0.1645 -0.0706
 1054loPI    C215502   2.180  11.110   5.930  0.0632 -0.0634  0.1622
 1054loPI    C315503   2.470  10.943   5.711 -0.0283 -0.0908  0.0611
 1054loPI   PO415504   2.291  10.731   6.296  0.0570  0.1057 -0.1567
 1054loPI   GL115505   2.146  10.670   6.716  0.0245  0.0201 -0.0566
 1054loPI   GL215506   1.936  10.393   6.718  0.1737  0.0567 -0.0256
 1054loPI   C1A15507   2.057  10.802   7.184  0.1957  0.3049  0.2341
 1054loPI   C2A15508   2.049  10.886   7.720 -0.0855 -0.1033  0.0068
 1054loPI   C3A15509   2.084  10.778   8.104 -0.1281 -0.2319 -0.1409
 1054loPI   C4A15510   2.270  10.672   8.438 -0.1604 -0.5777  0.1206
 1054loPI   C5A15511   2.355  10.679   8.868 -0.1217 -0.0792 -0.0391
 1054loPI   C6A15512   2.417  10.780   9.343 -0.0722  0.2397 -0.1836
 1054loPI   C1B15513   1.687  10.383   7.241  0.3783 -0.0598 -0.0256
 1054loPI   C2B15514   1.758  10.367   7.681 -0.1171 -0.1490 -0.5306
 1054loPI   C3B15515   1.879  10.286   8.167  0.0331 -0.3034 -0.0324
 1054loPI   C4B15516   1.884  10.090   8.505  0.0263 -0.0163  0.1474
 1055loPI    C115517   7.976  10.149   5.365 -0.0719 -0.0342 -0.0676
 1055loPI    C215518   8.355  10.023   5.339 -0.0895 -0.0601 -0.2086
 1055loPI    C315519   8.055   9.776   5.244 -0.1452 -0.0598 -0.0370
 1055loPI   PO415520   7.977  10.256   5.650 -0.0265  0.0792  0.0391
 1055loPI   GL115521   7.989  10.065   6.132 -0.1261 -0.1749  0.1765
 1055loPI   GL215522   7.869   9.863   6.283 -0.0760  0.0739 -0.3907
 1055loPI   C1A15523   8.016  10.310   6.431 -0.4377 -0.1388 -0.5524
 1055loPI   C2A15524   8.023  10.338   6.884 -0.1800  0.0370  0.0917
 1055loPI   C3A15525   8.200  10.305   7.314  0.2724  0.1309 -0.2315
 1055loPI   C4A15526   8.081  10.408   7.793  0.0507 -0.0068 -0.2590
 1055loPI   C5A15527   8.115  10.264   8.119  0.1813 -0.0239  0.1132
 1055loPI   C6A15528   8.387   9.909   8.264 -0.0190 -0.1121 -0.1148
 1055loPI   C1B15529   7.892   9.923   6.733  0.1772 -0.0583 -0.1267
 1055loPI   C2B15530   7.825   9.970   7.183 -0.0673  0.0211  0.2626
 1055loPI   C3B15531   7.904   9.878   7.580 -0.2015  0.1424 -0.0617
 1055loPI   C4B15532   7.957   9.856   7.931  0.1771  0.1490  0.4213
 1056loPI    C115533   6.070   1.624   6.212  0.1873  0.0457  0.1079
 1056loPI    C215534   5.953   1.243   6.243 -0.2346  0.1804  0.2394
 1056loPI    C315535   5.792   1.479   5.963 -0.1040  0.3093  0.2719
 1056loPI   PO415536   6.048   1.763   6.433 -0.0385  0.2190  0.2611
 1056loPI   GL115537   5.937   1.702   6.782 -0.0993  0.2059  0.0545
 1056loPI   GL215538   6.246   1.638   6.950  0.2212  0.0101 -0.4585
 1056loPI   C1A15539   5.972   1.760   7.312  0.0646 -0.4530  0.1768
 1056loPI   C2A15540   5.966   1.778   7.762  0.0389  0.1827 -0.2017
 1056loPI   C3A15541   5.984   1.709   8.152 -0.3608 -0.0950  0.0840
 1056loPI   C4A15542   5.933   1.889   8.594 -0.1114  0.0710  0.2061
 1056loPI   C5A15543   5.859   2.258   8.924  0.1887 -0.1651 -0.0133
 1056loPI   C6A15544   5.824   2.441   9.278  0.0123  0.0917 -0.1919
 1056loPI   C1B15545   6.503   1.797   7.316 -0.0319  0.1323  0.2030
 1056loPI   C2B15546   6.491   1.728   7.642 -0.2266 -0.3337 -0.0955
 1056loPI   C3B15547   6.509   1.714   8.078 -0.0789  0.0627  0.2014
 1056loPI   C4B15548   6.398   1.652   8.493  0.1265  0.1540  0.2444
 1057loPI    C115549   0.733  13.609   6.236  0.1388  0.0012  0.0888
 1057loPI    C215550   0.640  13.426   5.892  0.0358  0.1165  0.0547
 1057loPI    C315551   0.857  13.235   6.168 -0.1115 -0.0750  0.0402
 1057loPI   PO415552   0.444  13.695   6.295 -0.0338 -0.0410 -0.1326
 1057loPI   GL115553   0.292  13.518   6.731 -0.3105 -0.1459 -0.1401
 1057loPI   GL215554   0.245  13.288   6.879  0.1444  0.2217 -0.0599
 1057loPI   C1A15555   0.236  13.796   7.067  0.1303 -0.2885 -0.1366
 1057loPI   C2A15556   0.255  13.963   7.450  0.3439  0.1677  0.2687
 1057loPI   C3A15557   0.304  13.833   7.850 -0.1614  0.1683 -0.0056
 1057loPI   C4A15558   0.305  13.692   8.313 -0.1413  0.1125  0.2509
 1057loPI   C5A15559   0.460  13.729   8.675 -0.0343  0.1420 -0.1174
 1057loPI   C6A15560   0.617  13.888   8.992 -0.3322 -0.0131 -0.0242
 1057loPI   C1B15561   0.169  13.355   7.353  0.1043 -0.5122 -0.2332
 1057loPI   C2B15562   0.152  13.319   7.818  0.1999 -0.0473  0.0713
 1057loPI   C3B15563   0.120  13.249   8.191  0.1230  0.1486 -0.0469
 1057loPI   C4B15564   0.140  13.311   8.620  0.3703 -0.0032  0.0081
 1058loPI    C115565   9.646  12.320   5.812 -0.2277 -0.0270  0.0879
 1058loPI    C215566   9.721  11.971   5.631 -0.1732 -0.0736  0.1996
 1058loPI    C315567   9.886  12.308   5.492 -0.0267 -0.1277  0.2407
 1058loPI   PO415568   9.635  12.230   6.038 -0.0890  0.1989 -0.0219
 1058loPI   GL115569   9.506  12.483   6.274 -0.0765 -0.1216 -0.0824
 1058loPI   GL215570   9.446  12.789   6.418  0.0903  0.0466 -0.0832
 1058loPI   C1A15571   9.771  12.342   6.679  0.1264  0.2616  0.1101
 1058loPI   C2A15572   9.872  12.314   7.084  0.0982  0.3148 -0.0070
 1058loPI   C3A15573   9.865  12.360   7.506  0.1245 -0.3436 -0.1176
 1058loPI   C4A15574  10.000  12.507   7.962  0.1376  0.0625 -0.0255
 1058loPI   C5A15575  10.104  12.452   8.332  0.1062 -0.0156  0.1953
 1058loPI   C6A15576  10.325  12.186   8.678  0.0868 -0.3656  0.1009
 1058loPI   C1B15577   9.565  12.773   6.878  0.0629  0.0569 -0.1394
 1058loPI   C2B15578   9.566  12.752   7.268 -0.0028 -0.0195  0.2675
 1058loPI   C3B15579   9.725  12.880   7.738  0.1413 -0.2698  0.0619
 1058loPI   C4B15580   9.645  13.004   8.143  0.3119  0.2463  0.0362
 1059loPI    C115581   2.606  10.243   6.033  0.1833 -0.2396 -0.0434
 1059loPI    C215582   2.464   9.938   5.816  0.0132 -0.1509 -0.0581
 1059loPI    C315583   2.373  10.315   5.716  0.2047 -0.0954 -0.0272
 1059loPI   PO415584   2.579  10.257   6.335  0.2054 -0.1319  0.2008
 1059loPI   GL115585   2.723  10.534   6.669 -0.0982  0.1623  0.0815
 1059loPI   GL215586   2.901  10.261   6.769 -0.1752 -0.1456  0.0119
 1059loPI   C1A15587   2.541  10.708   7.081  0.3085  0.0096 -0.4215
 1059loPI   C2A15588   2.619  10.826   7.542 -0.1564  0.0707  0.0519
 1059loPI   C3A15589   2.568  10.845   7.944  0.2574 -0.3004  0.1348
 1059loPI   C4A15590   2.763  10.678   8.315 -0.0923  0.1254 -0.3603
 1059loPI   C5A15591   2.714  10.427   8.638  0.0681 -0.1781  0.0201
 1059loPI   C6A15592   2.764  10.450   9.059  0.0069  0.0635 -0.2967
 1059loPI   C1B15593   2.844  10.321   7.180 -0.1169  0.1270  0.2430
 1059loPI   C2B15594   2.843  10.270   7.589 -0.1118 -0.0147 -0.1397
 1059loPI   C3B15595   2.841  10.422   7.900 -0.0686 -0.1108 -0.2553
 1059loPI   C4B15596   2.910  10.147   8.301 -0.2226  0.0591  0.0930
 1060loPI    C115597   9.052   6.420   5.992  0.1909 -0.0538  0.0018
 1060loPI    C215598   8.870   6.125   6.192  0.2442 -0.0980 -0.0148
 1060loPI    C315599   8.922   6.096   5.797  0.0925  0.0126 -0.0437
 1060loPI   PO415600   8.987   6.646   6.017  0.0635  0.0958  0.1239
 1060loPI   GL115601   8.991   6.744   6.377 -0.1279  0.1165  0.0680
 1060loPI   GL215602   8.716   6.566   6.452 -0.2506  0.2025 -0.0116
 1060loPI   C1A15603   9.226   6.704   6.742 -0.0510 -0.0856  0.2152
 1060loPI   C2A15604   9.105   6.711   7.131 -0.2005  0.3041 -0.1391
 1060loPI   C3A15605   9.134   6.774   7.561 -0.0601  0.1235 -0.1209
 1060loPI   C4A15606   9.295   6.715   7.978 -0.0755  0.2945 -0.0521
 1060loPI   C5A15607   9.198   6.597   8.457 -0.1787  0.0259 -0.1444
 1060loPI   C6A15608   8.910   6.752   8.817  0.0831 -0.2516 -0.0289
 1060loPI   C1B15609   8.737   6.731   6.858  0.0768 -0.0568  0.1247
 1060loPI   C2B15610   8.704   6.789   7.317  0.0695 -0.2776 -0.1551
 1060loPI   C3B15611   8.648   6.808   7.793 -0.2532  0.1622  0.0985
 1060loPI   C4B15612   8.675   6.764   8.215  0.2035  0.2948  0.2080
 1061loPI    C115613  14.301   7.612   6.062 -0.1515  0.0118 -0.0099
 1061loPI    C215614  13.986   7.783   5.885 -0.2306 -0.1885 -0.0653
 1061loPI    C315615  14.264   7.600   5.664 -0.1364 -0.1168 -0.0076
 1061loPI   PO415616  14.261   7.466   6.187  0.1198 -0.3398  0.1180
 1061loPI   GL115617  14.222   7.258   6.567  0.0050  0.0537  0.0606
 1061loPI   GL215618  13.905   7.225   6.700 -0.3381  0.0295  0.1183
 1061loPI   C1A15619  14.302   7.310   7.014 -0.0403 -0.2970 -0.1291
 1061loPI   C2A15620  14.597   7.322   7.390  0.0091  0.1874 -0.1245
 1061loPI   C3A15621  14.825   7.458   7.739  0.0930 -0.0034  0.1859
 1061loPI   C4A15622  14.961   7.725   8.053  0.1253  0.1889  0.1111
 1061loPI   C5A15623  15.034   7.503   8.425  0.0119  0.3607  0.1320
 1061loPI   C6A15624  15.386   7.539   8.732 -0.1232  0.0498 -0.0048
 1061loPI   C1B15625  13.851   7.289   7.188  0.1154  0.0413  0.2676
 1061loPI   C2B15626  13.837   7.306   7.625  0.1916 -0.1650  0.1753
 1061loPI   C3B15627  13.701   7.328   8.046 -0.0737  0.1822  0.2763
 1061loPI   C4B15628  14.125   7.440   8.406  0.0666 -0.0179  0.2144
 1062loPI    C115629   2.653  15.494   5.812  0.2535  0.1207 -0.3114
 1062loPI    C215630   2.345  15.335   5.613  0.2533  0.0645 -0.2663
 1062loPI    C315631   2.435  15.722   5.565 -0.0343  0.1655 -0.0233
 1062loPI   PO415632   2.627  15.455   6.067 -0.1503  0.0703  0.0815
 1062loPI   GL115633   2.729  15.461   6.574 -0.0398  0.1495 -0.2814
 1062loPI   GL215634   2.990  15.642   6.844 -0.0553  0.0207  0.1864
 1062loPI   C1A15635   2.755  15.185   6.925  0.0493 -0.2533 -0.0450
 1062loPI   C2A15636   2.726  15.182   7.383 -0.0256  0.0741  0.0673
 1062loPI   C3A15637   2.729  15.191   7.862 -0.1153  0.0465  0.0221
 1062loPI   C4A15638   2.890  15.017   8.273 -0.1258  0.4167  0.2709
 1062loPI   C5A15639   3.045  14.829   8.660 -0.1462 -0.0295 -0.1732
 1062loPI   C6A15640   3.327  14.757   8.935  0.2707  0.1981  0.0785
 1062loPI   C1B15641   2.935  15.668   7.288  0.1043  0.1251 -0.2298
 1062loPI   C2B15642   2.909  15.631   7.735  0.0220  0.0643  0.0257
 1062loPI   C3B15643   3.004  15.490   8.135  0.0455 -0.3262  0.1561
 1062loPI   C4B15644   3.023  15.529   8.489  0.3075  0.3195  0.2811
 1063loPI    C115645  17.100   3.400   6.392  0.2921 -0.2608 -0.2236
 1063loPI    C215646  17.041   3.005   6.388  0.0814 -0.2302 -0.2470
 1063loPI    C315647  17.032   3.212   6.045  0.0530 -0.1857 -0.2194
 1063loPI   PO415648  16.992   3.513   6.622 -0.2711 -0.4224 -0.0082
 1063loPI   GL115649  16.976   3.569   7.051  0.0034 -0.0173 -0.0455
 1063loPI   GL215650  17.240   3.430   7.225  0.1738 -0.2927 -0.0378
 1063loPI   C1A15651  16.818   3.755   7.408  0.0105 -0.0861  0.1062
 1063loPI   C2A15652  16.829   3.632   7.773  0.1692  0.0099  0.1133
 1063loPI   C3A15653  16.772   3.670   8.180  0.0941  0.0009  0.2419
 1063loPI   C4A15654  16.608   3.752   8.617  0.0235  0.2627 -0.1052
 1063loPI   C5A15655  16.661   3.766   9.060  0.2366  0.0884 -0.0164
 1063loPI   C6A15656  16.878   3.535   9.337 -0.0906  0.1252 -0.0254
 1063loPI   C1B15657  17.370   3.577   7.662 -0.0159  0.2780  0.0693
 1063loPI   C2B15658  17.569   3.645   8.104  0.0235 -0.3290 -0.1652
 1063loPI   C3B15659  17.632   3.814   8.606 -0.2296 -0.2176  0.2610
 1063loPI   C4B15660  17.524   3.984   9.001  0.0718 -0.1150 -0.0273
 1064loPI    C115661   5.456   1.081   6.036 -0.1195 -0.0120  0.1263
 1064loPI    C215662   5.107   0.976   5.872 -0.0260  0.1050 -0.1540
 1064loPI    C315663   5.450   0.890   5.685  0.0981 -0.0078  0.1189
 1064loPI   PO415664   5.409   1.147   6.261 -0.0052 -0.0125  0.2750
 1064loPI   GL115665   5.479   1.075   6.627  0.0326 -0.2440  0.0029
 1064loPI   GL215666   5.707   1.233   6.764 -0.0678 -0.0939  0.0273
 1064loPI   C1A15667   5.245   1.144   7.064 -0.0564  0.1452 -0.1534
 1064loPI   C2A15668   5.202   1.138   7.399  0.0324  0.0035 -0.2532
 1064loPI   C3A15669   5.272   1.167   7.867 -0.0884 -0.0642 -0.2706
 1064loPI   C4A15670   5.240   1.175   8.334  0.2111  0.0145  0.0333
 1064loPI   C5A15671   5.299   1.338   8.735  0.2759  0.2317 -0.3244
 1064loPI   C6A15672   5.485   1.594   8.966  0.2819  0.0043 -0.3830
 1064loPI   C1B15673   5.728   1.224   7.209 -0.3807 -0.1714  0.0421
 1064loPI   C2B15674   5.756   1.272   7.580 -0.0228 -0.0092 -0.2070
 1064loPI   C3B15675   5.786   1.273   8.008 -0.2181 -0.4479  0.4366
 1064loPI   C4B15676   5.754   1.220   8.480 -0.2534 -0.4168  0.0965
 1065loPI    C115677   4.692   4.924   6.324 -0.2702  0.1022  0.0633
 1065loPI    C215678   4.477   5.216   6.156 -0.1551  0.0578 -0.1652
 1065loPI    C315679   4.444   4.841   6.022 -0.1078  0.0105 -0.0463
 1065loPI   PO415680   4.799   5.142   6.538 -0.3355 -0.1706  0.0468
 1065loPI   GL115681   4.930   5.130   6.820  0.0990  0.2913 -0.2252
 1065loPI   GL215682   5.162   4.906   6.981  0.1884 -0.0016  0.2600
 1065loPI   C1A15683   4.823   5.323   7.236 -0.0175  0.3391  0.4148
 1065loPI   C2A15684   4.833   5.346   7.549 -0.0680  0.1730  0.0020
 1065loPI   C3A15685   4.881   5.340   7.879 -0.0969 -0.1311  0.0314
 1065loPI   C4A15686   4.787   5.366   8.273 -0.0923 -0.2557  0.1996
 1065loPI   C5A15687   4.744   5.239   8.596 -0.2281 -0.0784  0.1655
 1065loPI   C6A15688   4.337   5.333   8.838  0.0038  0.1026  0.0505
 1065loPI   C1B15689   5.103   4.927   7.437  0.0553 -0.0083  0.1894
 1065loPI   C2B15690   5.089   4.875   7.849  0.0281  0.0311 -0.0732
 1065loPI   C3B15691   5.112   4.951   8.245 -0.2290 -0.1803 -0.0377
 1065loPI   C4B15692   5.006   4.872   8.614  0.1444  0.3335 -0.2874
 1066loPI    C115693   3.518   2.222   6.274 -0.1623 -0.0479 -0.0375
 1066loPI    C215694   3.637   2.537   6.057 -0.2322  0.0879  0.1191
 1066loPI    C315695   3.417   2.249   5.888 -0.0763  0.0684 -0.0526
 1066loPI   PO415696   3.348   2.392   6.496  0.1484  0.5362 -0.0814
 1066loPI   GL115697   3.208   2.357   6.911  0.0146  0.2723  0.0676
 1066loPI   GL215698   3.554   2.164   6.898 -0.1890 -0.1025 -0.1115
 1066loPI   C1A15699   3.295   2.591   7.230  0.1466 -0.0892  0.0849
 1066loPI   C2A15700   3.261   2.523   7.621  0.1787  0.3336  0.0662
 1066loPI   C3A15701   3.384   2.568   8.104 -0.0154  0.0905  0.1534
 1066loPI   C4A15702   3.315   2.569   8.476  0.0802 -0.0362  0.3942
 1066loPI   C5A15703   3.497   2.556   8.888 -0.1662 -0.3923 -0.1526
 1066loPI   C6A15704   3.712   2.507   9.275  0.0141 -0.0157  0.1106
 1066loPI   C1B15705   3.503   2.118   7.273  0.1124  0.1930 -0.0738
 1066loPI   C2B15706   3.549   2.164   7.745  0.2760 -0.1535  0.1638
 1066loPI   C3B15707   3.701   2.121   8.183 -0.0085 -0.2679 -0.2470
 1066loPI   C4B15708   3.699   2.170   8.608  0.0336 -0.1843 -0.1249
 1067loPI    C115709  11.090   8.922   5.947 -0.1105 -0.1147 -0.0845
 1067loPI    C215710  11.185   8.949   5.560  0.1163 -0.1751 -0.0342
 1067loPI    C315711  10.861   8.743   5.672  0.1334 -0.2837 -0.1808
 1067loPI   PO415712  11.365   8.876   6.084  0.3285  0.2362  0.2060
 1067loPI   GL115713  11.369   9.032   6.455  0.3021  0.0974  0.2442
 1067loPI   GL215714  11.127   9.002   6.589 -0.1032  0.1729 -0.2647
 1067loPI   C1A15715  11.563   9.150   6.884 -0.0782 -0.0408  0.3191
 1067loPI   C2A15716  11.551   9.091   7.290 -0.0168  0.2046  0.1388
 1067loPI   C3A15717  11.554   9.078   7.733 -0.1040 -0.2811 -0.0971
 1067loPI   C4A15718  11.523   9.059   8.161  0.0758  0.4011  0.0131
 1067loPI   C5A15719  11.614   8.973   8.575 -0.0861  0.1424  0.0521
 1067loPI   C6A15720  12.012   8.858   8.797  0.1197 -0.1393 -0.2097
 1067loPI   C1B15721  11.057   8.997   6.998 -0.1613  0.0198 -0.0924
 1067loPI   C2B15722  10.980   9.030   7.375  0.0141 -0.0505 -0.0532
 1067loPI   C3B15723  10.996   9.009   7.849  0.0447 -0.1326  0.0745
 1067loPI   C4B15724  11.040   8.930   8.276 -0.0847  0.0362  0.3155
 1068loPI    C115725   2.802   1.723   6.301  0.0294 -0.0865  0.0608
 1068loPI    C215726   2.638   1.477   6.032  0.0006 -0.0505  0.0456
 1068loPI    C315727   2.882   1.770   5.912  0.1003 -0.1227  0.0707
 1068loPI   PO415728   2.638   1.767   6.486 -0.7007 -0.0530 -0.0660
 1068loPI   GL115729   2.315   1.634   6.875 -0.1071  0.1298 -0.1462
 1068loPI   GL215730   2.608   1.597   6.968 -0.3841  0.1352  0.0252
 1068loPI   C1A15731   2.219   1.619   7.374 -0.2262  0.3314 -0.0156
 1068loPI   C2A15732   2.264   1.557   7.709  0.2277 -0.0752  0.3380
 1068loPI   C3A15733   2.312   1.483   8.127 -0.2689  0.0345 -0.1038
 1068loPI   C4A15734   2.345   1.613   8.517  0.0655 -0.0381  0.1822
 1068loPI   C5A15735   2.503   1.678   8.950 -0.0952  0.0524 -0.0191
 1068loPI   C6A15736   2.177   1.418   9.236  0.0025  0.0915 -0.1240
 1068loPI   C1B15737   2.778   1.626   7.408 -0.2464 -0.3995 -0.0995
 1068loPI   C2B15738   2.761   1.553   7.754 -0.0275 -0.1038  0.1397
 1068loPI   C3B15739   2.932   1.580   8.093  0.3854  0.2963 -0.1602
 1068loPI   C4B15740   2.860   1.614   8.533  0.1126  0.0840 -0.1796
 1069loPI    C115741  10.004   1.708   6.116 -0.1530 -0.0848 -0.1093
 1069loPI    C215742   9.942   1.995   6.388  0.0281 -0.0698 -0.0829
 1069loPI    C315743   9.652   1.733   6.304 -0.1415  0.1261 -0.1132
 1069loPI   PO415744  10.227   1.614   6.201  0.0210  0.1090 -0.2054
 1069loPI   GL115745  10.435   1.468   6.434  0.0604  0.0385 -0.1394
 1069loPI   GL215746  10.342   1.304   6.719 -0.1207  0.1085 -0.3797
 1069loPI   C1A15747  10.246   1.782   6.844  0.1235  0.1782  0.0490
 1069loPI   C2A15748  10.297   1.800   7.324 -0.0438 -0.1185 -0.3234
 1069loPI   C3A15749  10.136   1.689   7.667 -0.1311  0.0911  0.0089
 1069loPI   C4A15750  10.195   1.794   8.089  0.5098 -0.3383  0.1291
 1069loPI   C5A15751  10.248   1.774   8.495 -0.1471  0.1217 -0.0414
 1069loPI   C6A15752  10.362   1.403   8.640  0.1089  0.0426  0.0297
 1069loPI   C1B15753  10.127   1.331   7.091 -0.0853 -0.1233  0.2534
 1069loPI   C2B15754   9.909   1.292   7.440 -0.0964 -0.1883 -0.4931
 1069loPI   C3B15755   9.800   1.275   7.802 -0.0093  0.1030 -0.1271
 1069loPI   C4B15756   9.588   1.117   8.199  0.1014  0.2205  0.0640
 1070loPI    C115757   5.040   6.177   6.067 -0.4624 -0.3501  0.1526
 1070loPI    C215758   5.221   5.847   5.932  0.3204  0.0544  0.1514
 1070loPI    C315759   4.986   6.060   5.688  0.1443 -0.2702  0.0309
 1070loPI   PO415760   4.997   6.052   6.301  0.1760  0.1551 -0.0887
 1070loPI   GL115761   4.859   6.109   6.669  0.0881  0.1290 -0.0235
 1070loPI   GL215762   5.220   6.067   6.729  0.0104  0.1046 -0.0301
 1070loPI   C1A15763   4.713   6.197   7.134 -0.2255  0.1842 -0.3164
 1070loPI   C2A15764   4.826   6.178   7.608  0.3283  0.2658  0.0034
 1070loPI   C3A15765   4.818   6.213   8.047 -0.2755 -0.1665  0.1160
 1070loPI   C4A15766   4.786   6.243   8.519  0.2862 -0.0008  0.1968
 1070loPI   C5A15767   4.440   6.161   8.893 -0.1351 -0.1245  0.0525
 1070loPI   C6A15768   4.115   6.215   9.044  0.3983  0.1468 -0.0641
 1070loPI   C1B15769   5.399   6.213   7.057 -0.1752 -0.1634 -0.0664
 1070loPI   C2B15770   5.365   6.197   7.508 -0.0175  0.1839 -0.2975
 1070loPI   C3B15771   5.347   6.232   8.008 -0.1193 -0.1859  0.4563
 1070loPI   C4B15772   5.295   6.356   8.524 -0.0178  0.0415  0.3048
 1071loPI    C115773  11.334   1.327   6.291 -0.1003  0.1945 -0.1761
 1071loPI    C215774  11.710   1.349   6.155 -0.0456  0.0397 -0.0531
 1071loPI    C315775  11.444   1.112   5.972  0.0496 -0.2311  0.1527
 1071loPI   PO415776  11.353   1.463   6.513  0.0771  0.3320  0.0885
 1071loPI   GL115777  11.209   1.695   6.835  0.0355 -0.0107  0.1260
 1071loPI   GL215778  10.853   1.698   6.842 -0.0267 -0.2114 -0.0444
 1071loPI   C1A15779  11.073   1.823   7.256  0.4436  0.3707  0.0164
 1071loPI   C2A15780  10.821   1.827   7.562  0.1366  0.0288 -0.1135
 1071loPI   C3A15781  10.624   1.820   7.943 -0.5061  0.0418  0.0237
 1071loPI   C4A15782  10.718   1.863   8.400 -0.2074  0.1479  0.3053
 1071loPI   C5A15783  10.686   1.834   8.862  0.2289 -0.1622  0.1877
 1071loPI   C6A15784  10.634   2.161   9.123 -0.2186 -0.1872 -0.0617
 1071loPI   C1B15785  10.648   1.441   7.132  0.2195  0.0505 -0.1937
 1071loPI   C2B15786  10.558   1.420   7.530 -0.2292 -0.0272  0.0199
 1071loPI   C3B15787  10.374   1.353   7.911  0.1095 -0.1715 -0.0537
 1071loPI   C4B15788  10.075   1.335   8.234 -0.1059  0.3420  0.0152
 1072loPI    C115789   3.294   0.565   6.261 -0.1440 -0.0999 -0.0816
 1072loPI    C215790   3.210   0.204   6.111  0.1402 -0.2483  0.1055
 1072loPI    C315791   3.485   0.435   5.935 -0.0345 -0.1241 -0.0085
 1072loPI   PO415792   3.334   0.495   6.543  0.4497  0.1132 -0.1421
 1072loPI   GL115793   3.473   0.567   6.818 -0.2104 -0.2110 -0.0896
 1072loPI   GL215794   3.470   0.849   6.982 -0.3080 -0.1321  0.0628
 1072loPI   C1A15795   3.344   0.336   7.204 -0.0154  0.0827 -0.0078
 1072loPI   C2A15796   3.189   0.300   7.585  0.0289  0.0217 -0.0115
 1072loPI   C3A15797   3.188   0.303   8.063 -0.1381  0.1411 -0.2509
 1072loPI   C4A15798   3.135   0.303   8.516 -0.1354  0.4973  0.0034
 1072loPI   C5A15799   3.273   0.367   8.883 -0.0930 -0.1434 -0.0737
 1072loPI   C6A15800   3.501   0.256   9.234  0.1826 -0.4230 -0.0395
 1072loPI   C1B15801   3.393   0.785   7.434  0.0838  0.0244  0.2524
 1072loPI   C2B15802   3.374   0.720   7.800  0.0729 -0.2906  0.0629
 1072loPI   C3B15803   3.449   0.771   8.180  0.1720  0.1267 -0.3081
 1072loPI   C4B15804   3.425   0.709   8.541  0.0447  0.0573 -0.3137
 1073loPI    C115805  12.583   9.676   6.129  0.1775 -0.0439  0.0970
 1073loPI    C215806  12.359   9.747   5.806 -0.0972 -0.1104  0.2691
 1073loPI    C315807  12.755   9.798   5.789 -0.1089 -0.1057 -0.0738
 1073loPI   PO415808  12.544   9.858   6.279 -0.0429  0.1234  0.0965
 1073loPI   GL115809  12.946   9.850   6.550  0.0321 -0.0474  0.4788
 1073loPI   GL215810  13.188   9.824   6.393  0.0067  0.0684  0.0898
 1073loPI   C1A15811  13.009  10.085   6.897 -0.2167 -0.1002  0.0621
 1073loPI   C2A15812  13.061  10.091   7.330 -0.0695  0.1749 -0.2111
 1073loPI   C3A15813  13.017  10.150   7.714  0.2988 -0.2070 -0.1649
 1073loPI   C4A15814  12.911  10.044   8.073  0.0262  0.2267  0.0003
 1073loPI   C5A15815  12.809   9.950   8.513  0.0966 -0.2289  0.1265
 1073loPI   C6A15816  12.379  10.027   8.707 -0.2192  0.1538 -0.0296
 1073loPI   C1B15817  13.408   9.689   6.744  0.1040  0.2221  0.0179
 1073loPI   C2B15818  13.351   9.700   7.159  0.0836  0.1656 -0.0994
 1073loPI   C3B15819  13.273   9.675   7.532 -0.1864 -0.0042  0.0521
 1073loPI   C4B15820  13.286   9.658   7.965  0.1328 -0.0038 -0.1317
 1074loPI    C115821   3.138   1.343   6.407 -0.3859  0.0714  0.0020
 1074loPI    C215822   3.125   0.979   6.573  0.2214 -0.0579 -0.2074
 1074loPI    C315823   2.933   1.049   6.229 -0.1053 -0.1041 -0.0382
 1074loPI   PO415824   3.048   1.451   6.738  0.1093 -0.1765 -0.0422
 1074loPI   GL115825   2.911   1.159   7.130  0.0058 -0.1380  0.1623
 1074loPI   GL215826   3.002   0.772   7.001  0.2417  0.0982 -0.1997
 1074loPI   C1A15827   2.961   1.148   7.520  0.0394  0.2489  0.2483
 1074loPI   C2A15828   3.115   1.132   7.957  0.0582  0.2001  0.0553
 1074loPI   C3A15829   3.101   1.186   8.354 -0.3007  0.0948 -0.1700
 1074loPI   C4A15830   3.057   1.174   8.764 -0.0849 -0.2119  0.2246
 1074loPI   C5A15831   3.352   0.970   9.007  0.1612 -0.0239  0.2360
 1074loPI   C6A15832   3.719   0.632   8.929  0.1585  0.0437  0.0258
 1074loPI   C1B15833   2.937   0.641   7.389  0.1519  0.1364 -0.0406
 1074loPI   C2B15834   2.894   0.675   7.807  0.3372  0.0395 -0.5782
 1074loPI   C3B15835   2.893   0.697   8.300 -0.0843 -0.0792 -0.0301
 1074loPI   C4B15836   2.805   0.713   8.606 -0.1185 -0.0222  0.1456
 1075loPI    C115837   2.040   4.926   6.333  0.3150 -0.1708 -0.2953
 1075loPI    C215838   2.170   5.296   6.252  0.0048 -0.0003 -0.0359
 1075loPI    C315839   1.826   5.165   6.094 -0.0508 -0.0583  0.1307
 1075loPI   PO415840   2.037   4.821   6.596 -0.1028 -0.1306  0.0499
 1075loPI   GL115841   1.822   4.688   6.996  0.1368 -0.2303 -0.0663
 1075loPI   GL215842   1.812   5.004   6.970 -0.1242 -0.0064  0.1605
 1075loPI   C1A15843   1.752   4.708   7.435 -0.0596 -0.2306  0.0686
 1075loPI   C2A15844   1.940   4.719   7.870  0.1118  0.1115  0.3224
 1075loPI   C3A15845   1.950   4.730   8.333 -0.1869  0.3127 -0.1115
 1075loPI   C4A15846   1.906   4.747   8.788  0.0412 -0.0238 -0.0065
 1075loPI   C5A15847   2.138   4.911   9.155  0.3749  0.1111  0.0230
 1075loPI   C6A15848   2.571   5.026   9.280 -0.2301  0.1136  0.2267
 1075loPI   C1B15849   1.736   5.190   7.390  0.4187 -0.1794 -0.0624
 1075loPI   C2B15850   1.655   5.239   7.783  0.0038  0.1415 -0.2992
 1075loPI   C3B15851   1.766   5.264   8.192 -0.0767 -0.1146  0.3681
 1075loPI   C4B15852   1.656   5.226   8.597  0.0748  0.2325 -0.0369
 1076loPI    C115853  15.887   5.409   6.503  0.1165  0.2282  0.0031
 1076loPI    C215854  15.856   5.546   6.128  0.0255  0.1646 -0.0126
 1076loPI    C315855  15.775   5.163   6.209  0.4392  0.0758  0.0031
 1076loPI   PO415856  16.095   5.525   6.608 -0.1856 -0.3558  0.2426
 1076loPI   GL115857  16.245   5.764   6.876 -0.0217  0.0788  0.2979
 1076loPI   GL215858  16.192   6.068   6.847 -0.1604 -0.2093 -0.1752
 1076loPI   C1A15859  16.405   5.606   7.317 -0.1183 -0.1297  0.0546
 1076loPI   C2A15860  16.460   5.586   7.775 -0.2803 -0.1208 -0.3287
 1076loPI   C3A15861  16.353   5.627   8.230  0.2259 -0.0839 -0.1923
 1076loPI   C4A15862  16.428   5.507   8.731  0.1253 -0.1156 -0.3215
 1076loPI   C5A15863  16.143   5.263   8.998 -0.0562 -0.1724  0.0988
 1076loPI   C6A15864  15.908   5.243   9.293  0.2303  0.0002 -0.0464
 1076loPI   C1B15865  16.095   6.067   7.252  0.0420  0.0790  0.0973
 1076loPI   C2B15866  16.122   5.979   7.612  0.1283  0.0539 -0.4460
 1076loPI   C3B15867  16.066   5.995   8.040 -0.2421 -0.0660  0.0895
 1076loPI   C4B15868  16.268   6.109   8.396  0.1884  0.1917 -0.1370
 1077loPI    C115869   9.441   0.387   5.981  0.1795  0.1510 -0.0428
 1077loPI    C215870   9.815   0.259   5.925  0.0772 -0.2299  0.1097
 1077loPI    C315871   9.547   0.228   5.630  0.1636  0.0527 -0.0032
 1077loPI   PO415872   9.455   0.646   6.085  0.0379  0.1609 -0.2404
 1077loPI   GL115873   9.565   1.004   6.368 -0.2127 -0.1035 -0.1606
 1077loPI   GL215874   9.510   0.757   6.624 -0.2787  0.2287 -0.3518
 1077loPI   C1A15875   9.424   1.243   6.680 -0.0022  0.1489  0.0692
 1077loPI   C2A15876   9.399   1.366   7.071 -0.0723 -0.0839 -0.1593
 1077loPI   C3A15877   9.359   1.426   7.436 -0.0678  0.1395 -0.2808
 1077loPI   C4A15878   9.285   1.376   7.897 -0.0342 -0.0691  0.0903
 1077loPI   C5A15879   9.421   1.539   8.366  0.1213  0.3185  0.0898
 1077loPI   C6A15880   9.745   1.710   8.462 -0.2665 -0.1215 -0.0821
 1077loPI   C1B15881   9.106   0.973   6.867  0.0435 -0.0879 -0.2327
 1077loPI   C2B15882   9.145   0.949   7.228 -0.2852 -0.1599 -0.0548
 1077loPI   C3B15883   9.070   0.978   7.652 -0.0154 -0.1637  0.2822
 1077loPI   C4B15884   9.109   0.861   8.020  0.0800  0.0227  0.1411
 1078loPI    C115885   2.987  15.166   6.214 -0.0923  0.2305 -0.2803
 1078loPI    C215886   3.087  14.810   6.061  0.2954  0.2438 -0.0695
 1078loPI    C315887   3.126  15.141   5.839  0.2901  0.1973 -0.1401
 1078loPI   PO415888   3.088  15.129   6.444  0.0429  0.3469 -0.1299
 1078loPI   GL115889   3.448  15.276   6.690 -0.2745  0.0144  0.0402
 1078loPI   GL215890   3.717  15.330   6.860  0.1294  0.1409  0.0445
 1078loPI   C1A15891   3.238  15.280   7.149 -0.1408  0.0501  0.1148
 1078loPI   C2A15892   3.289  15.221   7.506  0.1722  0.1538 -0.0869
 1078loPI   C3A15893   3.352  15.150   7.955  0.2381  0.3640  0.0595
 1078loPI   C4A15894   3.399  15.099   8.464  0.2314 -0.2377  0.0931
 1078loPI   C5A15895   3.446  15.286   8.870 -0.1708 -0.2237  0.1819
 1078loPI   C6A15896   3.647  15.601   9.158 -0.0399 -0.1789  0.1812
 1078loPI   C1B15897   3.839  15.400   7.314 -0.0789  0.0228 -0.0961
 1078loPI   C2B15898   3.876  15.305   7.643  0.0495  0.0703 -0.0106
 1078loPI   C3B15899   3.818  15.292   8.155 -0.2365  0.2743  0.2861
 1078loPI   C4B15900   3.894  15.290   8.605 -0.2083 -0.0003 -0.0976
 1079loPI    C115901   3.705   4.814   6.461 -0.1677 -0.2219 -0.0330
 1079loPI    C215902   3.898   4.516   6.278 -0.1165 -0.2108  0.0027
 1079loPI    C315903   3.589   4.694   6.098  0.1553  0.0387 -0.2281
 1079loPI   PO415904   3.636   4.723   6.633  0.1941  0.3098 -0.1285
 1079loPI   GL115905   3.491   4.696   7.040  0.2599  0.1542  0.1236
 1079loPI   GL215906   3.671   4.893   7.125  0.1478 -0.0555 -0.0188
 1079loPI   C1A15907   3.272   4.811   7.364 -0.1008  0.1682 -0.3057
 1079loPI   C2A15908   3.164   4.783   7.779  0.3552 -0.0739 -0.0418
 1079loPI   C3A15909   3.117   4.817   8.313 -0.2898  0.1370  0.1000
 1079loPI   C4A15910   3.030   4.713   8.706  0.1248  0.0508  0.0542
 1079loPI   C5A15911   2.974   4.721   9.171  0.2000  0.2053  0.1148
 1079loPI   C6A15912   3.219   5.059   9.359 -0.3125  0.2294  0.1078
 1079loPI   C1B15913   3.663   5.015   7.539  0.0155  0.0348  0.1248
 1079loPI   C2B15914   3.574   4.900   8.035  0.1942 -0.0749  0.0578
 1079loPI   C3B15915   3.545   4.871   8.470 -0.0650 -0.2206  0.0168
 1079loPI   C4B15916   3.421   4.987   8.875  0.1641  0.2131  0.2248
 1080POPI    C115917  16.855   1.428   6.654 -0.0470  0.0552 -0.1155
 1080POPI    C215918  16.995   1.798   6.597  0.2233 -0.0331 -0.0369
 1080POPI    C315919  16.969   1.544   6.289  0.0575  0.0432 -0.0868
 1080POPI   PO415920  16.719   1.380   6.849  0.2434  0.2434  0.0199
 1080POPI   GL115921  16.608   1.120   7.127 -0.4148  0.1190  0.0921
 1080POPI   GL215922  16.885   1.028   7.216 -0.1658  0.0858 -0.1751
 1080POPI   C1A15923  16.769   1.237   7.628 -0.1213  0.2236 -0.0358
 1080POPI   D2A15924  16.825   1.209   8.137  0.1029  0.1706  0.0145
 1080POPI   C3A15925  16.904   1.364   8.511  0.0125  0.1860 -0.0424
 1080POPI   C4A15926  17.041   1.562   8.910  0.0019 -0.0779 -0.1437
 1080POPI   C1B15927  17.044   0.832   7.611  0.0681 -0.1203 -0.0004
 1080POPI   C2B15928  17.088   0.705   8.019 -0.1550 -0.1411  0.2371
 1080POPI   C3B15929  17.190   0.895   8.433 -0.1980 -0.2223  0.0924
 1080POPI   C4B15930  17.292   0.921   8.959  0.4992  0.0695  0.0125
 1081POPI    C115931   5.104  14.908   6.201  0.1205 -0.0652  0.0927
 1081POPI    C215932   5.114  14.517   6.115  0.2353 -0.0746  0.1467
 1081POPI    C315933   5.157  14.787   5.824 -0.0897 -0.0980  0.0722
 1081POPI   PO415934   5.073  14.892   6.465  0.3584 -0.1831  0.1586
 1081POPI   GL115935   5.250  14.878   6.810 -0.3253  0.1664  0.2222
 1081POPI   GL215936   5.181  15.131   6.859 -0.2148  0.0719  0.2394
 1081POPI   C1A15937   5.489  14.579   7.098 -0.2704 -0.0185  0.1363
 1081POPI   D2A15938   5.473  14.620   7.529  0.2828  0.1743 -0.1116
 1081POPI   C3A15939   5.610  14.595   7.988 -0.0551  0.3412  0.2174
 1081POPI   C4A15940   5.493  14.554   8.456  0.0819  0.1167 -0.0444
 1081POPI   C1B15941   5.235  15.005   7.306  0.1395 -0.1495 -0.2635
 1081POPI   C2B15942   5.246  15.036   7.796  0.1874 -0.0916 -0.2956
 1081POPI   C3B15943   5.263  14.921   8.202 -0.0261  0.0290 -0.2768
 1081POPI   C4B15944   5.142  14.959   8.658 -0.0513  0.1716 -0.1381
 1082POPI    C115945   4.971   1.507   6.169 -0.0072  0.1073 -0.0166
 1082POPI    C215946   5.261   1.511   5.893  0.1605 -0.1420  0.1513
 1082POPI    C315947   4.979   1.796   5.892  0.3382  0.0372 -0.0839
 1082POPI   PO415948   5.091   1.527   6.391  0.1608  0.1192  0.0879
 1082POPI   GL115949   5.224   1.591   6.804 -0.1241  0.0424  0.2558
 1082POPI   GL215950   4.866   1.633   6.872 -0.1532 -0.3403 -0.2906
 1082POPI   C1A15951   5.469   1.650   7.064  0.1217  0.0783 -0.0651
 1082POPI   D2A15952   5.442   1.646   7.470 -0.2733  0.1799  0.2666
 1082POPI   C3A15953   5.526   1.688   7.959  0.1757  0.1780  0.1327
 1082POPI   C4A15954   5.466   1.625   8.382  0.2460  0.0530  0.1138
 1082POPI   C1B15955   5.002   1.546   7.217  0.0992  0.0508 -0.0438
 1082POPI   C2B15956   4.901   1.621   7.640  0.1122 -0.3081  0.0919
 1082POPI   C3B15957   5.050   1.603   8.009 -0.1499  0.2533  0.0319
 1082POPI   C4B15958   4.974   1.630   8.483 -0.0367  0.4452  0.0869
 1083POPI    C115959   5.016  12.629   6.574  0.0802  0.0175  0.0039
 1083POPI    C215960   5.078  13.022   6.534 -0.1000  0.0588  0.1169
 1083POPI    C315961   4.760  12.852   6.362 -0.0162 -0.0402  0.0589
 1083POPI   PO415962   5.220  12.507   6.545 -0.1019 -0.2018  0.1557
 1083POPI   GL115963   5.371  12.278   6.814  0.2668 -0.1498  0.1593
 1083POPI   GL215964   5.045  12.262   7.003  0.0408  0.3349 -0.1905
 1083POPI   C1A15965   5.667  12.313   7.161  0.0603 -0.3198 -0.0356
 1083POPI   D2A15966   6.087  12.420   7.408  0.1160  0.0178  0.1939
 1083POPI   C3A15967   6.074  12.498   7.816  0.1707 -0.0022 -0.1420
 1083POPI   C4A15968   6.215  12.463   8.307 -0.0649 -0.0294  0.1302
 1083POPI   C1B15969   4.876  12.118   7.261 -0.2505  0.1058 -0.2675
 1083POPI   C2B15970   4.974  12.207   7.730 -0.1374 -0.2399  0.2095
 1083POPI   C3B15971   5.119  12.238   8.117  0.0262  0.0522 -0.1444
 1083POPI   C4B15972   5.176  12.439   8.552 -0.0153  0.0153  0.1026
 1084POPI    C115973   0.134  16.368   6.288 -0.1962 -0.0178 -0.0907
 1084POPI    C215974   0.102  16.543   5.929 -0.1789  0.3159  0.0666
 1084POPI    C315975   0.440  16.579   6.140 -0.1362 -0.0004  0.0572
 1084POPI   PO415976  -0.037  16.365   6.427  0.0308 -0.0212 -0.1574
 1084POPI   GL115977   0.047  16.379   6.829 -0.0115 -0.1413 -0.0721
 1084POPI   GL215978  -0.002  16.606   7.036 -0.1682 -0.1645 -0.0979
 1084POPI   C1A15979   0.241  16.250   7.219 -0.0305 -0.0809 -0.0038
 1084POPI   D2A15980   0.358  16.157   7.670 -0.0631 -0.1059  0.2781
 1084POPI   C3A15981   0.280  16.130   8.133  0.0138  0.2739 -0.0864
 1084POPI   C4A15982   0.329  16.139   8.511 -0.1598  0.1342  0.0364
 1084POPI   C1B15983   0.003  16.611   7.490  0.3176  0.0604  0.1962
 1084POPI   C2B15984   0.017  16.545   7.932 -0.1273 -0.0146  0.0548
 1084POPI   C3B15985  -0.042  16.507   8.369 -0.1806  0.0227  0.1634
 1084POPI   C4B15986   0.003  16.517   8.816 -0.1982  0.1205 -0.3142
 1085POPI    C115987   2.662   6.486   6.066 -0.1420  0.0676  0.0325
 1085POPI    C215988   2.968   6.743   6.064  0.0869 -0.1989  0.1304
 1085POPI    C315989   2.629   6.834   5.873  0.1524  0.1862  0.1898
 1085POPI   PO415990   2.648   6.394   6.331 -0.2608 -0.0290  0.1477
 1085POPI   GL115991   2.952   6.374   6.710 -0.0143 -0.0350 -0.2329
 1085POPI   GL215992   3.138   6.099   6.760 -0.0524 -0.0117  0.2416
 1085POPI   C1A15993   2.786   6.352   7.164 -0.0130  0.2272  0.0297
 1085POPI   D2A15994   2.765   6.305   7.597 -0.2158 -0.0285  0.0167
 1085POPI   C3A15995   2.704   6.287   8.010 -0.2552 -0.2894  0.3078
 1085POPI   C4A15996   2.708   6.089   8.376 -0.1164 -0.4856 -0.1008
 1085POPI   C1B15997   3.258   6.250   7.061  0.2282  0.3234 -0.2568
 1085POPI   C2B15998   3.288   6.265   7.516 -0.0126 -0.0708  0.2221
 1085POPI   C3B15999   3.207   6.215   7.925  0.1806  0.1950  0.0074
 1085POPI   C4B16000   3.158   6.135   8.488 -0.0078  0.2298  0.0267
 1086POPI    C116001   4.347   0.962   6.456 -0.0413  0.2805 -0.0078
 1086POPI    C216002   4.215   0.856   6.093 -0.1588  0.2973  0.0296
 1086POPI    C316003   4.588   0.992   6.139  0.0075 -0.1286 -0.0152
 1086POPI   PO416004   4.232   0.868   6.599 -0.3330  0.3050 -0.0538
 1086POPI   GL116005   3.977   0.632   6.839 -0.2702  0.0235 -0.0042
 1086POPI   GL216006   3.922   0.973   6.945  0.4004 -0.0183  0.4738
 1086POPI   C1A16007   3.812   0.459   7.118 -0.0044 -0.2108  0.2186
 1086POPI   D2A16008   3.753   0.405   7.534  0.0713 -0.2473  0.0918
 1086POPI   C3A16009   3.740   0.402   7.980  0.0541  0.0704  0.0479
 1086POPI   C4A16010   3.671   0.335   8.373  0.1199  0.3611 -0.3300
 1086POPI   C1B16011   3.920   0.908   7.342  0.2458  0.2048 -0.1047
 1086POPI   C2B16012   3.848   0.913   7.754  0.3407  0.0420 -0.0822
 1086POPI   C3B16013   3.959   0.822   8.006 -0.2403 -0.1230  0.2229
 1086POPI   C4B16014   3.913   0.789   8.486  0.0980 -0.0696  0.0720
 1087POPI    C116015   3.134   8.316   6.270 -0.0448  0.2305 -0.0192
 1087POPI    C216016   3.107   8.495   5.914  0.2409  0.2466 -0.0354
 1087POPI    C316017   3.466   8.407   6.066  0.1138  0.0278  0.1437
 1087POPI   PO416018   2.913   8.593   6.393  0.0478  0.2208 -0.0750
 1087POPI   GL116019   2.816   8.720   6.784  0.0715  0.1517 -0.2590
 1087POPI   GL216020   2.994   8.946   6.828  0.0042 -0.1157 -0.0827
 1087POPI   C1A16021   2.671   8.497   7.112 -0.0105  0.1779  0.1319
 1087POPI   D2A16022   2.818   8.471   7.554  0.0547  0.0019 -0.1721
 1087POPI   C3A16023   2.919   8.457   7.910  0.2004 -0.1479  0.0156
 1087POPI   C4A16024   2.898   8.443   8.358  0.0078  0.2309  0.0760
 1087POPI   C1B16025   2.997   8.932   7.231  0.1206 -0.0738 -0.0034
 1087POPI   C2B16026   3.095   8.939   7.700 -0.0987 -0.0668  0.3951
 1087POPI   C3B16027   3.210   8.963   8.055  0.1267  0.2605  0.2625
 1087POPI   C4B16028   3.021   9.050   8.490 -0.0169 -0.0718  0.2030
 1088POPI    C116029   1.221   1.902   6.577 -0.2114 -0.0716 -0.1209
 1088POPI    C216030   1.342   2.105   6.254 -0.1713 -0.0549 -0.0955
 1088POPI    C316031   1.498   1.746   6.334  0.0401  0.0715  0.0696
 1088POPI   PO416032   1.141   2.126   6.740 -0.0886 -0.3783 -0.1341
 1088POPI   GL116033   0.989   1.943   7.104  0.0416  0.1090 -0.1374
 1088POPI   GL216034   0.720   2.085   7.023  0.1566 -0.2801 -0.2568
 1088POPI   C1A16035   0.906   1.851   7.566  0.2921  0.0874 -0.0977
 1088POPI   D2A16036   0.875   1.800   7.979  0.3246  0.0868  0.2717
 1088POPI   C3A16037   1.060   1.890   8.281  0.0698 -0.0210 -0.0359
 1088POPI   C4A16038   1.157   2.001   8.742  0.0732  0.0532  0.2819
 1088POPI   C1B16039   0.615   2.253   7.472  0.1414 -0.1728 -0.1479
 1088POPI   C2B16040   0.744   2.303   7.885  0.1507 -0.0750 -0.2894
 1088POPI   C3B16041   0.672   2.215   8.364  0.0523  0.4099 -0.1377
 1088POPI   C4B16042   0.873   2.405   8.656  0.0383 -0.1253 -0.2648
 1089POPI    C116043  17.145  12.754   6.173  0.0591 -0.1650 -0.2035
 1089POPI    C216044  17.204  13.075   5.942 -0.0997  0.0683  0.0740
 1089POPI    C316045  17.053  12.741   5.784  0.0730  0.1250 -0.2191
 1089POPI   PO416046  17.023  12.955   6.386 -0.2601  0.1009  0.1158
 1089POPI   GL116047  17.066  12.922   6.761  0.1474 -0.1979 -0.0271
 1089POPI   GL216048  17.059  12.578   6.711  0.0168  0.2220 -0.0246
 1089POPI   C1A16049  17.067  12.968   7.169  0.2605 -0.0570  0.0946
 1089POPI   D2A16050  17.118  12.761   7.543 -0.0183  0.1207 -0.0158
 1089POPI   C3A16051  17.084  12.883   7.937 -0.0306 -0.1504  0.2962
 1089POPI   C4A16052  17.069  12.815   8.347  0.0295 -0.1247  0.3143
 1089POPI   C1B16053  16.956  12.467   7.102  0.1336  0.1195  0.0012
 1089POPI   C2B16054  16.914  12.338   7.536  0.3555 -0.1353  0.1984
 1089POPI   C3B16055  16.831  12.331   7.980 -0.5092 -0.0071  0.0738
 1089POPI   C4B16056  16.972  12.329   8.422  0.0534 -0.1909  0.1380
 1090POPI    C116057   4.503   6.023   6.118 -0.0461  0.0684 -0.0866
 1090POPI    C216058   4.319   5.671   6.068 -0.1490  0.1354 -0.1824
 1090POPI    C316059   4.692   5.722   5.934 -0.0471 -0.0109  0.0406
 1090POPI   PO416060   4.474   6.080   6.363 -0.2019  0.1194  0.0927
 1090POPI   GL116061   4.235   6.216   6.705 -0.1665  0.0919  0.1425
 1090POPI   GL216062   4.163   6.442   6.608  0.0254  0.0122  0.0757
 1090POPI   C1A16063   4.171   6.204   7.063  0.0420 -0.1065 -0.1603
 1090POPI   D2A16064   4.311   6.124   7.484  0.1514  0.1285  0.1425
 1090POPI   C3A16065   4.213   6.214   7.912 -0.3080  0.0053  0.0173
 1090POPI   C4A16066   4.286   6.224   8.400 -0.2380  0.2529  0.3318
 1090POPI   C1B16067   4.469   6.597   6.923 -0.0462  0.2326 -0.0298
 1090POPI   C2B16068   4.557   6.643   7.342  0.2146  0.0515 -0.0404
 1090POPI   C3B16069   4.518   6.699   7.786  0.0636 -0.1644  0.1616
 1090POPI   C4B16070   4.444   6.689   8.171 -0.0525  0.3282 -0.1271
 1091POPI    C116071   9.872  12.822   5.731 -0.0585  0.1353  0.0049
 1091POPI    C216072   9.515  12.814   5.911 -0.1374  0.0372 -0.1535
 1091POPI    C316073   9.540  12.764   5.515  0.0559  0.0014 -0.1376
 1091POPI   PO416074  10.034  12.677   5.931  0.0313  0.2450  0.1059
 1091POPI   GL116075   9.905  12.695   6.342 -0.2745 -0.1920 -0.0949
 1091POPI   GL216076  10.162  12.427   6.383 -0.1790  0.0400 -0.0912
 1091POPI   C1A16077  10.018  12.841   6.740  0.1094  0.2516  0.0054
 1091POPI   D2A16078  10.038  12.810   7.143 -0.2238 -0.0937  0.0029
 1091POPI   C3A16079  10.191  12.881   7.513  0.1099 -0.0785 -0.1349
 1091POPI   C4A16080  10.252  12.931   7.953  0.1858  0.2046  0.2644
 1091POPI   C1B16081  10.346  12.461   6.829  0.1130 -0.1505  0.2010
 1091POPI   C2B16082  10.406  12.419   7.198 -0.1167 -0.0676  0.0477
 1091POPI   C3B16083  10.540  12.501   7.636 -0.3646 -0.3605  0.2759
 1091POPI   C4B16084  10.575  12.484   8.003 -0.2866  0.1076 -0.0232
 1092POPI    C116085  12.497  15.038   5.948  0.1326 -0.1906  0.0875
 1092POPI    C216086  12.114  14.998   5.837  0.1235  0.1298 -0.0072
 1092POPI    C316087  12.404  14.830   5.619  0.0497  0.0448 -0.0405
 1092POPI   PO416088  12.473  14.924   6.210  0.3382 -0.2396  0.1050
 1092POPI   GL116089  12.324  14.760   6.500 -0.0723 -0.2569 -0.2133
 1092POPI   GL216090  12.047  14.911   6.510 -0.4161 -0.0301  0.0840
 1092POPI   C1A16091  12.279  14.543   6.851 -0.0934 -0.3554  0.1808
 1092POPI   D2A16092  12.333  14.400   7.165  0.0882  0.0480  0.0679
 1092POPI   C3A16093  12.368  14.533   7.522 -0.2774 -0.0744  0.0004
 1092POPI   C4A16094  12.354  14.504   7.949 -0.0715 -0.4128  0.1510
 1092POPI   C1B16095  12.002  14.938   6.854 -0.1461 -0.3153  0.2592
 1092POPI   C2B16096  12.031  14.889   7.254  0.0381  0.0509 -0.5187
 1092POPI   C3B16097  12.078  14.930   7.686  0.1786 -0.0632 -0.0278
 1092POPI   C4B16098  12.050  14.872   8.153 -0.1903  0.0861  0.1205
 1093POPI    C116099   2.984   5.146   6.637 -0.1034  0.0284 -0.0920
 1093POPI    C216100   3.139   4.787   6.722 -0.2613 -0.1007 -0.3374
 1093POPI    C316101   3.193   4.947   6.360  0.1021  0.2817 -0.1225
 1093POPI   PO416102   2.793   5.146   6.793 -0.1843  0.1991  0.1486
 1093POPI   GL116103   2.814   4.824   7.134 -0.0776  0.0825  0.1252
 1093POPI   GL216104   2.861   4.495   7.040  0.0350 -0.1352  0.2023
 1093POPI   C1A16105   2.725   4.900   7.543 -0.0933  0.1417 -0.0667
 1093POPI   D2A16106   2.705   4.927   7.988  0.0210 -0.0232 -0.2118
 1093POPI   C3A16107   2.572   4.860   8.391  0.0290  0.1044 -0.0259
 1093POPI   C4A16108   2.457   4.746   8.835  0.1147  0.2698  0.1152
 1093POPI   C1B16109   2.789   4.388   7.407 -0.3156  0.1874  0.0695
 1093POPI   C2B16110   2.772   4.438   7.827 -0.4119 -0.0213 -0.0999
 1093POPI   C3B16111   2.801   4.388   8.380 -0.0153  0.0334  0.2144
 1093POPI   C4B16112   2.767   4.301   8.798 -0.0514  0.2076  0.4170
 1094POPI    C116113   1.902   3.858   6.291 -0.0880 -0.1666  0.1699
 1094POPI    C216114   1.580   3.647   6.181  0.0153 -0.1694 -0.1373
 1094POPI    C316115   1.892   3.680   5.933 -0.0498  0.4503 -0.1512
 1094POPI   PO416116   1.829   3.905   6.552 -0.2881  0.0005  0.0212
 1094POPI   GL116117   1.894   4.086   7.020 -0.1914 -0.1049 -0.0151
 1094POPI   GL216118   1.817   3.796   7.012  0.2146 -0.0712  0.3153
 1094POPI   C1A16119   1.973   4.195   7.502  0.2203  0.2074 -0.0533
 1094POPI   D2A16120   1.812   4.214   7.924  0.0713  0.1080  0.1438
 1094POPI   C3A16121   1.470   4.406   7.969 -0.1468 -0.1262  0.1097
 1094POPI   C4A16122   1.262   4.290   8.413 -0.1556 -0.0142  0.0853
 1094POPI   C1B16123   1.964   3.703   7.415  0.3913 -0.0621  0.0936
 1094POPI   C2B16124   1.943   3.677   7.830  0.1147 -0.1087  0.1701
 1094POPI   C3B16125   2.012   3.841   8.242  0.2413 -0.0542 -0.2247
 1094POPI   C4B16126   1.981   3.823   8.705 -0.4877 -0.0962 -0.0256
 1095POPI    C116127  16.879   5.768   6.358 -0.0972  0.1034 -0.0603
 1095POPI    C216128  16.534   5.908   6.504 -0.0121  0.2181  0.0326
 1095POPI    C316129  16.636   5.983   6.125 -0.0778  0.2047  0.0123
 1095POPI   PO416130  16.964   5.627   6.613 -0.2497  0.0988 -0.0301
 1095POPI   GL116131  16.846   5.643   6.995 -0.0741  0.1520  0.3359
 1095POPI   GL216132  16.692   5.988   6.967 -0.2464  0.2794 -0.0844
 1095POPI   C1A16133  16.854   5.383   7.322  0.1026  0.0233 -0.0235
 1095POPI   D2A16134  16.858   5.367   7.688 -0.0118 -0.1878  0.0648
 1095POPI   C3A16135  16.856   5.584   8.049 -0.1771 -0.2860  0.0331
 1095POPI   C4A16136  17.036   5.635   8.361 -0.2191 -0.1542 -0.2523
 1095POPI   C1B16137  16.580   6.043   7.447  0.1391 -0.1889 -0.0340
 1095POPI   C2B16138  16.546   6.073   7.914 -0.1497 -0.1718  0.2441
 1095POPI   C3B16139  16.704   6.115   8.245 -0.1633 -0.0597 -0.3722
 1095POPI   C4B16140  16.763   5.964   8.593  0.0287 -0.0906 -0.0366
 1096POPI    C116141   5.503  10.570   5.825 -0.0902  0.0005  0.0140
 1096POPI    C216142   5.832  10.797   5.817 -0.0576 -0.0480 -0.0277
 1096POPI    C316143   5.478  10.954   5.716 -0.0522  0.0118  0.0452
 1096POPI   PO416144   5.534  10.476   6.091  0.0981  0.3310  0.0990
 1096POPI   GL116145   5.203  10.395   6.425  0.2079 -0.1195 -0.1096
 1096POPI   GL216146   5.265  10.695   6.493 -0.1541  0.0766  0.1385
 1096POPI   C1A16147   4.995  10.358   6.766 -0.3135 -0.2973 -0.0068
 1096POPI   D2A16148   4.881  10.264   7.190 -0.0532  0.0528  0.0059
 1096POPI   C3A16149   4.904  10.208   7.544  0.2742 -0.2129  0.1776
 1096POPI   C4A16150   5.026  10.319   7.966 -0.3797 -0.0469 -0.1923
 1096POPI   C1B16151   5.218  10.787   7.011  0.0868 -0.0307  0.2789
 1096POPI   C2B16152   5.342  10.940   7.416  0.0558  0.0442  0.2437
 1096POPI   C3B16153   5.286  10.834   7.778 -0.1848 -0.1244  0.2360
 1096POPI   C4B16154   5.370  10.688   8.179  0.2178  0.1140 -0.2962
 1097POPI    C116155  13.512  15.007   6.009  0.2590  0.0008  0.2817
 1097POPI    C216156  13.501  14.736   5.715  0.0623  0.0756  0.2185
 1097POPI    C316157  13.814  14.982   5.748  0.0173  0.1681 -0.0219
 1097POPI   PO416158  13.422  14.981   6.250 -0.1819 -0.0972 -0.3558
 1097POPI   GL116159  13.327  14.691   6.582 -0.0699  0.1970  0.0817
 1097POPI   GL216160  13.217  14.983   6.735 -0.0454  0.0716  0.2242
 1097POPI   C1A16161  13.480  14.664   7.042 -0.1226 -0.2303 -0.2094
 1097POPI   D2A16162  13.562  14.766   7.403  0.1448  0.3596 -0.0588
 1097POPI   C3A16163  13.425  14.612   7.748  0.0065  0.0810 -0.1010
 1097POPI   C4A16164  13.362  14.684   8.173  0.0940  0.1938  0.0507
 1097POPI   C1B16165  13.195  15.037   7.211  0.0500  0.0160 -0.0058
 1097POPI   C2B16166  13.090  15.048   7.586  0.3070 -0.1632  0.4213
 1097POPI   C3B16167  13.097  15.068   7.933  0.0283  0.2016 -0.2487
 1097POPI   C4B16168  13.129  15.037   8.438  0.2953  0.0241 -0.2832
 1098POPI    C116169   1.322  14.479   6.187 -0.1373 -0.0531 -0.1099
 1098POPI    C216170   0.923  14.503   6.193 -0.1529 -0.3137  0.1076
 1098POPI    C316171   1.109  14.348   5.874 -0.2254 -0.2068  0.0126
 1098POPI   PO416172   1.391  14.472   6.401 -0.0984 -0.1973 -0.4102
 1098POPI   GL116173   1.529  14.496   6.854 -0.0656  0.1254 -0.0578
 1098POPI   GL216174   1.662  14.841   6.773  0.1758 -0.2885 -0.1521
 1098POPI   C1A16175   1.560  14.614   7.275  0.2083 -0.0585  0.2308
 1098POPI   D2A16176   1.591  14.447   7.674  0.1757 -0.1300  0.0092
 1098POPI   C3A16177   1.521  14.419   8.103  0.1165 -0.0128  0.1556
 1098POPI   C4A16178   1.641  14.513   8.535  0.2126 -0.1960 -0.0934
 1098POPI   C1B16179   1.666  15.084   7.186  0.1083  0.1698  0.3992
 1098POPI   C2B16180   1.753  14.954   7.700  0.0733 -0.2147  0.0584
 1098POPI   C3B16181   1.759  14.884   8.143  0.2514  0.1931  0.0678
 1098POPI   C4B16182   1.828  15.010   8.611 -0.0161 -0.0260  0.3118
 1099POPI    C116183   0.486   2.439   6.640  0.0392 -0.1234  0.1743
 1099POPI    C216184   0.640   2.772   6.482  0.1118 -0.0925  0.3092
 1099POPI    C316185   0.271   2.655   6.380  0.2005 -0.1361  0.0283
 1099POPI   PO416186   0.525   2.528   6.910  0.1809  0.1459 -0.1589
 1099POPI   GL116187   0.765   2.759   7.260 -0.0534  0.0042 -0.0023
 1099POPI   GL216188   1.079   2.459   7.269 -0.0957 -0.0116  0.1105
 1099POPI   C1A16189   0.817   2.826   7.737  0.2324 -0.0528  0.2269
 1099POPI   D2A16190   0.774   2.685   8.183  0.0075  0.0912 -0.1278
 1099POPI   C3A16191   1.031   2.922   8.489  0.1222 -0.2344  0.0043
 1099POPI   C4A16192   1.230   3.336   8.530  0.2871 -0.0887  0.2170
 1099POPI   C1B16193   1.188   2.466   7.735  0.0191 -0.2508 -0.1126
 1099POPI   C2B16194   1.205   2.438   8.107  0.0857  0.2788  0.2392
 1099POPI   C3B16195   1.369   2.483   8.581  0.1604 -0.0579 -0.0689
 1099POPI   C4B16196   1.310   2.648   8.927  0.0952 -0.2650  0.1340
 1100POPI    C116197  12.461   2.312   6.095  0.0492 -0.1134 -0.2340
 1100POPI    C216198  12.481   2.699   5.997  0.2703 -0.0246  0.1419
 1100POPI    C316199  12.756   2.443   5.860  0.1016 -0.0594 -0.1388
 1100POPI   PO416200  12.446   2.284   6.304 -0.2770 -0.0087  0.2086
 1100POPI   GL116201  12.499   2.256   6.729 -0.1704 -0.0122 -0.2410
 1100POPI   GL216202  12.777   2.418   6.828  0.0423 -0.2116 -0.1031
 1100POPI   C1A16203  12.421   2.132   7.164  0.2458  0.0731  0.1497
 1100POPI   D2A16204  12.432   2.094   7.631  0.0603 -0.1013 -0.0613
 1100POPI   C3A16205  12.158   2.071   7.979 -0.1083  0.2423  0.1571
 1100POPI   C4A16206  12.218   2.187   8.364  0.0073 -0.2260  0.2694
 1100POPI   C1B16207  12.793   2.456   7.292 -0.3212  0.2664  0.1461
 1100POPI   C2B16208  12.904   2.411   7.675 -0.0882  0.1808 -0.2272
 1100POPI   C3B16209  12.702   2.298   8.116 -0.1132 -0.1517 -0.3423
 1100POPI   C4B16210  12.769   2.104   8.555  0.0164 -0.3162  0.1607
 1101POPI    C116211  13.457   8.989   5.912 -0.1107 -0.0699  0.0115
 1101POPI    C216212  13.694   8.677   5.829  0.1222  0.1112 -0.0136
 1101POPI    C316213  13.296   8.638   5.807  0.1442 -0.2286  0.1414
 1101POPI   PO416214  13.436   8.996   6.189  0.1694 -0.0000 -0.0512
 1101POPI   GL116215  13.212   8.729   6.468 -0.1268 -0.1599 -0.0408
 1101POPI   GL216216  13.495   8.692   6.557  0.1688  0.2262  0.0538
 1101POPI   C1A16217  13.158   8.767   6.939 -0.0628 -0.0910 -0.0570
 1101POPI   D2A16218  13.165   8.783   7.342 -0.0439  0.0232 -0.1677
 1101POPI   C3A16219  13.311   8.744   7.675  0.1705  0.0788 -0.2368
 1101POPI   C4A16220  13.473   8.770   8.016 -0.2631  0.0973 -0.0132
 1101POPI   C1B16221  13.603   8.521   6.989 -0.1776 -0.2015  0.1463
 1101POPI   C2B16222  13.690   8.503   7.418  0.0253  0.1196 -0.0001
 1101POPI   C3B16223  13.685   8.378   7.862  0.1194  0.0550 -0.0915
 1101POPI   C4B16224  13.614   8.367   8.298  0.1624  0.2032 -0.1239
 1102POPI    C116225   8.117   4.733   5.929 -0.0291 -0.1458 -0.1314
 1102POPI    C216226   8.317   5.013   5.725 -0.0665 -0.0074  0.0191
 1102POPI    C316227   8.095   4.743   5.530 -0.3136  0.2835 -0.1121
 1102POPI   PO416228   8.038   4.878   6.184  0.1433  0.0921 -0.0975
 1102POPI   GL116229   7.827   5.002   6.684 -0.1483  0.2514 -0.0165
 1102POPI   GL216230   7.945   5.261   6.595 -0.1073 -0.0450 -0.1353
 1102POPI   C1A16231   7.792   4.783   7.060 -0.0626 -0.0129 -0.1602
 1102POPI   D2A16232   7.641   4.855   7.484 -0.4239  0.0991 -0.5823
 1102POPI   C3A16233   7.732   4.915   7.811  0.0666  0.0641 -0.3133
 1102POPI   C4A16234   7.634   4.936   8.221  0.3196  0.0910  0.2624
 1102POPI   C1B16235   8.008   5.272   7.036  0.1717  0.0555  0.0768
 1102POPI   C2B16236   7.901   5.347   7.406 -0.1135 -0.0461 -0.1341
 1102POPI   C3B16237   7.976   5.348   7.697  0.4812 -0.1224  0.0483
 1102POPI   C4B16238   7.904   5.388   8.057  0.0222  0.0106  0.1449
 1103POPI    C116239   2.017   2.444   6.545 -0.2189  0.1060 -0.2495
 1103POPI    C216240   2.391   2.578   6.594 -0.1709 -0.0748 -0.1119
 1103POPI    C316241   2.290   2.384   6.259 -0.2339  0.2757 -0.3008
 1103POPI   PO416242   1.925   2.424   6.782  0.0277 -0.0836  0.1416
 1103POPI   GL116243   2.325   2.472   7.063  0.1844 -0.2544  0.3225
 1103POPI   GL216244   2.650   2.610   7.048  0.2890  0.0158 -0.0244
 1103POPI   C1A16245   2.245   2.545   7.528 -0.4035  0.3285  0.0941
 1103POPI   D2A16246   2.270   2.507   7.916  0.3049 -0.0641  0.0367
 1103POPI   C3A16247   2.316   2.599   8.288  0.1683  0.1999  0.2684
 1103POPI   C4A16248   2.212   2.564   8.766 -0.2963  0.3245  0.1077
 1103POPI   C1B16249   2.772   2.505   7.410 -0.2856 -0.0810 -0.2104
 1103POPI   C2B16250   2.790   2.497   7.838 -0.1552  0.2401 -0.2469
 1103POPI   C3B16251   2.808   2.579   8.302  0.2979  0.1354  0.0376
 1103POPI   C4B16252   2.855   2.575   8.754 -0.0023  0.1338  0.1662
 1104POPI    C116253   0.167   8.451   6.185 -0.1919 -0.0095  0.2114
 1104POPI    C216254   0.013   8.758   5.981 -0.1700 -0.0353  0.1557
 1104POPI    C316255   0.201   8.464   5.786  0.0504  0.0529  0.2322
 1104POPI   PO416256  -0.043   8.397   6.312 -0.0949 -0.0419 -0.0395
 1104POPI   GL116257  -0.239   8.447   6.704  0.1252 -0.1282  0.2112
 1104POPI   GL216258  -0.280   8.793   6.698 -0.2070 -0.1282  0.3853
 1104POPI   C1A16259  -0.284   8.606   7.170  0.0644  0.0240  0.0408
 1104POPI   D2A16260  -0.166   8.636   7.618 -0.0665  0.0137 -0.0449
 1104POPI   C3A16261   0.029   8.747   8.030 -0.0046  0.0111 -0.1036
 1104POPI   C4A16262   0.173   8.740   8.399  0.1028 -0.1527 -0.1415
 1104POPI   C1B16263  -0.164   9.149   6.822  0.1079 -0.2927  0.2503
 1104POPI   C2B16264  -0.061   9.082   7.172  0.2263  0.3002  0.3610
 1104POPI   C3B16265  -0.108   9.180   7.573  0.1591  0.1512  0.2109
 1104POPI   C4B16266  -0.234   9.213   7.984 -0.0271 -0.1404  0.0538
 1105POPI    C116267  12.729   5.067   6.166 -0.1116  0.1555  0.1248
 1105POPI    C216268  12.993   5.207   5.901 -0.2530  0.0297 -0.0849
 1105POPI    C316269  12.717   4.941   5.787 -0.2890 -0.0575  0.1993
 1105POPI   PO416270  12.712   5.314   6.386  0.0131 -0.0562 -0.0868
 1105POPI   GL116271  12.635   5.174   6.774  0.1258  0.2208  0.0307
 1105POPI   GL216272  12.856   5.422   6.957 -0.0811 -0.0815  0.1434
 1105POPI   C1A16273  12.621   5.055   7.207  0.7151 -0.1914 -0.0423
 1105POPI   D2A16274  12.531   5.011   7.541  0.0148  0.0468 -0.1581
 1105POPI   C3A16275  12.467   4.947   7.929 -0.0047  0.2133  0.0321
 1105POPI   C4A16276  12.408   4.893   8.372 -0.2306 -0.1973 -0.1624
 1105POPI   C1B16277  12.759   5.473   7.425  0.1262  0.2955  0.1778
 1105POPI   C2B16278  12.751   5.555   7.847  0.2091 -0.2305 -0.2479
 1105POPI   C3B16279  12.626   5.571   8.286 -0.0921  0.0585 -0.1825
 1105POPI   C4B16280  12.526   5.341   8.603 -0.0863 -0.3708 -0.1604
 1106POPI    C116281  16.707  15.342   6.262  0.1114  0.1491  0.2819
 1106POPI    C216282  17.032  15.505   6.096  0.1348  0.0045  0.1836
 1106POPI    C316283  16.669  15.653   6.014  0.1818  0.2321  0.3744
 1106POPI   PO416284  16.763  15.106   6.250 -0.4087 -0.0778 -0.2252
 1106POPI   GL116285  16.834  14.927   6.580 -0.1893  0.1107  0.0253
 1106POPI   GL216286  17.132  14.980   6.732 -0.3454  0.0421 -0.0860
 1106POPI   C1A16287  16.636  15.071   6.869 -0.1090 -0.0313 -0.1433
 1106POPI   D2A16288  16.551  15.175   7.314 -0.0369  0.1869 -0.0197
 1106POPI   C3A16289  16.489  15.069   7.736  0.0565 -0.3293 -0.0058
 1106POPI   C4A16290  16.576  14.992   8.212 -0.2669 -0.2051  0.3286
 1106POPI   C1B16291  17.311  14.909   7.097  0.0684 -0.1812 -0.0062
 1106POPI   C2B16292  17.321  14.894   7.547  0.2511  0.1470 -0.1523
 1106POPI   C3B16293  17.296  14.747   7.932  0.0826 -0.0885 -0.0976
 1106POPI   C4B16294  17.350  14.633   8.275  0.3118 -0.1102 -0.3172
 1107POPI    C116295  15.220   4.094   6.400  0.3420 -0.0060 -0.1517
 1107POPI    C216296  14.903   4.222   6.192  0.2125  0.0149  0.0563
 1107POPI    C316297  15.207   4.044   6.003  0.0499 -0.0611 -0.1375
 1107POPI   PO416298  15.043   4.102   6.661 -0.0342  0.1606 -0.1302
 1107POPI   GL116299  14.795   3.934   6.973  0.2610  0.0963 -0.2098
 1107POPI   GL216300  14.533   3.739   7.119  0.0261  0.2446  0.0693
 1107POPI   C1A16301  14.743   4.056   7.386 -0.0180 -0.1436  0.0062
 1107POPI   D2A16302  14.544   4.176   7.658 -0.1176 -0.0082  0.1440
 1107POPI   C3A16303  14.559   4.301   8.065  0.1728 -0.2344  0.2851
 1107POPI   C4A16304  14.535   4.321   8.505 -0.1304  0.2936 -0.0646
 1107POPI   C1B16305  14.317   3.696   7.494 -0.0893  0.0458  0.0281
 1107POPI   C2B16306  14.266   3.703   7.871 -0.1320  0.2052 -0.2681
 1107POPI   C3B16307  14.396   3.762   8.327  0.0212 -0.1130 -0.0471
 1107POPI   C4B16308  14.461   3.574   8.698 -0.0406  0.0568  0.0123
 1108POPI    C116309  14.464  15.349   6.341 -0.1677  0.0917 -0.0794
 1108POPI    C216310  14.507  14.960   6.261  0.0265  0.0687  0.1261
 1108POPI    C316311  14.598  15.232   5.983 -0.0918 -0.0310 -0.0117
 1108POPI   PO416312  14.152  15.388   6.400  0.0961  0.0055  0.0789
 1108POPI   GL116313  14.039  15.385   6.867  0.0862 -0.1474  0.1395
 1108POPI   GL216314  14.097  15.650   6.859 -0.0369 -0.0617 -0.1156
 1108POPI   C1A16315  14.355  15.374   7.196 -0.1887  0.0181 -0.2374
 1108POPI   D2A16316  14.683  15.350   7.450  0.1900  0.0520  0.0825
 1108POPI   C3A16317  14.570  15.276   7.810  0.5514  0.3132 -0.1596
 1108POPI   C4A16318  14.323  15.574   7.740  0.0893  0.2309  0.0982
 1108POPI   C1B16319  13.905  15.653   7.281  0.2610 -0.0122 -0.0825
 1108POPI   C2B16320  13.783  15.550   7.788 -0.0284  0.2783 -0.0221
 1108POPI   C3B16321  13.871  15.581   8.215  0.1116 -0.1125  0.2460
 1108POPI   C4B16322  14.102  15.888   8.516 -0.2495 -0.0813 -0.3938
 1109POPI    C116323   9.570   2.757   5.890  0.0604  0.2772 -0.0341
 1109POPI    C216324   9.958   2.677   5.942 -0.0423 -0.0777  0.2212
 1109POPI    C316325   9.765   2.532   5.623  0.0031 -0.0149  0.1650
 1109POPI   PO416326   9.555   2.973   6.150  0.1941  0.1732  0.2305
 1109POPI   GL116327   9.599   2.968   6.579 -0.0915  0.2511  0.0904
 1109POPI   GL216328   9.374   3.169   6.775  0.1694 -0.0979 -0.0234
 1109POPI   C1A16329   9.354   2.730   6.882 -0.1057  0.0191  0.3369
 1109POPI   D2A16330   9.210   2.726   7.303 -0.3176 -0.0743 -0.0598
 1109POPI   C3A16331   9.154   2.668   7.740 -0.2739 -0.0479  0.3375
 1109POPI   C4A16332   9.164   2.576   8.185  0.1117 -0.0917  0.0920
 1109POPI   C1B16333   9.466   3.146   7.223  0.1917 -0.0679  0.3537
 1109POPI   C2B16334   9.366   3.194   7.678  0.2466 -0.1392 -0.2371
 1109POPI   C3B16335   9.316   3.059   8.007 -0.1898 -0.1889  0.2317
 1109POPI   C4B16336   9.376   3.015   8.376 -0.2248  0.0987  0.3337
 1110POPI    C116337  10.856   4.639   5.845 -0.0427 -0.2028  0.0661
 1110POPI    C216338  11.199   4.454   5.754  0.1146 -0.0141  0.2638
 1110POPI    C316339  10.850   4.295   5.640  0.2704 -0.1556 -0.0277
 1110POPI   PO416340  10.989   4.747   6.126 -0.1193 -0.2469 -0.2411
 1110POPI   GL116341  10.893   4.799   6.560 -0.1077 -0.2892 -0.2201
 1110POPI   GL216342  10.816   5.061   6.717  0.1189 -0.0240 -0.1233
 1110POPI   C1A16343  10.645   4.634   6.851  0.2004 -0.4570 -0.1230
 1110POPI   D2A16344  10.544   4.597   7.256  0.3606  0.0404  0.1919
 1110POPI   C3A16345  10.639   4.486   7.689 -0.1718  0.2854  0.0620
 1110POPI   C4A16346  10.640   4.459   8.119  0.0163 -0.4658  0.0547
 1110POPI   C1B16347  10.821   5.092   7.143  0.2112  0.1217 -0.0863
 1110POPI   C2B16348  10.768   5.055   7.600  0.0917  0.1380  0.0250
 1110POPI   C3B16349  10.873   4.893   7.946 -0.1414  0.0071 -0.1090
 1110POPI   C4B16350  10.809   4.970   8.350  0.0520 -0.2187  0.4045
 1111POPI    C116351  12.567  11.125   6.139  0.2018  0.1796  0.0047
 1111POPI    C216352  12.286  10.986   5.890  0.2083  0.1242  0.0281
 1111POPI    C316353  12.341  11.380   5.930  0.1391  0.1349  0.0178
 1111POPI   PO416354  12.579  10.973   6.355  0.1659 -0.1554 -0.1848
 1111POPI   GL116355  12.371  11.132   6.822 -0.1267  0.0120  0.2458
 1111POPI   GL216356  12.377  10.851   6.783 -0.2591  0.0421  0.0393
 1111POPI   C1A16357  12.437  11.343   7.058 -0.1614  0.1929  0.2035
 1111POPI   D2A16358  12.379  11.333   7.499 -0.1130  0.3666 -0.5337
 1111POPI   C3A16359  12.597  11.373   7.790  0.0679 -0.0242 -0.1071
 1111POPI   C4A16360  12.465  11.410   8.176 -0.1378 -0.1107 -0.0762
 1111POPI   C1B16361  12.391  10.829   7.237 -0.2308  0.1119 -0.0522
 1111POPI   C2B16362  12.401  10.843   7.592 -0.1826 -0.4625  0.0536
 1111POPI   C3B16363  12.289  10.962   7.903  0.3369  0.0975 -0.2492
 1111POPI   C4B16364  12.343  10.973   8.355  0.1571 -0.2319 -0.1746
 1112POPI    C116365  12.939   9.374   5.886 -0.2934  0.1259 -0.1108
 1112POPI    C216366  12.979   9.036   5.675  0.0859  0.1567 -0.0962
 1112POPI    C316367  12.956   9.388   5.487  0.1659  0.1622 -0.0959
 1112POPI   PO416368  13.031   9.335   6.095  0.1466 -0.1513 -0.1501
 1112POPI   GL116369  12.820   9.371   6.491  0.0564 -0.0645  0.0484
 1112POPI   GL216370  13.205   9.266   6.576  0.2639 -0.1830  0.1446
 1112POPI   C1A16371  12.833   9.586   6.911 -0.1242  0.1212 -0.2003
 1112POPI   D2A16372  12.792   9.684   7.365  0.1513 -0.1536 -0.1992
 1112POPI   C3A16373  12.671   9.612   7.739 -0.0834 -0.1856  0.3739
 1112POPI   C4A16374  12.776   9.496   8.202  0.2543  0.2432 -0.1142
 1112POPI   C1B16375  13.146   9.228   7.103  0.0350 -0.1167 -0.0665
 1112POPI   C2B16376  13.126   9.249   7.631 -0.0497  0.0130  0.1360
 1112POPI   C3B16377  13.051   9.120   7.978 -0.1419 -0.2072  0.3165
 1112POPI   C4B16378  13.168   9.226   8.343  0.0670  0.0231  0.0954
 1113POPI    C116379  15.796   7.502   6.225 -0.1235 -0.1209 -0.2550
 1113POPI    C216380  16.103   7.620   5.998 -0.1430 -0.0389 -0.2392
 1113POPI    C316381  15.734   7.609   5.844 -0.1473 -0.0404 -0.2288
 1113POPI   PO416382  15.801   7.628   6.432 -0.0142  0.0902 -0.1029
 1113POPI   GL116383  15.516   7.572   6.748 -0.3349 -0.4173 -0.1184
 1113POPI   GL216384  15.074   7.597   6.746 -0.1587  0.1440 -0.0594
 1113POPI   C1A16385  15.563   7.896   7.130  0.3714  0.2041  0.0934
 1113POPI   D2A16386  15.598   8.029   7.470 -0.0002  0.0351 -0.0420
 1113POPI   C3A16387  15.810   8.087   7.867  0.1676  0.0789  0.0092
 1113POPI   C4A16388  15.738   8.191   8.302 -0.1034 -0.0287  0.1643
 1113POPI   C1B16389  15.008   7.446   7.140  0.2339 -0.1331 -0.3664
 1113POPI   C2B16390  15.382   7.572   7.441  0.0484  0.0541  0.0317
 1113POPI   C3B16391  15.458   7.680   7.833 -0.2817  0.1371  0.0452
 1113POPI   C4B16392  15.551   7.747   8.264 -0.0522 -0.0113 -0.1750
 1114POPI    C116393   2.771  12.601   6.421 -0.4352 -0.1291 -0.0992
 1114POPI    C216394   2.714  12.986   6.333 -0.0344 -0.0183  0.0996
 1114POPI    C316395   2.819  12.729   6.045 -0.0972  0.0612  0.0047
 1114POPI   PO416396   2.675  12.618   6.658  0.0454 -0.6186  0.2283
 1114POPI   GL116397   2.820  12.720   6.990 -0.1480  0.1335  0.2434
 1114POPI   GL216398   3.045  12.516   7.065 -0.0395  0.0939  0.1332
 1114POPI   C1A16399   2.905  12.892   7.400 -0.1127  0.0134 -0.2002
 1114POPI   D2A16400   2.836  12.852   7.721  0.0566  0.1749  0.0204
 1114POPI   C3A16401   2.865  12.830   8.133 -0.0506  0.1339 -0.0983
 1114POPI   C4A16402   2.790  12.711   8.599  0.2248 -0.0170 -0.2835
 1114POPI   C1B16403   3.158  12.450   7.540  0.1033 -0.0128  0.0340
 1114POPI   C2B16404   3.167  12.395   7.877 -0.0511 -0.0724 -0.2883
 1114POPI   C3B16405   3.158  12.425   8.250 -0.0755  0.1172 -0.3004
 1114POPI   C4B16406   2.936  12.190   8.657  0.0935  0.2280  0.0047
 1115POPI    C116407   3.389   2.870   6.290  0.1984  0.2462 -0.1174
 1115POPI    C216408   3.050   3.037   6.159  0.0079  0.0005  0.0527
 1115POPI    C316409   3.123   2.651   6.087  0.0402 -0.0621  0.4041
 1115POPI   PO416410   3.421   2.908   6.500  0.1619 -0.0676  0.1790
 1115POPI   GL116411   3.560   2.796   6.871  0.3960  0.1031  0.1251
 1115POPI   GL216412   3.787   2.660   7.072  0.0048  0.0405  0.0731
 1115POPI   C1A16413   3.509   3.052   7.269  0.3908 -0.0489  0.0965
 1115POPI   D2A16414   3.599   2.909   7.693  0.1699 -0.0488 -0.0022
 1115POPI   C3A16415   3.594   3.062   8.076 -0.0417  0.1837  0.0112
 1115POPI   C4A16416   3.648   3.015   8.479  0.0609  0.0743 -0.2493
 1115POPI   C1B16417   3.791   2.573   7.412  0.0298 -0.0745  0.0304
 1115POPI   C2B16418   3.853   2.612   7.916  0.2919 -0.1511  0.0935
 1115POPI   C3B16419   3.917   2.574   8.318 -0.0822 -0.1584  0.0171
 1115POPI   C4B16420   4.011   2.617   8.737  0.1466 -0.3348  0.2699
 1116POPI    C116421  11.111  14.213   5.808 -0.1158  0.0934 -0.0148
 1116POPI    C216422  11.458  14.102   5.644 -0.0336 -0.0298  0.2388
 1116POPI    C316423  11.144  14.180   5.411  0.1012 -0.1335  0.0194
 1116POPI   PO416424  11.137  14.324   5.934  0.0583  0.1617 -0.1347
 1116POPI   GL116425  11.386  14.333   6.305 -0.0648  0.0116 -0.1191
 1116POPI   GL216426  11.113  14.071   6.377  0.1244  0.0726 -0.1674
 1116POPI   C1A16427  11.316  14.305   6.847 -0.2812 -0.0500 -0.1900
 1116POPI   D2A16428  11.297  14.144   7.265 -0.4238 -0.2303 -0.0637
 1116POPI   C3A16429  11.382  14.348   7.605  0.0518 -0.3202 -0.1433
 1116POPI   C4A16430  11.357  14.401   8.030  0.0154  0.2421 -0.2071
 1116POPI   C1B16431  11.002  13.910   6.762 -0.0193 -0.4373  0.2906
 1116POPI   C2B16432  11.062  13.734   7.215  0.1250 -0.1041 -0.0927
 1116POPI   C3B16433  11.176  13.865   7.743 -0.0630  0.3199 -0.1490
 1116POPI   C4B16434  11.224  13.893   8.210 -0.1096 -0.0174  0.1088
 1117POPI    C116435   2.140   4.316   6.503 -0.0979 -0.1730 -0.0357
 1117POPI    C216436   2.372   4.490   6.228 -0.1657 -0.1037 -0.0494
 1117POPI    C316437   2.405   4.098   6.297  0.0232 -0.0772  0.0177
 1117POPI   PO416438   2.231   4.359   6.782 -0.1620 -0.0715  0.1268
 1117POPI   GL116439   2.327   4.507   7.184  0.0592 -0.0504  0.3376
 1117POPI   GL216440   2.315   4.864   7.169  0.1246 -0.3722  0.0396
 1117POPI   C1A16441   2.309   4.494   7.638 -0.0767  0.2154 -0.0339
 1117POPI   D2A16442   2.359   4.440   8.147  0.0205  0.1434  0.0988
 1117POPI   C3A16443   2.325   4.382   8.530  0.0326 -0.2996 -0.1009
 1117POPI   C4A16444   2.246   4.261   8.900 -0.1305 -0.1010  0.5233
 1117POPI   C1B16445   2.176   5.051   7.560 -0.0148 -0.0606  0.0470
 1117POPI   C2B16446   2.229   5.139   8.026  0.0545  0.0182 -0.0131
 1117POPI   C3B16447   2.260   5.255   8.382  0.0019 -0.2039 -0.0951
 1117POPI   C4B16448   2.272   5.220   8.811  0.0270 -0.3041 -0.0259
 1118POPI    C116449   0.321  15.290   6.257  0.0116 -0.0186  0.0892
 1118POPI    C216450   0.074  14.982   6.193 -0.1286  0.1276 -0.0850
 1118POPI    C316451   0.215  15.194   5.884  0.4796 -0.1534 -0.0162
 1118POPI   PO416452   0.450  15.221   6.481 -0.1697  0.1461 -0.0653
 1118POPI   GL116453   0.445  15.329   6.872 -0.2051  0.3013  0.1060
 1118POPI   GL216454   0.827  15.348   7.002 -0.0638  0.0840 -0.1607
 1118POPI   C1A16455   0.377  15.352   7.291 -0.1285  0.1779 -0.0975
 1118POPI   D2A16456   0.319  15.361   7.781  0.0017 -0.0213 -0.3661
 1118POPI   C3A16457   0.367  15.158   8.135 -0.2417  0.2187  0.1163
 1118POPI   C4A16458   0.340  15.025   8.539 -0.0199 -0.3328 -0.0118
 1118POPI   C1B16459   0.907  15.449   7.502 -0.2578  0.0991  0.1111
 1118POPI   C2B16460   0.918  15.305   7.875  0.0497 -0.1905 -0.1299
 1118POPI   C3B16461   0.871  15.172   8.300  0.0675 -0.0453  0.3839
 1118POPI   C4B16462   0.939  15.259   8.736 -0.1441  0.0282 -0.2012
 1119POPI    C116463  13.539  11.381   6.006  0.0585 -0.0278 -0.0587
 1119POPI    C216464  13.172  11.485   5.886  0.0408  0.1033  0.1044
 1119POPI    C316465  13.404  11.261   5.649 -0.1496  0.0055  0.0072
 1119POPI   PO416466  13.511  11.597   6.264  0.1124  0.2048 -0.1373
 1119POPI   GL116467  13.739  11.449   6.577  0.1197  0.1484  0.0558
 1119POPI   GL216468  13.619  11.149   6.471  0.4186 -0.0756  0.1776
 1119POPI   C1A16469  13.689  11.528   6.991 -0.0666  0.1818  0.2521
 1119POPI   D2A16470  13.650  11.444   7.501 -0.0373  0.2619 -0.2830
 1119POPI   C3A16471  13.630  11.566   7.892  0.1803 -0.1788  0.1334
 1119POPI   C4A16472  13.506  11.426   8.306  0.2145 -0.0956 -0.2326
 1119POPI   C1B16473  13.484  11.042   6.919  0.1058  0.1052  0.2894
 1119POPI   C2B16474  13.466  10.954   7.345  0.2843 -0.0014  0.1482
 1119POPI   C3B16475  13.525  11.074   7.826  0.0802 -0.3113  0.0090
 1119POPI   C4B16476  13.348  10.962   8.198  0.1049  0.0378  0.2332
 1120POPI    C116477  14.069   5.003   6.226 -0.0146  0.2092 -0.3200
 1120POPI    C216478  13.686   5.097   6.157 -0.1174  0.0215 -0.0225
 1120POPI    C316479  13.840   4.762   6.002 -0.1186  0.0160 -0.0117
 1120POPI   PO416480  14.170   4.947   6.525 -0.2001 -0.0347 -0.0012
 1120POPI   GL116481  14.342   5.175   6.825 -0.1172 -0.1208 -0.2117
 1120POPI   GL216482  14.136   5.371   6.778  0.1742  0.2060 -0.0194
 1120POPI   C1A16483  14.370   5.366   7.241  0.0882 -0.0760  0.2797
 1120POPI   D2A16484  14.283   5.539   7.457 -0.0105  0.3090  0.0323
 1120POPI   C3A16485  14.283   5.539   7.841 -0.0184  0.1598 -0.1232
 1120POPI   C4A16486  14.233   5.640   8.319 -0.1479  0.0798 -0.1439
 1120POPI   C1B16487  13.864   5.440   7.102 -0.4302 -0.2769  0.0945
 1120POPI   C2B16488  13.738   5.461   7.559 -0.1265  0.0283  0.1285
 1120POPI   C3B16489  13.732   5.644   7.955  0.3020  0.4147 -0.0183
 1120POPI   C4B16490  13.740   5.578   8.359 -0.0277  0.2082 -0.0081
 1121POPI    C116491   7.718   7.922   5.788  0.2326 -0.3394 -0.0141
 1121POPI    C216492   8.021   8.028   6.027  0.2722 -0.2057 -0.1225
 1121POPI    C316493   8.034   8.116   5.637 -0.1710  0.3368 -0.0273
 1121POPI   PO416494   7.543   7.723   6.059  0.0446 -0.0912  0.0499
 1121POPI   GL116495   7.391   7.618   6.394 -0.1156  0.0273 -0.0510
 1121POPI   GL216496   7.278   7.887   6.471 -0.2393  0.0628  0.0218
 1121POPI   C1A16497   7.640   7.576   6.754 -0.2016  0.1748  0.0116
 1121POPI   D2A16498   7.601   7.553   7.256  0.5654  0.1069 -0.0681
 1121POPI   C3A16499   7.593   7.602   7.728 -0.0006 -0.1357  0.0074
 1121POPI   C4A16500   7.613   7.588   8.060  0.2274  0.2413 -0.0821
 1121POPI   C1B16501   7.337   7.967   6.863 -0.0148 -0.2675 -0.1719
 1121POPI   C2B16502   7.379   8.030   7.231  0.2092 -0.0314 -0.2461
 1121POPI   C3B16503   7.348   8.066   7.641  0.1580  0.1908 -0.0986
 1121POPI   C4B16504   7.259   8.084   8.017 -0.0827  0.1711  0.0806
 1122POPI    C116505   9.016  13.400   5.871  0.0706  0.1568 -0.0130
 1122POPI    C216506   8.718  13.389   5.604  0.0099  0.2020  0.0524
 1122POPI    C316507   9.072  13.545   5.503  0.0670 -0.0081 -0.0795
 1122POPI   PO416508   8.875  13.553   6.179  0.2258  0.0604 -0.0567
 1122POPI   GL116509   8.970  13.852   6.547  0.1115  0.1566 -0.1503
 1122POPI   GL216510   9.089  13.650   6.734  0.0988  0.1335  0.1001
 1122POPI   C1A16511   8.814  13.981   6.940 -0.1853  0.0290  0.0000
 1122POPI   D2A16512   8.706  14.122   7.329  0.1232 -0.0429 -0.1928
 1122POPI   C3A16513   8.734  13.981   7.683  0.0111 -0.0763 -0.3066
 1122POPI   C4A16514   8.763  14.096   8.091  0.1047 -0.1042 -0.0065
 1122POPI   C1B16515   9.110  13.538   7.060  0.1511 -0.2002  0.0693
 1122POPI   C2B16516   9.072  13.566   7.583 -0.0931 -0.2997 -0.1469
 1122POPI   C3B16517   9.047  13.692   7.980  0.3515 -0.0129 -0.0072
 1122POPI   C4B16518   9.166  13.781   8.392  0.0053 -0.0194  0.1966
 1123POPI    C116519   0.205  11.452   6.065  0.0899  0.1222  0.0950
 1123POPI    C216520   0.393  11.538   5.722  0.0521  0.1182  0.0732
 1123POPI    C316521   0.215  11.829   5.932  0.1470  0.1341  0.1324
 1123POPI   PO416522   0.375  11.249   6.207  0.4608 -0.1194  0.2788
 1123POPI   GL116523   0.413  11.096   6.576  0.2036  0.0432  0.2051
 1123POPI   GL216524   0.409  11.487   6.744 -0.2426  0.2169  0.0102
 1123POPI   C1A16525   0.243  11.040   6.980 -0.0425 -0.2524 -0.0853
 1123POPI   D2A16526   0.242  11.066   7.289  0.4657 -0.2409 -0.1164
 1123POPI   C3A16527   0.183  11.088   7.729  0.3611 -0.2437 -0.0018
 1123POPI   C4A16528   0.123  11.031   8.131  0.3303  0.2369 -0.1143
 1123POPI   C1B16529   0.413  11.626   7.238 -0.1800  0.2276 -0.1452
 1123POPI   C2B16530   0.390  11.542   7.650  0.2074 -0.0090  0.0631
 1123POPI   C3B16531   0.318  11.558   8.047  0.0703 -0.2006  0.0964
 1123POPI   C4B16532   0.366  11.531   8.447  0.4382  0.2355 -0.5143
 1124POPI    C116533  12.574  15.520   6.126  0.1065 -0.1610  0.2207
 1124POPI    C216534  12.727  15.674   5.790  0.0963 -0.3917  0.1077
 1124POPI    C316535  12.388  15.463   5.776 -0.0705 -0.1439  0.3110
 1124POPI   PO416536  12.741  15.465   6.262 -0.0183 -0.1610  0.0922
 1124POPI   GL116537  12.840  15.356   6.745 -0.0965 -0.1589  0.0441
 1124POPI   GL216538  12.636  15.085   6.640 -0.2341 -0.1001 -0.0953
 1124POPI   C1A16539  12.816  15.333   7.207 -0.1495  0.4121 -0.0787
 1124POPI   D2A16540  12.753  15.359   7.719 -0.0199  0.2858 -0.0783
 1124POPI   C3A16541  12.781  15.447   8.100 -0.3048 -0.2958  0.0735
 1124POPI   C4A16542  12.799  15.798   8.372 -0.3976  0.0575 -0.0495
 1124POPI   C1B16543  12.581  14.919   7.017  0.3511 -0.0377 -0.0045
 1124POPI   C2B16544  12.593  14.945   7.430  0.2418  0.4406  0.0741
 1124POPI   C3B16545  12.576  14.989   7.891 -0.5338  0.1929  0.2373
 1124POPI   C4B16546  12.582  14.989   8.336 -0.1486  0.0252 -0.0764
 1125POPI    C116547   7.529   5.887   5.809 -0.0768 -0.1570 -0.1245
 1125POPI    C216548   7.240   6.135   5.687 -0.0190 -0.0432 -0.0318
 1125POPI    C316549   7.434   5.908   5.421 -0.2029 -0.1308 -0.0926
 1125POPI   PO416550   7.458   5.850   6.073  0.1523  0.0605 -0.2992
 1125POPI   GL116551   7.546   6.020   6.531 -0.0833  0.0775 -0.0544
 1125POPI   GL216552   7.678   5.660   6.538  0.0002 -0.0798 -0.2297
 1125POPI   C1A16553   7.491   6.279   6.890  0.1595 -0.3372  0.2815
 1125POPI   D2A16554   7.458   6.319   7.351  0.2095  0.2412  0.3775
 1125POPI   C3A16555   7.376   6.225   7.720  0.0080  0.1062 -0.2160
 1125POPI   C4A16556   7.329   6.138   8.075  0.0406  0.0076 -0.2419
 1125POPI   C1B16557   7.749   5.819   6.951 -0.0497  0.1258  0.1047
 1125POPI   C2B16558   7.733   5.868   7.396  0.2535  0.3569 -0.2794
 1125POPI   C3B16559   7.609   5.811   7.820 -0.2770  0.0504 -0.1685
 1125POPI   C4B16560   7.672   5.796   8.242  0.0948  0.3503  0.1366
 1126POPI    C116561   8.029   8.690   5.591  0.0578  0.0017 -0.1763
 1126POPI    C216562   8.418   8.612   5.541 -0.0576 -0.5403 -0.2867
 1126POPI    C316563   8.162   8.555   5.239 -0.2685 -0.4949 -0.1189
 1126POPI   PO416564   7.890   8.545   5.916  0.2961  0.0766  0.0045
 1126POPI   GL116565   7.883   8.540   6.400  0.0031  0.0064  0.1382
 1126POPI   GL216566   8.136   8.520   6.626 -0.0930 -0.1846  0.1063
 1126POPI   C1A16567   7.754   8.697   6.895 -0.1394 -0.1645 -0.0979
 1126POPI   D2A16568   7.773   8.673   7.274  0.1524 -0.3070 -0.2089
 1126POPI   C3A16569   7.915   8.886   7.640 -0.1209  0.0514 -0.1529
 1126POPI   C4A16570   7.989   8.951   8.006  0.2320  0.0617 -0.2209
 1126POPI   C1B16571   8.196   8.468   6.998  0.0500 -0.3337  0.2667
 1126POPI   C2B16572   8.208   8.478   7.447 -0.0885 -0.1456  0.2322
 1126POPI   C3B16573   8.084   8.461   7.781  0.1696 -0.0946 -0.5322
 1126POPI   C4B16574   7.695   8.522   7.864  0.1772 -0.0491  0.2451
 1127POPI    C116575   1.016   7.276   6.268 -0.0137  0.3652  0.1646
 1127POPI    C216576   0.707   7.442   6.078 -0.1815 -0.0008  0.1089
 1127POPI    C316577   1.079   7.568   6.002 -0.2967  0.2920  0.0135
 1127POPI   PO416578   0.956   7.295   6.477  0.0248  0.0116 -0.2462
 1127POPI   GL116579   0.846   7.523   6.977 -0.3023  0.1265 -0.3435
 1127POPI   GL216580   0.686   7.279   6.873  0.0086 -0.4014 -0.2239
 1127POPI   C1A16581   0.784   7.350   7.401  0.0775 -0.0177 -0.1795
 1127POPI   D2A16582   0.744   7.308   7.808  0.1334 -0.0758  0.2963
 1127POPI   C3A16583   0.898   7.356   8.125  0.1526 -0.0742  0.0958
 1127POPI   C4A16584   0.934   7.389   8.649  0.0227  0.1197 -0.1156
 1127POPI   C1B16585   0.306   7.282   7.083  0.2155 -0.1120 -0.4911
 1127POPI   C2B16586   0.288   7.279   7.567 -0.0268  0.2293  0.2225
 1127POPI   C3B16587   0.220   7.310   7.899 -0.0425 -0.0589 -0.2366
 1127POPI   C4B16588   0.410   7.425   8.324 -0.1912 -0.1095 -0.3172
 1128POPI    C116589  13.058   1.497   6.344  0.0633  0.0388  0.2872
 1128POPI    C216590  13.313   1.773   6.206 -0.1366  0.0741 -0.0237
 1128POPI    C316591  13.347   1.392   6.088 -0.1779  0.0636 -0.0020
 1128POPI   PO416592  13.075   1.566   6.600  0.2175  0.3277  0.0530
 1128POPI   GL116593  13.069   1.309   6.983  0.0160 -0.0577  0.0150
 1128POPI   GL216594  13.334   1.583   7.113  0.0468  0.0041 -0.0894
 1128POPI   C1A16595  12.917   1.235   7.310  0.1313 -0.1052  0.1082
 1128POPI   D2A16596  12.710   1.237   7.616  0.2287 -0.2663  0.2650
 1128POPI   C3A16597  12.970   1.236   7.944  0.1152  0.0973  0.1403
 1128POPI   C4A16598  12.847   1.064   8.352 -0.0890  0.1428 -0.1324
 1128POPI   C1B16599  13.355   1.492   7.498 -0.1270  0.0455 -0.1815
 1128POPI   C2B16600  13.405   1.522   7.912 -0.0320  0.0376 -0.0197
 1128POPI   C3B16601  13.259   1.494   8.310 -0.0582 -0.0282 -0.5668
 1128POPI   C4B16602  13.156   1.264   8.671 -0.0048 -0.0910 -0.1263
 1129POPI    C116603   1.522   4.872   6.351  0.1068  0.1259  0.0703
 1129POPI    C216604   1.293   4.591   6.182 -0.0650  0.2527  0.0904
 1129POPI    C316605   1.447   4.885   5.959  0.0947  0.1572  0.0736
 1129POPI   PO416606   1.553   4.809   6.531  0.0740 -0.2723  0.1398
 1129POPI   GL116607   1.363   4.885   6.971 -0.0533 -0.3525  0.2771
 1129POPI   GL216608   0.973   4.843   6.970  0.3081  0.0608 -0.3278
 1129POPI   C1A16609   1.285   4.797   7.375 -0.0318 -0.1712  0.1019
 1129POPI   D2A16610   1.303   4.877   7.788 -0.1204  0.0924  0.2548
 1129POPI   C3A16611   1.493   4.884   8.145  0.3296  0.1578  0.1262
 1129POPI   C4A16612   1.459   4.765   8.552  0.3267 -0.0717  0.1158
 1129POPI   C1B16613   0.749   4.835   7.395  0.0443 -0.2949  0.2335
 1129POPI   C2B16614   0.750   5.015   7.811 -0.0259  0.0325 -0.1735
 1129POPI   C3B16615   0.645   5.247   8.245  0.2563 -0.0669 -0.2165
 1129POPI   C4B16616   0.598   5.230   8.747 -0.0669 -0.2280  0.1178
 1130POPI    C116617   9.036   8.416   5.845 -0.1482 -0.1322 -0.1924
 1130POPI    C216618   8.816   8.747   5.795 -0.0316 -0.0227  0.0059
 1130POPI    C316619   9.032   8.602   5.490  0.1044  0.2216 -0.0164
 1130POPI   PO416620   8.870   8.370   6.110 -0.0819  0.2259 -0.1158
 1130POPI   GL116621   9.138   8.608   6.394  0.0197  0.0008  0.4432
 1130POPI   GL216622   9.027   8.810   6.276 -0.2501 -0.3344  0.0128
 1130POPI   C1A16623   9.242   8.541   6.831  0.1929  0.2208  0.1852
 1130POPI   D2A16624   9.289   8.560   7.118  0.0476 -0.2554 -0.3166
 1130POPI   C3A16625   9.195   8.461   7.502  0.0439  0.0927 -0.2300
 1130POPI   C4A16626   9.159   8.460   7.973 -0.0942  0.0407 -0.1018
 1130POPI   C1B16627   9.156   8.992   6.632  0.2249  0.2436 -0.1094
 1130POPI   C2B16628   9.049   8.985   7.113 -0.1261 -0.0925 -0.1184
 1130POPI   C3B16629   9.007   8.976   7.553  0.0598 -0.2674 -0.0735
 1130POPI   C4B16630   8.852   8.884   7.923  0.1287  0.0193  0.1320
 1131POPI    C116631  15.266   8.268   6.276 -0.0506 -0.1783 -0.0385
 1131POPI    C216632  15.273   8.433   5.911 -0.0510  0.0253  0.0520
 1131POPI    C316633  14.949   8.234   6.034 -0.1189  0.1070  0.0062
 1131POPI   PO416634  15.322   8.421   6.373  0.1774 -0.0267  0.2911
 1131POPI   GL116635  15.377   8.403   6.825  0.3269 -0.1775 -0.0528
 1131POPI   GL216636  15.282   8.067   6.752  0.3382  0.0270 -0.1762
 1131POPI   C1A16637  15.321   8.435   7.271 -0.2891 -0.1506  0.0346
 1131POPI   D2A16638  15.288   8.565   7.697  0.0677 -0.1571 -0.1435
 1131POPI   C3A16639  15.499   8.542   8.044  0.1634 -0.0961 -0.0775
 1131POPI   C4A16640  15.654   8.772   8.371 -0.1626 -0.0844  0.1298
 1131POPI   C1B16641  15.048   7.961   7.152  0.1742 -0.1591  0.4073
 1131POPI   C2B16642  15.058   8.062   7.598 -0.2152 -0.3398  0.1728
 1131POPI   C3B16643  15.284   8.102   8.021  0.1351 -0.0177  0.3904
 1131POPI   C4B16644  15.199   8.111   8.385  0.2139  0.0260  0.0246
 1132POPI    C116645   7.231   4.482   5.866  0.0677 -0.1497 -0.1017
 1132POPI    C216646   7.251   4.857   5.729 -0.0312 -0.0965  0.0278
 1132POPI    C316647   7.130   4.562   5.487  0.0823 -0.0514 -0.0849
 1132POPI   PO416648   7.162   4.543   6.101  0.1896 -0.0080 -0.1126
 1132POPI   GL116649   7.136   4.432   6.533 -0.2378  0.0023 -0.0038
 1132POPI   GL216650   6.954   4.312   6.702  0.0449  0.1312 -0.2762
 1132POPI   C1A16651   7.161   4.792   6.934  0.0623  0.1593 -0.1206
 1132POPI   D2A16652   7.227   4.737   7.260  0.3359 -0.2050  0.0341
 1132POPI   C3A16653   7.198   4.851   7.721  0.0839 -0.0200 -0.1733
 1132POPI   C4A16654   7.142   4.928   8.117  0.2037 -0.0748 -0.1213
 1132POPI   C1B16655   6.913   4.427   7.166 -0.0101  0.0764 -0.2099
 1132POPI   C2B16656   6.917   4.498   7.535 -0.0979 -0.4666  0.1857
 1132POPI   C3B16657   6.911   4.494   7.938 -0.1820  0.1852  0.1116
 1132POPI   C4B16658   6.906   4.480   8.429 -0.4862 -0.0623  0.0018
 1133POPI    C116659   9.993   4.681   5.932 -0.0414 -0.1666  0.2024
 1133POPI    C216660   9.775   4.347   5.913 -0.0796 -0.1224 -0.2652
 1133POPI    C316661   9.989   4.463   5.596  0.1160  0.1769 -0.0286
 1133POPI   PO416662  10.121   4.634   6.152  0.0860 -0.1166 -0.1769
 1133POPI   GL116663  10.178   4.784   6.561 -0.4120  0.0767 -0.1333
 1133POPI   GL216664  10.218   4.494   6.629 -0.3511  0.2592  0.0188
 1133POPI   C1A16665  10.293   4.958   6.916  0.1488  0.0897  0.2961
 1133POPI   D2A16666  10.306   5.035   7.301  0.2640  0.4174 -0.0195
 1133POPI   C3A16667  10.273   5.048   7.743 -0.0038  0.2153 -0.1383
 1133POPI   C4A16668  10.352   4.968   8.164  0.2085  0.2362 -0.3278
 1133POPI   C1B16669  10.028   4.541   6.966  0.3687  0.0213  0.0332
 1133POPI   C2B16670  10.109   4.576   7.481 -0.0565  0.0314  0.1046
 1133POPI   C3B16671  10.146   4.398   7.938 -0.1583  0.1085 -0.0355
 1133POPI   C4B16672  10.001   4.607   8.346  0.0383 -0.0808  0.1490
 1134POPI    C116673  15.461   3.609   6.356  0.1300 -0.0722  0.1476
 1134POPI    C216674  15.857   3.661   6.381  0.1313 -0.0528  0.0878
 1134POPI    C316675  15.632   3.926   6.182  0.1011 -0.1179  0.0350
 1134POPI   PO416676  15.419   3.524   6.668  0.0414 -0.2110  0.3252
 1134POPI   GL116677  15.534   3.588   7.022 -0.0719  0.0604 -0.3203
 1134POPI   GL216678  15.790   3.795   7.112  0.1690  0.4077 -0.1671
 1134POPI   C1A16679  15.232   3.901   7.212 -0.1681 -0.1723 -0.0961
 1134POPI   D2A16680  15.175   4.204   7.554  0.1890 -0.1210  0.4586
 1134POPI   C3A16681  15.177   4.241   7.976 -0.0591 -0.0781 -0.1949
 1134POPI   C4A16682  15.251   4.181   8.384 -0.1018  0.1447  0.0749
 1134POPI   C1B16683  15.817   3.719   7.538  0.1340  0.1088  0.0455
 1134POPI   C2B16684  15.867   3.729   7.953  0.0880  0.1508  0.2609
 1134POPI   C3B16685  15.856   3.707   8.496 -0.0248  0.3515  0.3297
 1134POPI   C4B16686  15.948   3.862   8.938  0.1534 -0.1056  0.0626
 1135POPI    C116687   0.821   1.609   6.649  0.3400  0.1190 -0.0151
 1135POPI    C216688   0.731   1.984   6.543  0.1786  0.0954  0.0362
 1135POPI    C316689   0.763   1.699   6.264  0.0928  0.1041  0.0174
 1135POPI   PO416690   0.668   1.555   6.865 -0.0918 -0.1721 -0.0514
 1135POPI   GL116691   0.591   1.559   7.308 -0.1048 -0.0683 -0.0227
 1135POPI   GL216692   0.377   1.783   7.328  0.1750  0.0766 -0.2156
 1135POPI   C1A16693   0.767   1.275   7.681  0.0413  0.0579 -0.0770
 1135POPI   D2A16694   0.666   1.320   7.998 -0.2168  0.0866  0.2873
 1135POPI   C3A16695   0.793   1.410   8.381  0.0221  0.0261 -0.1382
 1135POPI   C4A16696   0.814   1.652   8.717 -0.2412  0.0874  0.5725
 1135POPI   C1B16697   0.443   1.756   7.755 -0.0789 -0.0218 -0.1406
 1135POPI   C2B16698   0.453   1.710   8.195  0.0500 -0.1161  0.1314
 1135POPI   C3B16699   0.373   1.833   8.632  0.1147 -0.0665  0.1101
 1135POPI   C4B16700   0.523   2.042   8.924  0.2438  0.1053 -0.1226
 1136POPI    C116701   9.111  10.482   5.911 -0.0853 -0.0409  0.0667
 1136POPI    C216702   9.094  10.085   5.866 -0.0460 -0.0272 -0.0735
 1136POPI    C316703   9.403  10.251   6.056  0.0231 -0.0517 -0.1635
 1136POPI   PO416704   8.805  10.502   5.970 -0.0871  0.0619 -0.0786
 1136POPI   GL116705   8.628  10.727   6.271  0.2215 -0.0596 -0.0643
 1136POPI   GL216706   8.358  10.869   6.457 -0.0146 -0.2170  0.2634
 1136POPI   C1A16707   8.592  10.424   6.617 -0.1119  0.0850  0.0658
 1136POPI   D2A16708   8.667  10.334   7.069 -0.1922 -0.1542  0.1941
 1136POPI   C3A16709   8.718  10.328   7.515  0.3782 -0.1718 -0.0532
 1136POPI   C4A16710   8.569  10.489   7.829 -0.1868  0.1350  0.1064
 1136POPI   C1B16711   8.310  10.812   6.798 -0.0870  0.2808  0.1201
 1136POPI   C2B16712   8.383  10.795   7.256  0.1355  0.1288 -0.2887
 1136POPI   C3B16713   8.323  10.897   7.722 -0.0166 -0.1439 -0.0845
 1136POPI   C4B16714   8.378  10.843   8.113  0.1671 -0.0234 -0.1369
 1137POPI    C116715   7.704   5.435   5.949  0.1832  0.0024 -0.0540
 1137POPI    C216716   7.736   5.120   5.704 -0.1222  0.0499 -0.1589
 1137POPI    C316717   7.447   5.391   5.645  0.0404  0.2668  0.0256
 1137POPI   PO416718   7.680   5.353   6.158 -0.2856  0.2158 -0.0739
 1137POPI   GL116719   7.405   5.249   6.508 -0.0172 -0.0228 -0.1491
 1137POPI   GL216720   7.082   5.100   6.533 -0.0104 -0.1603 -0.3013
 1137POPI   C1A16721   7.492   5.311   6.940 -0.1737 -0.0242 -0.1837
 1137POPI   D2A16722   7.382   5.201   7.223  0.0837 -0.0471  0.1471
 1137POPI   C3A16723   7.486   5.327   7.669 -0.0644  0.1227 -0.1904
 1137POPI   C4A16724   7.370   5.379   8.082 -0.2470  0.0575  0.2685
 1137POPI   C1B16725   6.946   5.233   6.938 -0.0590 -0.2023 -0.2084
 1137POPI   C2B16726   6.890   5.349   7.388  0.0652 -0.0542 -0.0812
 1137POPI   C3B16727   6.847   5.258   7.883  0.2375 -0.2630  0.3251
 1137POPI   C4B16728   6.893   5.312   8.319 -0.2148 -0.0034 -0.1302
 1138POPI    C116729   3.130  11.836   6.104 -0.0305 -0.1080 -0.0655
 1138POPI    C216730   3.465  11.864   5.888  0.0679  0.0005  0.0988
 1138POPI    C316731   3.248  11.529   5.878  0.1873 -0.0746  0.0001
 1138POPI   PO416732   3.172  11.911   6.386  0.1015  0.0933 -0.1834
 1138POPI   GL116733   3.210  11.628   6.660 -0.0587  0.0124  0.0690
 1138POPI   GL216734   3.540  11.615   6.586 -0.1497 -0.0965 -0.2563
 1138POPI   C1A16735   3.144  11.686   7.157 -0.0906  0.0741 -0.1545
 1138POPI   D2A16736   3.240  11.573   7.561  0.2815 -0.1286 -0.2629
 1138POPI   C3A16737   3.361  11.629   8.021  0.1634 -0.2971  0.0679
 1138POPI   C4A16738   3.328  11.562   8.429  0.2519  0.2274 -0.2052
 1138POPI   C1B16739   3.660  11.608   6.996  0.1180 -0.1320  0.0813
 1138POPI   C2B16740   3.747  11.603   7.406  0.0916 -0.1687  0.0570
 1138POPI   C3B16741   3.831  11.656   7.905 -0.0807 -0.1675 -0.0128
 1138POPI   C4B16742   3.834  11.587   8.327  0.1028  0.0741  0.2479
 1139POPI    C116743  12.215   3.357   6.385 -0.0284 -0.0093  0.1772
 1139POPI    C216744  12.379   3.176   6.069 -0.1369  0.2017 -0.0028
 1139POPI    C316745  11.981   3.205   6.099 -0.1314  0.0747  0.2160
 1139POPI   PO416746  12.304   3.202   6.636 -0.1188 -0.0490 -0.2147
 1139POPI   GL116747  12.168   3.429   6.943 -0.1121 -0.0304 -0.1245
 1139POPI   GL216748  12.380   3.608   7.043 -0.2732  0.0187 -0.0860
 1139POPI   C1A16749  12.044   3.261   7.224 -0.0920 -0.1855  0.0268
 1139POPI   D2A16750  12.026   3.206   7.580 -0.0335  0.2999  0.0898
 1139POPI   C3A16751  12.037   3.122   7.952  0.1651  0.3078 -0.1876
 1139POPI   C4A16752  12.059   3.092   8.382  0.0739 -0.1506  0.1418
 1139POPI   C1B16753  12.238   3.635   7.496 -0.0438 -0.1347 -0.4256
 1139POPI   C2B16754  12.280   3.603   7.957  0.1246 -0.0973 -0.0191
 1139POPI   C3B16755  12.307   3.549   8.385  0.0229  0.0382  0.1009
 1139POPI   C4B16756  12.513   3.459   8.739  0.0451 -0.2065  0.1424
 1140POPI    C116757  15.521  15.206   6.216 -0.0304 -0.0078  0.0743
 1140POPI    C216758  15.450  15.237   5.824  0.0199 -0.1795  0.0507
 1140POPI    C316759  15.166  15.338   6.087  0.0092 -0.0006 -0.0277
 1140POPI   PO416760  15.693  15.338   6.446  0.1267  0.1736  0.1845
 1140POPI   GL116761  16.018  15.417   6.629  0.2049 -0.1656 -0.2925
 1140POPI   GL216762  16.036  15.014   6.874 -0.3977 -0.1299  0.3364
 1140POPI   C1A16763  16.036  15.472   7.079 -0.2244  0.0966 -0.2898
 1140POPI   D2A16764  16.205  15.522   7.460 -0.1918 -0.0077  0.1883
 1140POPI   C3A16765  16.256  15.568   7.936  0.1155 -0.3633 -0.2061
 1140POPI   C4A16766  16.225  15.357   8.266  0.2402 -0.0528  0.0776
 1140POPI   C1B16767  16.322  14.749   7.097  0.0040 -0.2288  0.0769
 1140POPI   C2B16768  16.321  14.581   7.457 -0.2367 -0.1145 -0.2694
 1140POPI   C3B16769  16.303  14.624   7.961 -0.0320  0.0723 -0.0239
 1140POPI   C4B16770  16.310  14.518   8.307 -0.0220  0.0366 -0.0322
 1141POPI    C116771  10.626   9.551   6.028 -0.0279  0.5170 -0.1050
 1141POPI    C216772  10.898   9.605   5.740  0.0098 -0.0837 -0.1948
 1141POPI    C316773  10.754   9.239   5.814 -0.1802  0.0970  0.3930
 1141POPI   PO416774  10.672   9.694   6.180  0.2466  0.0895 -0.2325
 1141POPI   GL116775  10.684   9.684   6.570  0.1153  0.1145 -0.3699
 1141POPI   GL216776  10.792   9.403   6.626  0.3199 -0.1780  0.2059
 1141POPI   C1A16777  10.853   9.888   6.923 -0.3090 -0.3636 -0.1255
 1141POPI   D2A16778  10.987   9.861   7.372  0.2364 -0.3065 -0.3262
 1141POPI   C3A16779  10.823   9.931   7.822  0.2047  0.3135 -0.0442
 1141POPI   C4A16780  10.895  10.007   8.205 -0.0453 -0.1188  0.1141
 1141POPI   C1B16781  10.699   9.398   7.170 -0.3403 -0.1833  0.2192
 1141POPI   C2B16782  10.724   9.379   7.598  0.0220  0.0620  0.1367
 1141POPI   C3B16783  10.634   9.450   8.057  0.1264 -0.1995  0.0072
 1141POPI   C4B16784  10.750   9.570   8.421  0.0983  0.3081  0.1309
 1142POPI    C116785   1.002   3.731   6.213  0.2465 -0.1206  0.2088
 1142POPI    C216786   1.165   3.485   5.942  0.1809  0.0186  0.0408
 1142POPI    C316787   0.795   3.627   5.887 -0.0446 -0.3761  0.4695
 1142POPI   PO416788   1.105   3.592   6.465  0.0798  0.0523  0.0543
 1142POPI   GL116789   1.147   3.531   6.909 -0.2025  0.0039 -0.1275
 1142POPI   GL216790   1.085   3.729   7.113 -0.1743  0.0914  0.1226
 1142POPI   C1A16791   1.293   3.340   7.294  0.1792  0.0211 -0.2054
 1142POPI   D2A16792   1.496   3.430   7.636 -0.1180  0.0739 -0.0199
 1142POPI   C3A16793   1.501   3.407   8.073  0.0374  0.0426 -0.0491
 1142POPI   C4A16794   1.818   3.393   8.353  0.0371  0.0978 -0.1009
 1142POPI   C1B16795   0.984   3.815   7.597 -0.0032 -0.1776  0.0745
 1142POPI   C2B16796   0.948   3.856   8.085 -0.1074  0.1173  0.1302
 1142POPI   C3B16797   0.959   3.785   8.515  0.0735 -0.1280 -0.0539
 1142POPI   C4B16798   1.248   4.045   8.823  0.0335  0.0502  0.1255
 1143POPI    C116799   9.263   3.404   5.908 -0.3230  0.1070 -0.1725
 1143POPI    C216800   9.274   3.546   5.534  0.1238  0.0472 -0.1878
 1143POPI    C316801   9.433   3.189   5.616  0.0220  0.0567  0.0594
 1143POPI   PO416802   9.219   3.615   6.064  0.0878  0.3917  0.0611
 1143POPI   GL116803   9.183   3.645   6.549  0.0167  0.1207  0.3424
 1143POPI   GL216804   9.276   3.924   6.772  0.1863  0.0291 -0.0036
 1143POPI   C1A16805   9.021   3.508   6.894 -0.1904  0.1441  0.1461
 1143POPI   D2A16806   9.093   3.580   7.318 -0.3942  0.2994 -0.0184
 1143POPI   C3A16807   8.993   3.632   7.772  0.1144  0.0095  0.1003
 1143POPI   C4A16808   9.065   3.539   8.162 -0.1397  0.2237  0.0646
 1143POPI   C1B16809   9.252   4.113   7.147  0.1436  0.2915  0.1311
 1143POPI   C2B16810   9.250   4.046   7.567  0.0258 -0.0765 -0.2335
 1143POPI   C3B16811   9.305   3.976   7.988  0.0244 -0.0692 -0.3850
 1143POPI   C4B16812   9.343   4.057   8.481  0.0989  0.0497 -0.0144
 1144POPI    C116813   3.051  13.244   6.028  0.1093 -0.0252  0.2450
 1144POPI    C216814   2.991  13.402   5.666  0.0682 -0.0600  0.2366
 1144POPI    C316815   2.731  13.138   5.814  0.1206 -0.0970  0.2633
 1144POPI   PO416816   3.107  13.371   6.311  0.0207  0.0392 -0.2066
 1144POPI   GL116817   3.119  13.080   6.689 -0.0247  0.0527 -0.0251
 1144POPI   GL216818   2.970  13.196   6.793  0.1124 -0.0147 -0.0549
 1144POPI   C1A16819   3.300  13.004   7.067 -0.2702  0.0243 -0.0328
 1144POPI   D2A16820   3.438  12.899   7.456 -0.0007  0.1408  0.1291
 1144POPI   C3A16821   3.327  12.844   7.786  0.1522  0.1577  0.2133
 1144POPI   C4A16822   3.356  12.960   8.262  0.3046  0.2236  0.1221
 1144POPI   C1B16823   2.978  13.377   7.270 -0.1389  0.1633 -0.0800
 1144POPI   C2B16824   3.108  13.269   7.697  0.1601 -0.0204 -0.0069
 1144POPI   C3B16825   3.049  13.297   8.112  0.1699 -0.0842 -0.0594
 1144POPI   C4B16826   3.094  13.393   8.552  0.1163  0.0699 -0.1868
 1145POPI    C116827  17.134  10.910   6.238 -0.1102 -0.0622 -0.1077
 1145POPI    C216828  17.235  10.667   5.937  0.0903 -0.0259 -0.0709
 1145POPI    C316829  17.506  10.764   6.215  0.0012  0.2100 -0.0649
 1145POPI   PO416830  16.820  10.848   6.270 -0.1079  0.0233 -0.1236
 1145POPI   GL116831  16.644  10.627   6.636 -0.0423  0.0553 -0.1913
 1145POPI   GL216832  16.450  10.849   6.761  0.0888 -0.1310  0.0408
 1145POPI   C1A16833  16.601  10.510   7.171 -0.0438 -0.1093 -0.1406
 1145POPI   D2A16834  16.606  10.455   7.747 -0.1187  0.3162 -0.0101
 1145POPI   C3A16835  16.617  10.561   8.079  0.3721  0.1180  0.1377
 1145POPI   C4A16836  16.821  10.391   8.495 -0.0951 -0.3981 -0.0205
 1145POPI   C1B16837  16.409  10.943   7.153  0.1027 -0.1513  0.0750
 1145POPI   C2B16838  16.389  10.898   7.613 -0.1838 -0.2522  0.1904
 1145POPI   C3B16839  16.266  10.987   8.042 -0.1820  0.0131 -0.0622
 1145POPI   C4B16840  16.391  10.827   8.515  0.3366  0.0324 -0.1689
 1146POPI    C116841  15.884   0.996   6.343 -0.1847  0.1053 -0.0687
 1146POPI    C216842  16.148   1.278   6.240  0.0925 -0.1419 -0.0480
 1146POPI    C316843  15.784   1.274   6.074  0.0737  0.2438 -0.0247
 1146POPI   PO416844  15.956   0.942   6.541 -0.1260 -0.3445 -0.2075
 1146POPI   GL116845  16.131   0.959   7.032  0.2782 -0.4012 -0.0450
 1146POPI   GL216846  15.907   0.695   7.042  0.1002  0.0021  0.0829
 1146POPI   C1A16847  16.221   1.144   7.441 -0.0659  0.1599  0.0991
 1146POPI   D2A16848  16.339   1.105   7.842 -0.1040  0.1244 -0.2729
 1146POPI   C3A16849  16.283   1.124   8.284 -0.0105 -0.1643  0.2317
 1146POPI   C4A16850  16.262   1.036   8.785 -0.1240 -0.0542  0.0017
 1146POPI   C1B16851  16.041   0.617   7.476 -0.0844 -0.0563  0.0833
 1146POPI   C2B16852  16.109   0.646   7.870 -0.0057 -0.0059 -0.1413
 1146POPI   C3B16853  16.165   0.642   8.302  0.2528  0.1109 -0.0872
 1146POPI   C4B16854  16.185   0.439   8.772 -0.0564 -0.0115  0.3047
 1147DPPI    C116855  16.284   3.510   6.664 -0.0603 -0.3610  0.2672
 1147DPPI    C216856  16.226   3.312   6.321  0.1009  0.2082 -0.1016
 1147DPPI    C316857  16.541   3.224   6.551 -0.0379 -0.2145 -0.0657
 1147DPPI   PO416858  16.090   3.523   6.821 -0.2375  0.1828  0.1561
 1147DPPI   GL116859  16.096   3.379   7.206  0.0289 -0.0980  0.4339
 1147DPPI   GL216860  16.457   3.285   7.129  0.2064  0.1590  0.1700
 1147DPPI   C1A16861  16.288   3.733   7.422 -0.0708 -0.0658 -0.0907
 1147DPPI   C2A16862  16.335   3.718   7.778  0.0297  0.0217 -0.1719
 1147DPPI   C3A16863  16.274   3.784   8.213  0.0069 -0.1208 -0.1850
 1147DPPI   C4A16864  16.255   4.101   8.558 -0.2287  0.0829  0.1606
 1147DPPI   C1B16865  16.439   3.260   7.547  0.0967 -0.1242 -0.2625
 1147DPPI   C2B16866  16.466   3.272   8.016  0.0236 -0.1652  0.0105
 1147DPPI   C3B16867  16.256   3.328   8.415  0.0496  0.1350 -0.3400
 1147DPPI   C4B16868  16.053   3.366   8.785 -0.2924  0.0495  0.0452
 1148DPPI    C116869  14.724   9.873   6.128 -0.2455 -0.0887 -0.0299
 1148DPPI    C216870  14.608   9.617   5.844  0.1398 -0.1017 -0.1816
 1148DPPI    C316871  14.627  10.008   5.764  0.0138 -0.0776 -0.0967
 1148DPPI   PO416872  14.900   9.700   6.290  0.0604 -0.0573  0.0410
 1148DPPI   GL116873  14.823   9.549   6.680  0.1610 -0.1600  0.0570
 1148DPPI   GL216874  14.750   9.271   6.814  0.2464 -0.1199 -0.0556
 1148DPPI   C1A16875  14.896   9.739   7.059 -0.0350  0.0423  0.2984
 1148DPPI   C2A16876  14.894   9.732   7.468  0.3448 -0.0801  0.1661
 1148DPPI   C3A16877  14.890   9.961   7.854 -0.0816 -0.1072 -0.5128
 1148DPPI   C4A16878  14.814  10.048   8.328  0.1182 -0.0746 -0.2656
 1148DPPI   C1B16879  14.670   9.264   7.205 -0.0999  0.2295 -0.0474
 1148DPPI   C2B16880  14.590   9.340   7.606 -0.0171 -0.0237  0.2201
 1148DPPI   C3B16881  14.678   9.317   8.047 -0.0664  0.0276  0.0964
 1148DPPI   C4B16882  14.548   9.478   8.388  0.1088 -0.3198 -0.1419
 1149DPPI    C116883  10.152   3.558   6.102  0.0533  0.1486 -0.0497
 1149DPPI    C216884   9.835   3.388   5.926 -0.0289  0.2193  0.0293
 1149DPPI    C316885  10.147   3.505   5.705  0.0585 -0.0957 -0.0184
 1149DPPI   PO416886  10.113   3.645   6.371  0.0225 -0.1926  0.1904
 1149DPPI   GL116887  10.123   3.448   6.686 -0.3764  0.0166 -0.1659
 1149DPPI   GL216888   9.866   3.322   6.892  0.0074  0.1925 -0.0794
 1149DPPI   C1A16889  10.126   3.661   7.020  0.0017 -0.1760  0.0980
 1149DPPI   C2A16890  10.127   3.613   7.355 -0.0370 -0.0620 -0.2012
 1149DPPI   C3A16891  10.227   3.559   7.758 -0.0270 -0.2059  0.1924
 1149DPPI   C4A16892  10.103   3.515   8.210  0.0568 -0.1928 -0.0623
 1149DPPI   C1B16893   9.903   3.190   7.434  0.0379 -0.1254 -0.2049
 1149DPPI   C2B16894   9.968   3.081   7.873 -0.3189 -0.3736 -0.0369
 1149DPPI   C3B16895   9.922   3.100   8.395  0.0416  0.0377  0.1999
 1149DPPI   C4B16896  10.076   3.276   8.756 -0.0462 -0.0985 -0.2585
 1150DPPI    C116897   8.382   5.790   5.907  0.0661  0.1816 -0.0492
 1150DPPI    C216898   8.513   5.610   5.575  0.2568  0.0335  0.1039
 1150DPPI    C316899   8.146   5.532   5.713  0.1738  0.1011 -0.0738
 1150DPPI   PO416900   8.527   5.764   6.078  0.1349  0.0888  0.0485
 1150DPPI   GL116901   8.599   5.547   6.417 -0.0145 -0.1230 -0.1382
 1150DPPI   GL216902   8.482   5.262   6.548 -0.1757 -0.0733  0.1366
 1150DPPI   C1A16903   8.747   5.785   6.710  0.2009 -0.0482 -0.0551
 1150DPPI   C2A16904   8.775   5.897   7.161  0.2454 -0.2182  0.0372
 1150DPPI   C3A16905   8.799   5.892   7.644 -0.1769 -0.1124 -0.1826
 1150DPPI   C4A16906   8.628   5.908   8.076 -0.1247  0.0975 -0.1538
 1150DPPI   C1B16907   8.569   5.365   7.079 -0.1639  0.0178 -0.0205
 1150DPPI   C2B16908   8.493   5.311   7.551 -0.0621 -0.0280  0.1724
 1150DPPI   C3B16909   8.416   5.427   7.934  0.0261  0.0001 -0.0229
 1150DPPI   C4B16910   8.440   5.548   8.369  0.2198 -0.0602  0.2072
 1151DPPI    C116911  12.079  12.932   5.974  0.1389  0.1226 -0.0180
 1151DPPI    C216912  11.856  12.980   5.646  0.0429  0.1490  0.0505
 1151DPPI    C316913  11.883  12.620   5.819  0.0250  0.1533  0.0624
 1151DPPI   PO416914  11.975  13.147   6.142 -0.0196 -0.1743 -0.1906
 1151DPPI   GL116915  11.873  13.111   6.545 -0.3150  0.1605  0.0467
 1151DPPI   GL216916  11.612  13.002   6.610  0.0508  0.2463 -0.0505
 1151DPPI   C1A16917  11.781  13.114   7.042 -0.1255  0.0566  0.0952
 1151DPPI   C2A16918  11.717  13.048   7.487 -0.0102  0.1044 -0.1934
 1151DPPI   C3A16919  11.796  13.042   7.978  0.1613 -0.2202 -0.0859
 1151DPPI   C4A16920  11.901  13.097   8.465  0.0556 -0.2537  0.0400
 1151DPPI   C1B16921  11.535  12.713   6.751 -0.0663 -0.0176  0.1642
 1151DPPI   C2B16922  11.510  12.608   7.248 -0.2477 -0.0672 -0.4530
 1151DPPI   C3B16923  11.522  12.584   7.665  0.1684 -0.0350 -0.3684
 1151DPPI   C4B16924  11.622  12.577   8.022  0.1806  0.2487 -0.4199
 1152DPPI    C116925   2.840   2.380   6.394 -0.0641 -0.1054  0.1145
 1152DPPI    C216926   3.058   2.106   6.200 -0.0387  0.1263 -0.1934
 1152DPPI    C316927   2.723   2.248   6.035 -0.2269  0.0456  0.1106
 1152DPPI   PO416928   2.808   2.285   6.640 -0.2729  0.1594  0.3880
 1152DPPI   GL116929   2.725   2.117   6.973 -0.2191 -0.1542  0.1280
 1152DPPI   GL216930   3.037   1.916   7.068 -0.2480 -0.2586 -0.4977
 1152DPPI   C1A16931   2.513   2.078   7.367  0.1808  0.1230 -0.0493
 1152DPPI   C2A16932   2.547   2.058   7.757 -0.0251 -0.0276  0.1596
 1152DPPI   C3A16933   2.538   2.146   8.153 -0.0431 -0.2509  0.1391
 1152DPPI   C4A16934   2.683   2.153   8.619  0.0885  0.1454 -0.2765
 1152DPPI   C1B16935   2.986   2.077   7.534 -0.0302  0.1491  0.2045
 1152DPPI   C2B16936   3.091   2.080   7.988  0.3124 -0.2535 -0.3278
 1152DPPI   C3B16937   3.122   2.115   8.418 -0.0693 -0.1055 -0.1507
 1152DPPI   C4B16938   3.257   2.074   8.812 -0.2988  0.1654 -0.0998
 1153DPPI    C116939   5.964  12.785   6.159 -0.2207  0.0360  0.2054
 1153DPPI    C216940   5.740  13.064   5.980 -0.2390 -0.0051  0.1637
 1153DPPI    C316941   6.122  13.014   5.872 -0.2452 -0.0186  0.1478
 1153DPPI   PO416942   6.068  12.795   6.471  0.2397  0.4849 -0.1361
 1153DPPI   GL116943   6.013  12.605   6.861  0.0329 -0.2458  0.1676
 1153DPPI   GL216944   5.737  12.792   6.913 -0.2085  0.0349 -0.2588
 1153DPPI   C1A16945   6.236  12.852   7.182 -0.2715 -0.1754  0.0587
 1153DPPI   C2A16946   6.241  12.928   7.596 -0.1183 -0.1570 -0.2432
 1153DPPI   C3A16947   6.354  12.873   7.973  0.1988 -0.0332  0.0845
 1153DPPI   C4A16948   6.383  12.923   8.432 -0.0177 -0.0740 -0.1517
 1153DPPI   C1B16949   5.711  12.756   7.339  0.1773 -0.0021 -0.0323
 1153DPPI   C2B16950   5.741  12.876   7.784  0.0271  0.1666 -0.0380
 1153DPPI   C3B16951   5.895  12.815   8.169 -0.0409  0.4569  0.3537
 1153DPPI   C4B16952   5.902  12.895   8.636 -0.0851 -0.3559  0.1671
 1154DPPI    C116953   9.980   7.813   5.921 -0.0762 -0.2282 -0.1391
 1154DPPI    C216954   9.774   7.987   5.626  0.1345 -0.0235 -0.1681
 1154DPPI    C316955  10.162   8.071   5.676  0.1007 -0.0544  0.1685
 1154DPPI   PO416956   9.889   7.942   6.178  0.1457 -0.0593 -0.0318
 1154DPPI   GL116957   9.781   7.674   6.575  0.1884 -0.2862 -0.1815
 1154DPPI   GL216958   9.629   7.332   6.569  0.2040  0.1674  0.3319
 1154DPPI   C1A16959   9.697   7.656   7.013 -0.0386  0.0581 -0.1582
 1154DPPI   C2A16960   9.649   7.641   7.438  0.2012 -0.1609  0.3290
 1154DPPI   C3A16961   9.754   7.659   7.844  0.2417  0.1050  0.3746
 1154DPPI   C4A16962   9.816   7.606   8.266  0.3623 -0.1476  0.1764
 1154DPPI   C1B16963   9.437   7.134   6.840 -0.4080 -0.2816  0.3472
 1154DPPI   C2B16964   9.439   7.138   7.241  0.2355  0.0647  0.0431
 1154DPPI   C3B16965   9.439   7.191   7.675 -0.0202 -0.0183  0.1090
 1154DPPI   C4B16966   9.358   7.172   8.162  0.0974  0.0847 -0.0597
 1155DPPI    C116967  14.927   3.452   6.672 -0.2324 -0.2753 -0.1958
 1155DPPI    C216968  14.958   3.344   6.288 -0.1227 -0.1050 -0.2360
 1155DPPI    C316969  14.902   3.728   6.384  0.1156 -0.1085 -0.0727
 1155DPPI   PO416970  14.799   3.189   6.809 -0.1842  0.1102  0.0817
 1155DPPI   GL116971  14.523   3.238   7.226 -0.0314 -0.0770 -0.1512
 1155DPPI   GL216972  14.240   3.319   7.196 -0.1122 -0.1385 -0.0027
 1155DPPI   C1A16973  14.557   3.259   7.699  0.0986  0.0557 -0.2760
 1155DPPI   C2A16974  14.492   3.304   8.165  0.0956  0.1286 -0.1395
 1155DPPI   C3A16975  14.821   3.375   8.448 -0.2810 -0.1311  0.0898
 1155DPPI   C4A16976  15.242   3.271   8.464  0.0267  0.2051 -0.1365
 1155DPPI   C1B16977  14.055   3.141   7.555 -0.0431  0.0205 -0.1310
 1155DPPI   C2B16978  14.051   3.218   7.956 -0.0270  0.0118  0.0229
 1155DPPI   C3B16979  14.055   3.306   8.402 -0.2575  0.0194  0.0146
 1155DPPI   C4B16980  13.943   3.048   8.728 -0.0633 -0.0656 -0.1247
 1156DPPI    C116981   3.634   4.173   6.571  0.1124 -0.3337 -0.0493
 1156DPPI    C216982   3.305   4.289   6.767  0.2140 -0.1442  0.0113
 1156DPPI    C316983   3.354   4.386   6.382  0.3252  0.0683  0.0774
 1156DPPI   PO416984   3.671   3.822   6.682 -0.1619 -0.1576 -0.1632
 1156DPPI   GL116985   3.476   3.788   7.021 -0.0921  0.1549  0.1282
 1156DPPI   GL216986   3.391   3.446   6.986 -0.2012  0.0601  0.4195
 1156DPPI   C1A16987   3.579   3.925   7.474  0.2233  0.0017  0.3418
 1156DPPI   C2A16988   3.542   3.897   7.909 -0.1206 -0.3612  0.0839
 1156DPPI   C3A16989   3.632   3.900   8.323  0.1623 -0.3003  0.0210
 1156DPPI   C4A16990   3.565   3.990   8.845 -0.1794 -0.1163 -0.1349
 1156DPPI   C1B16991   3.301   3.538   7.405  0.1168 -0.1284 -0.0167
 1156DPPI   C2B16992   3.277   3.454   7.854 -0.1994  0.0113  0.0378
 1156DPPI   C3B16993   3.265   3.483   8.271  0.0143 -0.4291 -0.1212
 1156DPPI   C4B16994   3.348   3.458   8.665 -0.2009  0.3406 -0.1845
 1157DPPI    C116995  15.386  16.665   6.084 -0.1440 -0.0662 -0.1041
 1157DPPI    C216996  15.076  16.570   5.851 -0.2715  0.0024  0.0356
 1157DPPI    C316997  15.302  16.887   5.762 -0.0827 -0.1972 -0.2111
 1157DPPI   PO416998  15.317  16.679   6.310 -0.1224  0.3408 -0.3170
 1157DPPI   GL116999  15.125  16.551   6.731 -0.1384 -0.0554  0.1216
 1157DPPI   GL217000  14.887  16.717   6.971 -0.0365  0.1583  0.0839
 1157DPPI   C1A17001  15.374  16.578   7.054  0.1549 -0.0678 -0.0628
 1157DPPI   C2A17002  15.408  16.647   7.578  0.1646 -0.1651 -0.1943
 1157DPPI   C3A17003  15.323  16.609   7.971 -0.0976  0.1850 -0.0501
 1157DPPI   C4A17004  15.488  16.311   8.219 -0.1329 -0.1791  0.1477
 1157DPPI   C1B17005  14.959  16.782   7.367 -0.0798 -0.1459  0.1075
 1157DPPI   C2B17006  14.917  16.805   7.790 -0.0264  0.0519 -0.1744
 1157DPPI   C3B17007  14.860  16.797   8.179  0.2021  0.0035 -0.0747
 1157DPPI   C4B17008  15.158  16.649   8.479  0.1964  0.0244  0.2501
 1158DPPI    C117009   6.749  12.555   6.145  0.1296  0.1807 -0.0413
 1158DPPI    C217010   6.354  12.523   6.090  0.1148  0.1142  0.1009
 1158DPPI    C317011   6.605  12.400   5.805  0.0359 -0.0639  0.1069
 1158DPPI   PO417012   6.932  12.645   6.354 -0.0585  0.0136  0.1141
 1158DPPI   GL117013   7.018  12.560   6.811  0.0401  0.1323  0.1841
 1158DPPI   GL217014   6.846  12.286   6.720  0.3063 -0.3247  0.1149
 1158DPPI   C1A17015   7.112  12.482   7.221  0.1287 -0.0272 -0.0786
 1158DPPI   C2A17016   7.142  12.564   7.583  0.0021 -0.2182  0.0643
 1158DPPI   C3A17017   7.132  12.568   7.944 -0.2616  0.1814 -0.1717
 1158DPPI   C4A17018   7.221  12.596   8.432  0.1916 -0.0538  0.0543
 1158DPPI   C1B17019   6.612  12.421   7.139 -0.1803  0.3468  0.1868
 1158DPPI   C2B17020   6.546  12.415   7.621  0.2074 -0.0088  0.0153
 1158DPPI   C3B17021   6.655  12.444   8.009 -0.1260 -0.1473 -0.2284
 1158DPPI   C4B17022   6.699  12.498   8.474 -0.1813  0.2381  0.1935
 1159DPPI    C117023   7.282   6.613   5.823  0.2179  0.1677 -0.0464
 1159DPPI    C217024   7.237   6.585   5.427 -0.1347  0.1265 -0.0071
 1159DPPI    C317025   6.916   6.575   5.665  0.0895 -0.0654  0.2944
 1159DPPI   PO417026   7.370   6.793   5.902 -0.0191  0.0349 -0.2140
 1159DPPI   GL117027   7.358   6.749   6.342 -0.2253 -0.0560 -0.1028
 1159DPPI   GL217028   7.548   7.078   6.451 -0.2624 -0.0499 -0.2495
 1159DPPI   C1A17029   7.143   6.657   6.805 -0.3331 -0.1324 -0.1429
 1159DPPI   C2A17030   7.153   6.722   7.268  0.1147  0.1434  0.2605
 1159DPPI   C3A17031   7.147   6.733   7.691  0.0283 -0.0155  0.0308
 1159DPPI   C4A17032   7.092   6.713   8.150  0.1418  0.1200 -0.1571
 1159DPPI   C1B17033   7.462   7.085   6.932  0.3404 -0.2490  0.0698
 1159DPPI   C2B17034   7.366   7.139   7.436  0.0516 -0.0094 -0.0966
 1159DPPI   C3B17035   7.313   7.208   7.899 -0.2361  0.1562  0.0356
 1159DPPI   C4B17036   7.282   7.144   8.391 -0.0045 -0.1122  0.1676
 1160DPPI    C117037   3.473  16.388   6.375  0.2148 -0.3025 -0.0496
 1160DPPI    C217038   3.286  16.088   6.188 -0.1964 -0.0167 -0.1097
 1160DPPI    C317039   3.558  16.307   5.993 -0.0792 -0.1888 -0.1417
 1160DPPI   PO417040   3.281  16.551   6.429  0.1857 -0.0966 -0.1629
 1160DPPI   GL117041   3.060  16.668   6.798 -0.3701  0.0103 -0.1608
 1160DPPI   GL217042   3.403  16.495   6.889  0.0794 -0.2279  0.0375
 1160DPPI   C1A17043   2.927  16.439   7.163  0.0243 -0.3539 -0.1691
 1160DPPI   C2A17044   2.935  16.489   7.523 -0.6908  0.1355  0.0426
 1160DPPI   C3A17045   2.961  16.470   7.894  0.0568  0.1938 -0.0429
 1160DPPI   C4A17046   2.844  16.384   8.239 -0.0173  0.0495 -0.4998
 1160DPPI   C1B17047   3.387  16.608   7.311  0.1710  0.0411  0.2893
 1160DPPI   C2B17048   3.415  16.638   7.703 -0.0931 -0.0258 -0.2920
 1160DPPI   C3B17049   3.355  16.536   8.182 -0.1367 -0.1862 -0.7186
 1160DPPI   C4B17050   3.141  16.513   8.653  0.1965  0.2509 -0.0574
 1161DPPI    C117051   5.950   6.812   5.955  0.0515 -0.1437  0.0339
 1161DPPI    C217052   5.626   6.727   5.736 -0.1658 -0.0794  0.3242
 1161DPPI    C317053   5.956   6.504   5.700 -0.1289  0.0479 -0.2066
 1161DPPI   PO417054   5.964   7.021   6.016 -0.1169  0.2275  0.0391
 1161DPPI   GL117055   6.165   7.239   6.320 -0.0566  0.4082  0.1154
 1161DPPI   GL217056   5.941   7.355   6.533  0.0771 -0.0513 -0.3486
 1161DPPI   C1A17057   6.330   7.102   6.779 -0.1417  0.2263  0.1472
 1161DPPI   C2A17058   6.351   7.079   7.266  0.1917 -0.1525  0.3256
 1161DPPI   C3A17059   6.318   7.135   7.674 -0.0900 -0.0052  0.0537
 1161DPPI   C4A17060   6.273   7.110   8.129 -0.0773 -0.1261 -0.0540
 1161DPPI   C1B17061   6.112   7.529   6.919 -0.3894  0.2303 -0.1048
 1161DPPI   C2B17062   6.107   7.488   7.372 -0.0312  0.0599 -0.0604
 1161DPPI   C3B17063   6.103   7.586   7.803 -0.2835 -0.0249 -0.4504
 1161DPPI   C4B17064   6.088   7.610   8.194  0.3726  0.1393  0.2103
 1162DPPI    C117065   9.770   9.965   5.989 -0.1196 -0.1940  0.0679
 1162DPPI    C217066  10.061  10.082   5.740 -0.0037  0.0317  0.3057
 1162DPPI    C317067   9.678  10.139   5.641  0.0417  0.1119  0.1751
 1162DPPI   PO417068   9.789  10.058   6.280 -0.2538 -0.2821 -0.1839
 1162DPPI   GL117069   9.591  10.359   6.519  0.2143 -0.1765 -0.1263
 1162DPPI   GL217070   9.443  10.074   6.633  0.1955 -0.4331 -0.0309
 1162DPPI   C1A17071   9.656  10.541   6.894  0.1591  0.0418 -0.4480
 1162DPPI   C2A17072   9.647  10.458   7.335 -0.3128  0.2394  0.0638
 1162DPPI   C3A17073   9.600  10.543   7.708  0.0166 -0.2669 -0.2542
 1162DPPI   C4A17074   9.515  10.642   8.074  0.0087 -0.1012 -0.2921
 1162DPPI   C1B17075   9.460  10.053   7.043 -0.0185  0.2418 -0.1278
 1162DPPI   C2B17076   9.449  10.043   7.479 -0.0846 -0.0562  0.0484
 1162DPPI   C3B17077   9.341  10.161   7.977 -0.1354 -0.2028  0.3147
 1162DPPI   C4B17078   9.305   9.922   8.376 -0.0624 -0.0685  0.0921
 1163DPPI    C117079   5.019   6.884   6.207  0.2392  0.4059  0.1419
 1163DPPI    C217080   5.196   7.057   5.893 -0.2111  0.2473 -0.2113
 1163DPPI    C317081   5.184   6.658   5.922 -0.1818  0.2607  0.0056
 1163DPPI   PO417082   5.127   6.975   6.411  0.1179  0.0014  0.1392
 1163DPPI   GL117083   5.104   6.856   6.816 -0.0688 -0.0268  0.2265
 1163DPPI   GL217084   5.000   6.608   6.892  0.2553 -0.3081 -0.1602
 1163DPPI   C1A17085   5.324   7.077   7.169 -0.2298  0.1426  0.0701
 1163DPPI   C2A17086   5.332   7.173   7.621 -0.3149  0.1365  0.0750
 1163DPPI   C3A17087   5.332   7.205   8.084  0.0245 -0.1365 -0.1816
 1163DPPI   C4A17088   5.272   7.201   8.557 -0.1290 -0.0639 -0.1879
 1163DPPI   C1B17089   5.052   6.671   7.286  0.0270 -0.3318  0.0486
 1163DPPI   C2B17090   5.015   6.662   7.768  0.0471  0.0074  0.1509
 1163DPPI   C3B17091   4.919   6.705   8.295  0.0503  0.0236  0.0296
 1163DPPI   C4B17092   4.993   6.649   8.800  0.3496  0.2403 -0.3098
 1164DPPI    C117093   4.448  16.040   6.456 -0.3760 -0.0671 -0.0128
 1164DPPI    C217094   4.378  15.711   6.240  0.0134 -0.2507  0.1306
 1164DPPI    C317095   4.735  15.765   6.411 -0.0872  0.1905  0.2131
 1164DPPI   PO417096   4.264  16.044   6.597 -0.0941 -0.0003  0.0022
 1164DPPI   GL117097   4.127  15.980   6.963 -0.3892 -0.0205 -0.1681
 1164DPPI   GL217098   4.229  16.283   7.024  0.2140  0.2525 -0.1596
 1164DPPI   C1A17099   4.023  15.856   7.384  0.0892 -0.1344  0.1539
 1164DPPI   C2A17100   3.910  15.753   7.871  0.2760 -0.0180 -0.1326
 1164DPPI   C3A17101   3.965  15.769   8.306  0.1052 -0.1370  0.1106
 1164DPPI   C4A17102   4.184  16.055   8.581  0.0239  0.0412  0.1276
 1164DPPI   C1B17103   4.194  16.295   7.497 -0.0179 -0.2982 -0.0077
 1164DPPI   C2B17104   4.089  16.285   7.888 -0.4288  0.3338 -0.0558
 1164DPPI   C3B17105   4.306  16.447   8.284  0.2883  0.0126 -0.0243
 1164DPPI   C4B17106   4.141  16.689   8.600 -0.0375  0.1710 -0.0850
 1165DPPI    C117107   2.148  16.581   6.261  0.0514 -0.1301 -0.2596
 1165DPPI    C217108   2.181  16.879   5.996  0.0932 -0.0001 -0.1106
 1165DPPI    C317109   1.832  16.687   6.040  0.0078  0.1649 -0.0615
 1165DPPI   PO417110   2.320  16.717   6.532  0.0728 -0.4475  0.0928
 1165DPPI   GL117111   2.532  16.695   6.935 -0.0808  0.0688  0.1318
 1165DPPI   GL217112   2.361  16.401   6.999 -0.1091  0.2615  0.0452
 1165DPPI   C1A17113   2.546  16.778   7.417  0.1467 -0.0998  0.0123
 1165DPPI   C2A17114   2.546  16.890   7.940 -0.3795  0.0474 -0.3765
 1165DPPI   C3A17115   2.519  16.800   8.306  0.1915  0.0409 -0.1281
 1165DPPI   C4A17116   2.651  16.524   8.744 -0.1520 -0.0962 -0.1427
 1165DPPI   C1B17117   2.335  16.384   7.437  0.0777  0.1202 -0.3546
 1165DPPI   C2B17118   2.438  16.427   7.859 -0.0668 -0.0038  0.0032
 1165DPPI   C3B17119   2.312  16.383   8.314  0.1095 -0.1628 -0.0284
 1165DPPI   C4B17120   2.167  16.379   8.713  0.2305  0.1040 -0.1431
 1166DPPI    C117121  14.982  12.701   6.143  0.1443  0.2524  0.0244
 1166DPPI    C217122  14.735  12.404   6.040  0.0632  0.3243  0.0110
 1166DPPI    C317123  14.886  12.645   5.759  0.0372  0.3673  0.0339
 1166DPPI   PO417124  15.082  12.548   6.344 -0.0959  0.1874 -0.0807
 1166DPPI   GL117125  15.068  12.667   6.762  0.0032  0.1565  0.1177
 1166DPPI   GL217126  15.239  12.977   6.762 -0.1200 -0.0788  0.2412
 1166DPPI   C1A17127  15.140  12.603   7.217  0.0717 -0.0367  0.0304
 1166DPPI   C2A17128  15.082  12.663   7.635 -0.1222  0.0643  0.0850
 1166DPPI   C3A17129  15.037  12.602   8.037  0.2059 -0.3659 -0.1803
 1166DPPI   C4A17130  15.039  12.707   8.507 -0.0738  0.1968  0.1821
 1166DPPI   C1B17131  15.295  13.142   7.207  0.0582 -0.2836 -0.0490
 1166DPPI   C2B17132  15.316  13.122   7.724 -0.0399 -0.0624 -0.0108
 1166DPPI   C3B17133  15.263  13.124   8.229  0.0739 -0.1413 -0.3252
 1166DPPI   C4B17134  15.013  13.282   8.612  0.0894 -0.1390  0.0174
 1167DPPI    C117135  16.674   2.701   6.726  0.1792 -0.1498  0.0424
 1167DPPI    C217136  16.736   2.309   6.683  0.2990 -0.1147 -0.1145
 1167DPPI    C317137  16.857   2.563   6.399  0.5061  0.0650  0.1289
 1167DPPI   PO417138  16.588   2.769   6.938  0.0157  0.0192  0.4343
 1167DPPI   GL117139  16.366   2.733   7.230 -0.1245  0.0336  0.3293
 1167DPPI   GL217140  15.970   2.663   7.269 -0.1431 -0.1589 -0.3030
 1167DPPI   C1A17141  16.462   2.772   7.631  0.0104  0.1269 -0.2244
 1167DPPI   C2A17142  16.467   2.761   8.049 -0.1416 -0.3844  0.1928
 1167DPPI   C3A17143  16.629   2.968   8.428 -0.2254  0.0667 -0.1052
 1167DPPI   C4A17144  16.862   3.327   8.610  0.2967 -0.1742 -0.0678
 1167DPPI   C1B17145  15.973   2.604   7.702 -0.2601 -0.1189 -0.1943
 1167DPPI   C2B17146  15.914   2.479   8.107 -0.0592 -0.1109  0.2881
 1167DPPI   C3B17147  15.847   2.371   8.582  0.1863 -0.5495 -0.2027
 1167DPPI   C4B17148  15.944   2.202   9.052 -0.3187  0.2745 -0.0991
 1168DPPI    C117149  16.742   4.598   6.492  0.0770  0.1917 -0.0342
 1168DPPI    C217150  16.528   4.401   6.217  0.2974 -0.2035  0.0701
 1168DPPI    C317151  16.615   4.788   6.163 -0.1789 -0.1154 -0.1179
 1168DPPI   PO417152  16.628   4.359   6.712 -0.1384  0.0766  0.0414
 1168DPPI   GL117153  16.653   4.273   7.154 -0.0083  0.1099  0.0946
 1168DPPI   GL217154  16.926   4.379   7.257  0.4118 -0.0143  0.0626
 1168DPPI   C1A17155  16.588   4.166   7.627  0.1828 -0.1187  0.1201
 1168DPPI   C2A17156  16.691   4.173   8.057 -0.1335  0.1133 -0.0919
 1168DPPI   C3A17157  16.922   4.195   8.423 -0.0236 -0.1684  0.2499
 1168DPPI   C4A17158  17.217   4.245   8.695  0.2295 -0.1616 -0.1384
 1168DPPI   C1B17159  17.044   4.527   7.702  0.3249  0.1129  0.2586
 1168DPPI   C2B17160  17.140   4.499   8.127  0.0202  0.1302 -0.3869
 1168DPPI   C3B17161  16.978   4.687   8.609  0.1351  0.1382 -0.0157
 1168DPPI   C4B17162  16.943   4.649   9.147 -0.4707 -0.0492 -0.0378
 1169DPPI    C117163   3.615   6.531   5.986 -0.0569 -0.1631  0.2090
 1169DPPI    C217164   3.588   6.262   5.691 -0.0752  0.1279 -0.0605
 1169DPPI    C317165   3.265   6.469   5.803 -0.1308 -0.1696  0.3517
 1169DPPI   PO417166   3.727   6.309   6.218 -0.2877  0.2042 -0.0810
 1169DPPI   GL117167   3.574   6.368   6.639 -0.0104  0.0166  0.0491
 1169DPPI   GL217168   3.680   6.157   6.823  0.4248 -0.1017  0.0047
 1169DPPI   C1A17169   3.892   6.621   6.957  0.0547 -0.1081 -0.1427
 1169DPPI   C2A17170   3.992   6.563   7.406 -0.1512 -0.0789 -0.1181
 1169DPPI   C3A17171   3.978   6.640   7.869  0.1274 -0.1021  0.0219
 1169DPPI   C4A17172   3.888   6.682   8.406 -0.0974  0.0065  0.4249
 1169DPPI   C1B17173   3.732   6.090   7.321  0.0082  0.0633  0.0875
 1169DPPI   C2B17174   3.682   6.200   7.769  0.1216 -0.0511  0.2082
 1169DPPI   C3B17175   3.732   6.143   8.218 -0.1517 -0.1107  0.0227
 1169DPPI   C4B17176   3.780   6.248   8.632  0.2324 -0.0950 -0.2920
 1170DPPI    C117177  12.967  12.699   6.014 -0.2542  0.0494  0.1374
 1170DPPI    C217178  12.833  12.969   5.751 -0.0825  0.0354  0.0332
 1170DPPI    C317179  13.097  12.692   5.635 -0.0040  0.0300  0.2217
 1170DPPI   PO417180  12.896  12.833   6.272  0.2770 -0.1973  0.2687
 1170DPPI   GL117181  12.885  13.115   6.633 -0.4970  0.1133 -0.0304
 1170DPPI   GL217182  13.148  12.967   6.696  0.2165  0.1239  0.2766
 1170DPPI   C1A17183  12.770  13.153   7.095 -0.1880  0.0840  0.0440
 1170DPPI   C2A17184  12.729  13.222   7.645  0.1211 -0.0609 -0.0269
 1170DPPI   C3A17185  12.776  13.259   8.057  0.1522 -0.3450 -0.0169
 1170DPPI   C4A17186  12.818  13.143   8.386  0.0170 -0.1186 -0.1674
 1170DPPI   C1B17187  13.168  12.810   7.011 -0.0392  0.0459 -0.0315
 1170DPPI   C2B17188  13.126  12.943   7.354 -0.3934  0.0637 -0.3571
 1170DPPI   C3B17189  13.098  12.804   7.725  0.0097  0.1016  0.1364
 1170DPPI   C4B17190  13.069  12.746   8.105  0.3732 -0.5878  0.0008
 1171DPPI    C117191   4.123  14.890   6.151 -0.1854 -0.0214  0.0370
 1171DPPI    C217192   4.014  14.847   5.768  0.1575  0.0427 -0.0712
 1171DPPI    C317193   4.284  14.599   5.928 -0.1420 -0.1189  0.1943
 1171DPPI   PO417194   3.884  14.886   6.274 -0.1472  0.1276  0.3187
 1171DPPI   GL117195   3.829  14.682   6.664 -0.1963 -0.1590 -0.1448
 1171DPPI   GL217196   4.029  14.513   6.877  0.0048  0.1342 -0.0545
 1171DPPI   C1A17197   3.644  14.865   6.974  0.3087 -0.1158  0.5528
 1171DPPI   C2A17198   3.603  14.958   7.236  0.0766  0.0400  0.1802
 1171DPPI   C3A17199   3.637  14.834   7.693  0.0899 -0.3075 -0.3868
 1171DPPI   C4A17200   3.710  14.776   8.145 -0.0914  0.0519 -0.2608
 1171DPPI   C1B17201   3.915  14.509   7.259  0.0008  0.1467  0.3228
 1171DPPI   C2B17202   3.981  14.501   7.725  0.1508  0.0638  0.0100
 1171DPPI   C3B17203   4.068  14.281   8.115  0.1784 -0.3375 -0.1571
 1171DPPI   C4B17204   4.145  14.554   8.531 -0.2488  0.2754  0.0714
 1172DPPI    C117205  13.826   9.952   6.071  0.1027  0.0008  0.1823
 1172DPPI    C217206  13.847   9.653   5.806 -0.0241  0.1108  0.0464
 1172DPPI    C317207  14.166   9.745   6.029  0.0675 -0.0166 -0.0306
 1172DPPI   PO417208  13.600   9.970   6.206 -0.4976  0.1005 -0.1568
 1172DPPI   GL117209  13.744  10.092   6.564  0.0638  0.2281  0.0683
 1172DPPI   GL217210  14.093  10.090   6.437 -0.0761 -0.0621 -0.1692
 1172DPPI   C1A17211  13.572  10.101   6.977 -0.1398 -0.3192  0.0189
 1172DPPI   C2A17212  13.563  10.088   7.474 -0.0915  0.1614  0.0314
 1172DPPI   C3A17213  13.443  10.168   7.951 -0.1752 -0.1135  0.0119
 1172DPPI   C4A17214  13.597  10.427   8.411  0.3888  0.1150  0.0623
 1172DPPI   C1B17215  14.137  10.133   6.980  0.0885 -0.1207  0.1687
 1172DPPI   C2B17216  14.049  10.107   7.355  0.0980  0.0292  0.0367
 1172DPPI   C3B17217  13.958  10.219   7.752 -0.0287 -0.0733  0.0421
 1172DPPI   C4B17218  14.122  10.256   8.190  0.1474 -0.0326 -0.1179
 1173DPPI    C117219   7.593  14.292   5.949 -0.1345  0.0327  0.0021
 1173DPPI    C217220   7.809  14.561   5.747 -0.3926  0.3041  0.0799
 1173DPPI    C317221   7.724  14.206   5.581  0.0188  0.2340  0.0083
 1173DPPI   PO417222   7.487  14.426   6.151  0.0853  0.1161  0.1026
 1173DPPI   GL117223   7.281  14.268   6.479 -0.2025  0.0392  0.1668
 1173DPPI   GL217224   7.431  13.951   6.544 -0.0973 -0.2026  0.0856
 1173DPPI   C1A17225   7.391  14.383   6.917  0.1513 -0.0584 -0.1194
 1173DPPI   C2A17226   7.355  14.428   7.255 -0.0635  0.0649 -0.0727
 1173DPPI   C3A17227   7.482  14.426   7.736 -0.0210 -0.1436 -0.1666
 1173DPPI   C4A17228   7.392  14.437   8.198  0.1294  0.0685 -0.1658
 1173DPPI   C1B17229   7.571  13.971   7.018 -0.2030  0.3643  0.0215
 1173DPPI   C2B17230   7.678  14.018   7.461 -0.4429 -0.1387  0.2220
 1173DPPI   C3B17231   7.729  14.034   7.886  0.2556  0.1323 -0.2023
 1173DPPI   C4B17232   7.763  14.094   8.310 -0.1219 -0.0421  0.0980
 1174DPPI    C117233   0.828  12.628   6.235  0.0587  0.0752 -0.0437
 1174DPPI    C217234   1.018  12.696   5.890 -0.0316  0.0912 -0.0906
 1174DPPI    C317235   0.972  12.321   6.023  0.0577  0.0893 -0.0648
 1174DPPI   PO417236   0.813  12.805   6.355  0.0299  0.4516 -0.0354
 1174DPPI   GL117237   0.648  13.035   6.735 -0.2381  0.2132  0.0307
 1174DPPI   GL217238   0.759  13.286   6.686  0.1507  0.1510 -0.0817
 1174DPPI   C1A17239   0.484  12.998   7.199  0.0070 -0.2641  0.1535
 1174DPPI   C2A17240   0.432  12.932   7.622  0.0286  0.0288 -0.0481
 1174DPPI   C3A17241   0.482  12.925   8.156  0.0350 -0.0633 -0.0023
 1174DPPI   C4A17242   0.583  12.959   8.668 -0.0290  0.0659 -0.0557
 1174DPPI   C1B17243   0.628  13.453   7.117 -0.0000 -0.1039  0.0490
 1174DPPI   C2B17244   0.594  13.521   7.512  0.1999 -0.0768  0.3071
 1174DPPI   C3B17245   0.628  13.324   7.892  0.1808  0.0215 -0.0537
 1174DPPI   C4B17246   0.699  13.347   8.335 -0.1755 -0.1963  0.1643
 1175DPPI    C117247  11.689  16.087   6.065  0.0973  0.1045 -0.1433
 1175DPPI    C217248  11.378  16.269   5.891 -0.1774 -0.1414  0.0801
 1175DPPI    C317249  11.623  16.040   5.673  0.0535  0.3216 -0.1636
 1175DPPI   PO417250  11.634  15.939   6.263  0.0940  0.0087 -0.1040
 1175DPPI   GL117251  11.600  15.875   6.689 -0.1187 -0.0417 -0.0669
 1175DPPI   GL217252  11.742  16.204   6.753 -0.1647 -0.0559 -0.1270
 1175DPPI   C1A17253  11.429  15.707   7.024  0.3538 -0.3226  0.0813
 1175DPPI   C2A17254  11.457  15.709   7.543 -0.2929  0.1140 -0.3847
 1175DPPI   C3A17255  11.354  15.669   8.067 -0.4492 -0.0357  0.1081
 1175DPPI   C4A17256  11.286  15.659   8.513  0.0181  0.1059  0.0533
 1175DPPI   C1B17257  11.703  16.133   7.254 -0.0851 -0.0161  0.0639
 1175DPPI   C2B17258  11.725  16.232   7.765  0.2871 -0.0909 -0.0686
 1175DPPI   C3B17259  11.565  16.231   8.193 -0.2021 -0.0320  0.1595
 1175DPPI   C4B17260  11.275  16.292   8.598 -0.0123  0.0973  0.4436
 1176DPPI    C117261   7.420   1.014   5.842 -0.1116  0.0024 -0.0555
 1176DPPI    C217262   7.636   1.255   5.608 -0.0867  0.0412  0.0072
 1176DPPI    C317263   7.300   1.089   5.468 -0.0000 -0.0448 -0.1011
 1176DPPI   PO417264   7.332   1.109   6.073  0.2039  0.0746  0.0399
 1176DPPI   GL117265   7.421   1.143   6.469  0.2305  0.0197 -0.3731
 1176DPPI   GL217266   7.739   1.164   6.604 -0.1123 -0.2533 -0.3731
 1176DPPI   C1A17267   7.242   1.302   6.893 -0.0196  0.2303  0.3950
 1176DPPI   C2A17268   7.300   1.373   7.316 -0.1555  0.1617 -0.0666
 1176DPPI   C3A17269   7.345   1.366   7.724 -0.1859  0.0068 -0.0675
 1176DPPI   C4A17270   7.257   1.322   8.139 -0.1179  0.0761  0.0772
 1176DPPI   C1B17271   7.710   1.267   7.062 -0.1344  0.1606  0.1481
 1176DPPI   C2B17272   7.799   1.325   7.582  0.0527  0.0589 -0.0090
 1176DPPI   C3B17273   7.783   1.374   8.107  0.0204 -0.0278 -0.2576
 1176DPPI   C4B17274   7.877   1.407   8.528 -0.3174 -0.0093  0.0021
 1177DPPI    C117275  11.448  12.471   5.721 -0.1768 -0.0001  0.0999
 1177DPPI    C217276  11.723  12.267   5.514 -0.0543 -0.1322  0.3869
 1177DPPI    C317277  11.334  12.191   5.459 -0.0538  0.2199 -0.1950
 1177DPPI   PO417278  11.515  12.432   6.057  0.1807 -0.0922 -0.1619
 1177DPPI   GL117279  11.171  12.695   6.449 -0.1240 -0.0826  0.0541
 1177DPPI   GL217280  11.117  13.007   6.556  0.0549 -0.3354  0.0746
 1177DPPI   C1A17281  10.955  12.664   6.831 -0.0372  0.1276  0.0439
 1177DPPI   C2A17282  10.928  12.555   7.269 -0.0125 -0.2239 -0.1982
 1177DPPI   C3A17283  11.017  12.483   7.681 -0.2206  0.2954 -0.0341
 1177DPPI   C4A17284  11.041  12.544   8.098  0.0901 -0.2108  0.0131
 1177DPPI   C1B17285  11.231  13.021   7.014 -0.3475 -0.0052  0.1809
 1177DPPI   C2B17286  11.203  12.987   7.494  0.1946 -0.0082  0.0076
 1177DPPI   C3B17287  11.312  12.961   7.937 -0.0929 -0.2698 -0.0257
 1177DPPI   C4B17288  11.305  12.978   8.409  0.1340  0.0668 -0.2286
 1178DPPI    C117289  14.086   8.272   5.783 -0.0677  0.2691 -0.1637
 1178DPPI    C217290  13.744   8.141   5.623  0.1268 -0.2396 -0.1825
 1178DPPI    C317291  14.093   8.033   5.462  0.3057  0.0002  0.0363
 1178DPPI   PO417292  14.011   8.282   6.094 -0.0816 -0.1129  0.1866
 1178DPPI   GL117293  13.918   8.385   6.472  0.2516 -0.0332 -0.0928
 1178DPPI   GL217294  13.742   8.198   6.629 -0.0358 -0.0714 -0.4586
 1178DPPI   C1A17295  14.046   8.668   6.806  0.0524  0.0234 -0.0262
 1178DPPI   C2A17296  14.017   8.784   7.160  0.0400 -0.0072 -0.0959
 1178DPPI   C3A17297  13.960   8.867   7.641 -0.0213  0.0637  0.1659
 1178DPPI   C4A17298  14.011   8.905   8.104  0.3072 -0.0902 -0.0165
 1178DPPI   C1B17299  13.822   8.113   7.148 -0.1177 -0.1564  0.1091
 1178DPPI   C2B17300  13.924   8.028   7.681  0.4209 -0.0367  0.2202
 1178DPPI   C3B17301  13.881   7.845   8.128  0.3410 -0.2368 -0.0687
 1178DPPI   C4B17302  13.994   8.074   8.448 -0.1527 -0.0177  0.0319
 1179DPPI    C117303  13.905   9.172   5.923  0.0855  0.2032 -0.0755
 1179DPPI    C217304  14.205   9.311   5.699  0.1028 -0.1234 -0.2612
 1179DPPI    C317305  13.872   9.175   5.524 -0.0896  0.0858 -0.0633
 1179DPPI   PO417306  14.006   9.291   6.167 -0.1549  0.1521 -0.2269
 1179DPPI   GL117307  13.847   9.568   6.547 -0.1844 -0.0846  0.2039
 1179DPPI   GL217308  14.161   9.668   6.676  0.0210  0.3129  0.1326
 1179DPPI   C1A17309  13.847   9.675   7.031  0.0002  0.2273  0.0628
 1179DPPI   C2A17310  13.863   9.676   7.438 -0.3309 -0.1280  0.3339
 1179DPPI   C3A17311  13.781   9.706   7.823 -0.2946 -0.4236 -0.0735
 1179DPPI   C4A17312  13.769   9.926   8.220 -0.1622  0.0002  0.0526
 1179DPPI   C1B17313  14.384   9.713   7.125  0.3283  0.3081  0.0199
 1179DPPI   C2B17314  14.329   9.795   7.601  0.2094 -0.0992 -0.2135
 1179DPPI   C3B17315  14.419   9.907   8.041 -0.0770  0.0476 -0.2237
 1179DPPI   C4B17316  14.260   9.876   8.486 -0.2829  0.1460  0.2386
 1180DPPI    C117317  11.559   6.523   6.017  0.1497 -0.2433  0.0319
 1180DPPI    C217318  11.543   6.804   5.734  0.1260 -0.3784 -0.1020
 1180DPPI    C317319  11.212   6.703   5.933  0.2140 -0.0182  0.2387
 1180DPPI   PO417320  11.691   6.536   6.180 -0.2438 -0.0937  0.0869
 1180DPPI   GL117321  11.635   6.547   6.598  0.0992 -0.0821 -0.0256
 1180DPPI   GL217322  11.782   6.212   6.748  0.2062 -0.0862  0.1303
 1180DPPI   C1A17323  11.391   6.697   6.793  0.2027  0.2042 -0.3764
 1180DPPI   C2A17324  11.303   6.768   7.230 -0.0341  0.0714  0.3206
 1180DPPI   C3A17325  11.376   6.806   7.709  0.0701  0.0050 -0.0058
 1180DPPI   C4A17326  11.392   6.879   8.140  0.0297  0.0550  0.0603
 1180DPPI   C1B17327  11.603   6.302   7.118 -0.2442  0.0688 -0.2246
 1180DPPI   C2B17328  11.529   6.379   7.524  0.2970 -0.2215 -0.3264
 1180DPPI   C3B17329  11.637   6.314   7.917 -0.1798 -0.2142  0.0851
 1180DPPI   C4B17330  11.685   6.455   8.268  0.0965 -0.1792  0.0059
 1181DPPI    C117331  10.643  16.221   5.856 -0.0084  0.0517 -0.0270
 1181DPPI    C217332  10.441  16.246   6.200 -0.1558 -0.0153 -0.1077
 1181DPPI    C317333  10.378  16.515   5.911 -0.0438  0.0316 -0.0893
 1181DPPI   PO417334  10.890  16.101   5.919  0.1302 -0.2028  0.0036
 1181DPPI   GL117335  10.948  16.175   6.294 -0.2581  0.2636 -0.1691
 1181DPPI   GL217336  11.150  16.383   6.395  0.0633  0.3862 -0.1985
 1181DPPI   C1A17337  10.637  16.229   6.630  0.0581  0.3238 -0.0296
 1181DPPI   C2A17338  10.682  16.194   7.035  0.2140  0.1807  0.2580
 1181DPPI   C3A17339  10.721  16.129   7.484 -0.1525  0.1447 -0.0878
 1181DPPI   C4A17340  10.574  16.014   7.891  0.1091 -0.1067 -0.1091
 1181DPPI   C1B17341  11.225  16.209   6.863 -0.2147  0.1317 -0.0746
 1181DPPI   C2B17342  11.194  16.067   7.289  0.0443 -0.1189 -0.1125
 1181DPPI   C3B17343  11.202  16.097   7.750  0.0649 -0.2535  0.2336
 1181DPPI   C4B17344  10.932  16.289   8.144 -0.0875  0.0719  0.2739
 1182DPPI    C117345  11.629   9.346   6.147  0.1392  0.0396 -0.0517
 1182DPPI    C217346  11.395   9.483   5.854 -0.0866 -0.0229  0.0971
 1182DPPI    C317347  11.662   9.196   5.778  0.0225  0.1279 -0.0988
 1182DPPI   PO417348  11.571   9.507   6.314  0.0938 -0.0742 -0.1603
 1182DPPI   GL117349  11.265   9.567   6.654  0.4230 -0.0563  0.1092
 1182DPPI   GL217350  11.262   9.884   6.610 -0.0659 -0.0014 -0.2601
 1182DPPI   C1A17351  11.223   9.480   7.110 -0.1400  0.0534  0.0608
 1182DPPI   C2A17352  11.198   9.453   7.623 -0.0814  0.0282 -0.2158
 1182DPPI   C3A17353  11.157   9.429   8.111 -0.4506 -0.1283  0.0405
 1182DPPI   C4A17354  11.316   9.452   8.483 -0.0110  0.2625  0.0979
 1182DPPI   C1B17355  11.429  10.013   6.937  0.2999  0.1774 -0.2106
 1182DPPI   C2B17356  11.440   9.971   7.364  0.0958  0.4242 -0.2223
 1182DPPI   C3B17357  11.342   9.936   7.812 -0.2284  0.2941  0.1697
 1182DPPI   C4B17358  11.435   9.955   8.310  0.2535 -0.0106  0.3731
 1183DPPI    C117359   0.075   6.884   6.201 -0.2357 -0.1990  0.0822
 1183DPPI    C217360   0.426   6.714   6.293 -0.1058 -0.0395 -0.1112
 1183DPPI    C317361   0.239   6.616   5.953 -0.1026  0.0942 -0.1520
 1183DPPI   PO417362  -0.110   6.833   6.424 -0.0079  0.4108  0.0148
 1183DPPI   GL117363   0.096   6.654   6.738  0.1379  0.2674 -0.2346
 1183DPPI   GL217364   0.225   6.924   6.810 -0.0682  0.1239  0.1632
 1183DPPI   C1A17365   0.288   6.466   7.067 -0.2675 -0.3594 -0.1603
 1183DPPI   C2A17366   0.183   6.451   7.456  0.0411 -0.0145 -0.1155
 1183DPPI   C3A17367   0.261   6.517   7.903  0.4223  0.0571  0.2068
 1183DPPI   C4A17368   0.348   6.521   8.360 -0.0429  0.0874 -0.1393
 1183DPPI   C1B17369   0.056   6.886   7.314 -0.1074  0.3905 -0.0222
 1183DPPI   C2B17370  -0.011   6.947   7.754 -0.2493 -0.2169  0.0963
 1183DPPI   C3B17371   0.086   6.966   8.294  0.0294  0.1167 -0.0563
 1183DPPI   C4B17372   0.081   7.123   8.672  0.2480 -0.0889  0.1850
 1184DPPI    C117373  12.901   7.140   6.141 -0.0803  0.0842  0.0502
 1184DPPI    C217374  12.622   7.080   5.861  0.1073 -0.1481 -0.0917
 1184DPPI    C317375  12.906   7.356   5.804  0.0976 -0.1382 -0.0925
 1184DPPI   PO417376  12.795   7.211   6.394 -0.0944 -0.1292 -0.0292
 1184DPPI   GL117377  12.537   7.133   6.715  0.0342 -0.4266  0.3064
 1184DPPI   GL217378  12.711   7.293   6.887 -0.0660 -0.0427 -0.0364
 1184DPPI   C1A17379  12.184   7.301   6.987  0.3164 -0.0238  0.2474
 1184DPPI   C2A17380  12.097   7.289   7.401 -0.3990 -0.1050 -0.0459
 1184DPPI   C3A17381  12.065   7.304   7.828  0.0555 -0.1566 -0.2052
 1184DPPI   C4A17382  12.168   7.298   8.348  0.3381  0.0615 -0.1210
 1184DPPI   C1B17383  12.672   7.408   7.394 -0.0359 -0.4278 -0.1276
 1184DPPI   C2B17384  12.682   7.323   7.816 -0.1465  0.3017 -0.1647
 1184DPPI   C3B17385  12.704   7.337   8.298  0.0128 -0.3125  0.0374
 1184DPPI   C4B17386  12.569   7.102   8.661  0.2461 -0.0706 -0.2184
 1185DPPI    C117387   5.456   8.306   5.974 -0.0505 -0.3501 -0.0531
 1185DPPI    C217388   5.697   8.405   5.670  0.0859 -0.0019  0.1622
 1185DPPI    C317389   5.317   8.300   5.599  0.1410 -0.0097 -0.1336
 1185DPPI   PO417390   5.475   8.484   6.170 -0.1577  0.0921 -0.3338
 1185DPPI   GL117391   5.460   8.355   6.644 -0.2485  0.1826  0.0798
 1185DPPI   GL217392   5.123   8.385   6.713 -0.2106  0.2257  0.0419
 1185DPPI   C1A17393   5.537   8.497   7.017 -0.0122 -0.1550 -0.1102
 1185DPPI   C2A17394   5.446   8.494   7.345  0.1116 -0.2719 -0.0710
 1185DPPI   C3A17395   5.438   8.424   7.738  0.0213 -0.1558  0.0723
 1185DPPI   C4A17396   5.590   8.521   8.143 -0.1695 -0.3742 -0.0101
 1185DPPI   C1B17397   5.000   8.494   7.079  0.0081 -0.1286  0.0156
 1185DPPI   C2B17398   4.939   8.519   7.572  0.0060  0.0460 -0.2105
 1185DPPI   C3B17399   4.999   8.430   7.938  0.1188 -0.2387 -0.3397
 1185DPPI   C4B17400   4.966   8.425   8.399 -0.2009  0.0687 -0.2197
 1186DPPI    C117401  13.011   8.049   6.255  0.0163  0.3620  0.0187
 1186DPPI    C217402  12.845   7.875   5.936  0.0571  0.0498  0.1640
 1186DPPI    C317403  12.764   7.738   6.303  0.2045  0.2471  0.2721
 1186DPPI   PO417404  13.013   8.270   6.212  0.3199 -0.1536 -0.2086
 1186DPPI   GL117405  12.708   8.422   6.549 -0.0134  0.5414 -0.0566
 1186DPPI   GL217406  12.725   8.068   6.664  0.2707 -0.1047 -0.3961
 1186DPPI   C1A17407  12.780   8.524   6.972 -0.2371 -0.0349  0.0734
 1186DPPI   C2A17408  12.719   8.536   7.356  0.1170  0.0241  0.1156
 1186DPPI   C3A17409  12.784   8.711   7.651  0.1570 -0.0181 -0.3572
 1186DPPI   C4A17410  12.846   8.698   8.114 -0.2575  0.0977  0.1837
 1186DPPI   C1B17411  12.721   8.055   7.089  0.0469 -0.0427  0.0061
 1186DPPI   C2B17412  12.620   8.093   7.549  0.0194  0.0600 -0.0819
 1186DPPI   C3B17413  12.651   8.227   7.942 -0.2253  0.0138 -0.0288
 1186DPPI   C4B17414  12.698   8.337   8.425 -0.0785 -0.0269  0.0545
 1187PYPI    C117415  15.689   4.550   6.260  0.2349  0.3413 -0.1485
 1187PYPI    C217416  15.333   4.514   6.082  0.1561 -0.1461  0.0890
 1187PYPI    C317417  15.662   4.372   5.903  0.1839  0.0059  0.0179
 1187PYPI   PO417418  15.575   4.447   6.512 -0.3035  0.2176 -0.1309
 1187PYPI   GL117419  15.416   4.492   6.861 -0.2250  0.0346  0.1810
 1187PYPI   GL217420  15.248   4.364   7.041 -0.0489 -0.0157 -0.0300
 1187PYPI   C1A17421  15.426   4.613   7.423  0.0397  0.0398 -0.0170
 1187PYPI   C2A17422  15.410   4.634   7.831  0.0640  0.0809 -0.1401
 1187PYPI   D3A17423  15.461   4.607   8.250 -0.1116  0.1096 -0.3295
 1187PYPI   C4A17424  15.282   4.876   8.484 -0.0623 -0.0381  0.2742
 1187PYPI   C1B17425  14.948   4.547   7.302 -0.0032 -0.0988  0.0728
 1187PYPI   C2B17426  14.817   4.680   7.774 -0.1848  0.1232 -0.2298
 1187PYPI   C3B17427  14.901   4.626   8.287 -0.0525  0.0024  0.2163
 1187PYPI   C4B17428  15.030   4.475   8.715  0.2376  0.0463 -0.1245
 1188PYPI    C117429   4.470   6.864   6.131 -0.1245  0.2072  0.0088
 1188PYPI    C217430   4.414   6.775   5.745  0.1019 -0.0967  0.0424
 1188PYPI    C317431   4.696   7.038   5.850  0.0241  0.0041  0.0006
 1188PYPI   PO417432   4.356   6.877   6.240  0.3537 -0.1314  0.2334
 1188PYPI   GL117433   4.281   7.007   6.710  0.2367  0.1726 -0.0134
 1188PYPI   GL217434   4.638   7.031   6.654 -0.1161 -0.1119  0.1495
 1188PYPI   C1A17435   4.195   6.974   7.139 -0.1599  0.2714 -0.2795
 1188PYPI   C2A17436   4.245   7.072   7.568 -0.0751  0.3156 -0.0473
 1188PYPI   D3A17437   4.247   7.111   8.013  0.0044  0.1964  0.1216
 1188PYPI   C4A17438   4.234   7.068   8.422 -0.0749 -0.2902  0.0185
 1188PYPI   C1B17439   4.720   7.036   7.091  0.0168  0.0418  0.1689
 1188PYPI   C2B17440   4.748   7.044   7.518 -0.0774  0.0287 -0.0177
 1188PYPI   C3B17441   4.836   7.085   7.910  0.2309 -0.0001  0.0028
 1188PYPI   C4B17442   4.757   7.185   8.392 -0.1259  0.1285  0.0453
 1189PYPI    C117443  11.581   2.490   6.428  0.0243 -0.1419 -0.1647
 1189PYPI    C217444  11.194   2.586   6.408 -0.0317 -0.2885  0.1571
 1189PYPI    C317445  11.371   2.406   6.098 -0.1469  0.0358 -0.1027
 1189PYPI   PO417446  11.560   2.423   6.704 -0.0669  0.1267  0.1751
 1189PYPI   GL117447  11.466   2.192   7.074 -0.0913  0.1782 -0.1797
 1189PYPI   GL217448  11.866   2.301   7.021 -0.1910 -0.0612  0.1607
 1189PYPI   C1A17449  11.453   2.034   7.474 -0.0411  0.1138  0.0308
 1189PYPI   C2A17450  11.235   1.861   7.910 -0.2636  0.2241  0.0283
 1189PYPI   D3A17451  11.212   1.843   8.220 -0.1196 -0.1940 -0.0789
 1189PYPI   C4A17452  11.297   2.009   8.631  0.0890 -0.1219  0.1139
 1189PYPI   C1B17453  11.868   2.326   7.514  0.0822 -0.3573  0.1271
 1189PYPI   C2B17454  11.657   2.227   7.886  0.1036 -0.0571 -0.1028
 1189PYPI   C3B17455  11.628   2.252   8.361  0.5309 -0.1171 -0.2127
 1189PYPI   C4B17456  11.856   2.015   8.707 -0.2525  0.3329  0.1807
 1190PYPI    C117457   9.814   2.204   5.979 -0.1098 -0.0367 -0.0790
 1190PYPI    C217458   9.687   1.873   5.792  0.1532 -0.2919  0.1833
 1190PYPI    C317459  10.030   2.047   5.680 -0.0128 -0.0710  0.0086
 1190PYPI   PO417460   9.592   2.258   6.174  0.0242  0.1567 -0.1628
 1190PYPI   GL117461   9.403   2.138   6.514 -0.2423 -0.2014  0.0429
 1190PYPI   GL217462   9.594   2.292   6.734 -0.2544 -0.3212  0.1698
 1190PYPI   C1A17463   9.696   1.846   6.823 -0.0794 -0.1227  0.3052
 1190PYPI   C2A17464   9.799   1.732   7.216  0.1605 -0.1110 -0.3965
 1190PYPI   D3A17465   9.623   1.799   7.616  0.1339  0.0544 -0.1194
 1190PYPI   C4A17466   9.675   1.744   7.995  0.1400 -0.1169  0.1966
 1190PYPI   C1B17467   9.339   2.278   7.118 -0.1458  0.1397  0.2613
 1190PYPI   C2B17468   9.301   2.164   7.505 -0.3423 -0.0496 -0.3060
 1190PYPI   C3B17469   9.362   2.164   7.864 -0.1093 -0.0315 -0.1543
 1190PYPI   C4B17470   9.387   2.096   8.287  0.0281  0.0821 -0.5221
 1191PYPI    C117471   6.401   0.045   6.070  0.0318 -0.0610  0.0581
 1191PYPI    C217472   6.338  -0.294   5.866 -0.2388  0.0051  0.0283
 1191PYPI    C317473   6.031  -0.052   5.953 -0.0815  0.1283  0.2521
 1191PYPI   PO417474   6.491   0.061   6.272  0.0649  0.0625  0.0006
 1191PYPI   GL117475   6.502  -0.132   6.672 -0.1183  0.0122 -0.1449
 1191PYPI   GL217476   6.725  -0.424   6.695 -0.1285 -0.0069 -0.0602
 1191PYPI   C1A17477   6.554  -0.192   7.166  0.1797 -0.3480 -0.4078
 1191PYPI   C2A17478   6.523  -0.120   7.609 -0.2387 -0.2910 -0.2072
 1191PYPI   D3A17479   6.626  -0.122   7.999  0.1474 -0.3360  0.0503
 1191PYPI   C4A17480   6.454  -0.123   8.445  0.1627 -0.0543  0.0333
 1191PYPI   C1B17481   6.857  -0.576   7.085 -0.2806 -0.0163 -0.0452
 1191PYPI   C2B17482   6.894  -0.459   7.523  0.0849  0.1411 -0.0703
 1191PYPI   C3B17483   6.991  -0.594   7.915 -0.0139  0.1565  0.2260
 1191PYPI   C4B17484   6.803  -0.532   8.269  0.1179  0.0620 -0.3384
 1192PYPI    C117485  14.540   8.553   5.913  0.1486 -0.1862 -0.0384
 1192PYPI    C217486  14.873   8.733   6.044  0.1303 -0.2174  0.0518
 1192PYPI    C317487  14.863   8.573   5.677  0.1727 -0.1050  0.0010
 1192PYPI   PO417488  14.421   8.527   6.226  0.0642  0.1693  0.0257
 1192PYPI   GL117489  14.443   8.798   6.491  0.0648 -0.1362 -0.1197
 1192PYPI   GL217490  14.316   9.095   6.569 -0.2001  0.2788 -0.1077
 1192PYPI   C1A17491  14.511   8.788   6.977 -0.0159  0.0322 -0.0536
 1192PYPI   C2A17492  14.429   8.828   7.463 -0.0841  0.1484 -0.1754
 1192PYPI   D3A17493  14.415   8.967   7.801 -0.2767  0.3968 -0.1223
 1192PYPI   C4A17494  14.540   8.822   8.214  0.2955 -0.0478 -0.1887
 1192PYPI   C1B17495  14.186   9.225   6.952 -0.0433 -0.1533  0.2011
 1192PYPI   C2B17496  14.157   9.255   7.374  0.0876  0.1025 -0.0767
 1192PYPI   C3B17497  14.128   9.338   7.812 -0.0289  0.0288  0.0112
 1192PYPI   C4B17498  14.066   9.510   8.198 -0.1470 -0.0760 -0.0788
 1193PYPI    C117499  11.124  11.085   6.063  0.0076 -0.0752 -0.0362
 1193PYPI    C217500  10.778  11.071   5.863 -0.0814 -0.1053  0.1188
 1193PYPI    C317501  11.081  11.290   5.722 -0.1398 -0.1344 -0.0541
 1193PYPI   PO417502  11.012  11.155   6.331 -0.1311  0.0915  0.2473
 1193PYPI   GL117503  10.867  11.246   6.745 -0.0166  0.3498 -0.0265
 1193PYPI   GL217504  10.884  10.928   6.721  0.1348 -0.0438 -0.1640
 1193PYPI   C1A17505  10.930  11.273   7.132  0.0514  0.1576  0.0086
 1193PYPI   C2A17506  10.938  11.191   7.558 -0.0281  0.0566 -0.0152
 1193PYPI   D3A17507  11.001  11.163   7.906 -0.0459 -0.0078  0.0593
 1193PYPI   C4A17508  11.033  11.091   8.409  0.0797 -0.0368  0.1566
 1193PYPI   C1B17509  10.849  10.745   7.076  0.0119 -0.5228 -0.2721
 1193PYPI   C2B17510  10.748  10.743   7.516 -0.1294  0.0258  0.2539
 1193PYPI   C3B17511  10.664  10.807   7.896  0.2157 -0.0886 -0.1841
 1193PYPI   C4B17512  10.589  10.873   8.301 -0.1906 -0.0157 -0.1759
 1194PYPI    C117513   5.464  16.884   6.028  0.0029  0.0551  0.0027
 1194PYPI    C217514   5.243  16.553   6.063  0.1295 -0.0394 -0.0831
 1194PYPI    C317515   5.068  16.912   6.076 -0.0127 -0.1098 -0.0232
 1194PYPI   PO417516   5.685  16.829   6.281 -0.0229  0.0960  0.1601
 1194PYPI   GL117517   5.750  16.823   6.766 -0.1459  0.2341 -0.3961
 1194PYPI   GL217518   5.573  16.854   6.984  0.1567  0.2515  0.1617
 1194PYPI   C1A17519   6.080  16.936   6.984  0.1970 -0.0396 -0.0386
 1194PYPI   C2A17520   6.069  17.020   7.415  0.0594 -0.0130 -0.0012
 1194PYPI   D3A17521   6.101  17.069   7.883  0.1332  0.0439 -0.1286
 1194PYPI   C4A17522   5.999  17.117   8.205 -0.0186  0.1307 -0.3044
 1194PYPI   C1B17523   5.483  16.962   7.441  0.1017  0.1212 -0.1323
 1194PYPI   C2B17524   5.490  17.036   7.901 -0.0270  0.0281  0.0492
 1194PYPI   C3B17525   5.446  17.106   8.401 -0.2634 -0.0399  0.1082
 1194PYPI   C4B17526   5.103  17.226   8.750 -0.1532  0.0560 -0.1859
 1195PYPI    C117527   0.927   0.721   6.210  0.1515  0.0115 -0.1097
 1195PYPI    C217528   0.681   0.424   6.105  0.0077  0.0234  0.1826
 1195PYPI    C317529   0.532   0.785   6.191  0.1371  0.0585  0.2621
 1195PYPI   PO417530   1.033   0.651   6.430 -0.2191 -0.2875  0.0856
 1195PYPI   GL117531   1.334   0.546   6.781 -0.0807 -0.2620 -0.1271
 1195PYPI   GL217532   1.317   0.338   6.737  0.1633 -0.0639  0.0191
 1195PYPI   C1A17533   1.424   0.532   7.221 -0.0801 -0.0880  0.0294
 1195PYPI   C2A17534   1.416   0.452   7.664 -0.0310  0.0375 -0.0673
 1195PYPI   D3A17535   1.284   0.562   8.073  0.1989 -0.1498  0.1904
 1195PYPI   C4A17536   1.448   0.662   8.455  0.2611  0.2206  0.1021
 1195PYPI   C1B17537   1.265   0.072   7.040  0.1339  0.0097 -0.1406
 1195PYPI   C2B17538   1.179   0.019   7.489  0.0622 -0.0980 -0.0168
 1195PYPI   C3B17539   1.250   0.015   7.898  0.0433 -0.0001  0.0505
 1195PYPI   C4B17540   1.085   0.013   8.393 -0.0985  0.2119 -0.1776
 1196PYPI    C117541  14.815  13.286   6.205 -0.1501  0.1989  0.1345
 1196PYPI    C217542  15.020  13.138   5.895 -0.0055  0.1590  0.2483
 1196PYPI    C317543  14.911  13.523   5.897  0.0006  0.1615  0.1518
 1196PYPI   PO417544  14.926  13.163   6.402 -0.2189  0.0363  0.0108
 1196PYPI   GL117545  14.780  13.125   6.757 -0.1019  0.1136 -0.2907
 1196PYPI   GL217546  14.650  13.435   6.700 -0.0477 -0.3056  0.4091
 1196PYPI   C1A17547  14.873  13.024   7.101  0.2376 -0.2155 -0.0121
 1196PYPI   C2A17548  14.842  13.064   7.501  0.2811 -0.2019  0.1105
 1196PYPI   D3A17549  14.830  13.030   7.930 -0.1178 -0.1264 -0.0051
 1196PYPI   C4A17550  14.611  13.018   8.319  0.4300 -0.0311 -0.2565
 1196PYPI   C1B17551  14.512  13.411   7.106  0.0280 -0.0652 -0.0474
 1196PYPI   C2B17552  14.430  13.445   7.587 -0.1759 -0.0143  0.1928
 1196PYPI   C3B17553  14.314  13.414   8.082  0.0814  0.1877  0.0317
 1196PYPI   C4B17554  14.233  13.309   8.498  0.1142 -0.2180  0.0464
 1197PYPI    C117555  13.810  15.609   6.043  0.0348 -0.1882 -0.0958
 1197PYPI    C217556  14.091  15.349   5.929  0.2693 -0.0121  0.0698
 1197PYPI    C317557  13.964  15.630   5.675  0.1385 -0.1797 -0.0524
 1197PYPI   PO417558  13.650  15.446   6.224 -0.0498 -0.0615 -0.0737
 1197PYPI   GL117559  13.666  15.256   6.594  0.0778 -0.1434 -0.2450
 1197PYPI   GL217560  13.698  14.986   6.695 -0.1672 -0.1955 -0.0739
 1197PYPI   C1A17561  13.523  15.383   7.034 -0.3604  0.0093 -0.1217
 1197PYPI   C2A17562  13.510  15.333   7.452 -0.5397 -0.0833  0.1756
 1197PYPI   D3A17563  13.602  15.059   7.807 -0.0431 -0.0115  0.1899
 1197PYPI   C4A17564  13.637  15.139   8.189 -0.2993 -0.2454 -0.2029
 1197PYPI   C1B17565  13.856  15.010   7.093 -0.0696  0.2351 -0.0428
 1197PYPI   C2B17566  14.035  15.139   7.490 -0.2663 -0.0988  0.1508
 1197PYPI   C3B17567  14.077  15.163   7.998 -0.0964  0.0482 -0.1875
 1197PYPI   C4B17568  14.081  15.209   8.485  0.1931  0.1528  0.1374
 1198PYPI    C117569  15.334   6.698   6.460  0.1937 -0.0941  0.0172
 1198PYPI    C217570  15.403   6.310   6.394 -0.1836 -0.1918  0.1729
 1198PYPI    C317571  15.455   6.575   6.099 -0.1507 -0.3908 -0.0024
 1198PYPI   PO417572  15.449   6.683   6.741  0.0122 -0.0370  0.2080
 1198PYPI   GL117573  15.149   6.503   6.923 -0.1096 -0.1360  0.2402
 1198PYPI   GL217574  14.854   6.490   7.096  0.0818 -0.0073  0.2945
 1198PYPI   C1A17575  15.313   6.480   7.333 -0.0462 -0.0274 -0.0497
 1198PYPI   C2A17576  15.263   6.606   7.748  0.1456 -0.2425  0.0024
 1198PYPI   D3A17577  15.301   6.707   8.195  0.1424 -0.0134  0.0771
 1198PYPI   C4A17578  15.154   6.504   8.570  0.0699  0.2339 -0.0116
 1198PYPI   C1B17579  14.782   6.522   7.520 -0.2204 -0.1514 -0.2507
 1198PYPI   C2B17580  14.807   6.555   8.036  0.1223 -0.1681  0.2553
 1198PYPI   C3B17581  14.685   6.490   8.450  0.0828  0.0557 -0.2182
 1198PYPI   C4B17582  14.439   6.620   8.796  0.2060 -0.0106  0.0861
 1199PYPI    C117583   9.609   5.543   6.179 -0.1673 -0.3639  0.2148
 1199PYPI    C217584   9.583   5.231   5.930  0.0196 -0.1774 -0.0439
 1199PYPI    C317585   9.463   5.593   5.810  0.0033 -0.1069  0.1800
 1199PYPI   PO417586   9.562   5.393   6.452 -0.1791  0.1873 -0.0923
 1199PYPI   GL117587   9.492   5.464   6.887  0.0389 -0.0539 -0.2157
 1199PYPI   GL217588   9.624   5.402   7.109 -0.1163 -0.1443  0.0479
 1199PYPI   C1A17589   9.095   5.443   6.956  0.2433  0.0771 -0.1543
 1199PYPI   C2A17590   8.931   5.436   7.376  0.0866 -0.0814 -0.1318
 1199PYPI   D3A17591   9.022   5.396   7.750 -0.3438 -0.0004 -0.0555
 1199PYPI   C4A17592   8.912   5.492   8.159 -0.0292  0.3190  0.1074
 1199PYPI   C1B17593   9.556   5.489   7.585 -0.0180  0.2766  0.0979
 1199PYPI   C2B17594   9.435   5.420   8.022 -0.0120  0.1325  0.0935
 1199PYPI   C3B17595   9.469   5.351   8.394 -0.1944 -0.0236 -0.2669
 1199PYPI   C4B17596   9.330   5.149   8.764 -0.2195 -0.0171 -0.3281
 1200PYPI    C117597   0.185   4.031   6.419 -0.0849  0.0103  0.3397
 1200PYPI    C217598   0.307   4.364   6.233 -0.0263 -0.0350  0.2966
 1200PYPI    C317599  -0.081   4.269   6.238 -0.0370  0.0070  0.2641
 1200PYPI   PO417600   0.312   4.068   6.657 -0.3084 -0.0542  0.1936
 1200PYPI   GL117601   0.391   4.038   7.026  0.1392  0.2511  0.0204
 1200PYPI   GL217602   0.159   3.936   7.246 -0.4073 -0.0887 -0.0548
 1200PYPI   C1A17603   0.347   4.357   7.327  0.0621  0.0200 -0.2428
 1200PYPI   C2A17604   0.405   4.564   7.710 -0.1275 -0.2839  0.0370
 1200PYPI   D3A17605   0.523   4.672   8.134 -0.2109  0.2566 -0.1141
 1200PYPI   C4A17606   0.286   4.722   8.462  0.1075 -0.1675  0.1898
 1200PYPI   C1B17607   0.006   4.046   7.614  0.1705  0.2426 -0.1844
 1200PYPI   C2B17608   0.008   3.952   8.042  0.1283  0.1898 -0.1441
 1200PYPI   C3B17609   0.035   3.787   8.460 -0.0349 -0.2784 -0.0644
 1200PYPI   C4B17610  -0.041   3.714   8.918 -0.0891 -0.0901  0.3260
 1201PYPI    C117611   8.520   0.133   6.273 -0.0009  0.2849  0.0576
 1201PYPI    C217612   8.740   0.098   5.942  0.2110 -0.0296  0.2274
 1201PYPI    C317613   8.349   0.177   5.914  0.2050 -0.1578 -0.1009
 1201PYPI   PO417614   8.802   0.108   6.442 -0.0171  0.3625  0.3220
 1201PYPI   GL117615   8.732   0.119   6.880 -0.0171  0.1964  0.1071
 1201PYPI   GL217616   9.098   0.025   6.883 -0.1614  0.0961 -0.1442
 1201PYPI   C1A17617   8.562   0.200   7.226  0.0002 -0.1129  0.0372
 1201PYPI   C2A17618   8.691   0.079   7.686  0.3035 -0.0088 -0.0918
 1201PYPI   D3A17619   8.577   0.000   8.105 -0.1175 -0.0456 -0.0835
 1201PYPI   C4A17620   8.700   0.118   8.517 -0.2063 -0.2757 -0.0282
 1201PYPI   C1B17621   9.063  -0.126   7.280  0.3476  0.0878 -0.2312
 1201PYPI   C2B17622   9.057  -0.328   7.608 -0.1448 -0.3723  0.1593
 1201PYPI   C3B17623   8.948  -0.349   7.955  0.0029 -0.2974  0.1389
 1201PYPI   C4B17624   8.788  -0.414   8.414 -0.1192 -0.0109 -0.0517
 1202PYPI    C117625  14.580   1.891   6.476 -0.0317 -0.1877  0.0383
 1202PYPI    C217626  14.618   1.552   6.268  0.0905  0.0990 -0.4222
 1202PYPI    C317627  14.298   1.786   6.212  0.0289  0.0854 -0.1399
 1202PYPI   PO417628  14.589   1.850   6.709 -0.0315 -0.0828  0.0437
 1202PYPI   GL117629  14.510   2.184   7.057  0.1916  0.0300 -0.1786
 1202PYPI   GL217630  14.688   2.202   7.270 -0.0313  0.1734  0.3348
 1202PYPI   C1A17631  14.193   2.243   7.434 -0.3850 -0.1095  0.0690
 1202PYPI   C2A17632  14.117   2.356   7.918 -0.1071 -0.3250  0.0372
 1202PYPI   D3A17633  14.174   2.230   8.283  0.2158  0.0910 -0.1337
 1202PYPI   C4A17634  14.574   2.332   8.366  0.0067 -0.0720 -0.0795
 1202PYPI   C1B17635  14.638   2.229   7.767  0.0405 -0.0748  0.1740
 1202PYPI   C2B17636  14.625   1.893   8.139  0.1052  0.0963 -0.0629
 1202PYPI   C3B17637  14.680   1.877   8.560 -0.1873 -0.0120  0.3146
 1202PYPI   C4B17638  14.863   2.080   8.947  0.1644 -0.0473  0.3216
 1203PYPI    C117639  14.718   0.480   6.654 -0.1537  0.3063 -0.2970
 1203PYPI    C217640  14.898   0.334   6.328  0.3294 -0.0018  0.0923
 1203PYPI    C317641  14.986   0.702   6.458  0.1707  0.1036 -0.0935
 1203PYPI   PO417642  14.572   0.263   6.702  0.1401 -0.1773 -0.3788
 1203PYPI   GL117643  14.450   0.025   7.025 -0.0055  0.0973 -0.0389
 1203PYPI   GL217644  14.749   0.059   7.102  0.1610 -0.0129 -0.1923
 1203PYPI   C1A17645  14.405  -0.220   7.304 -0.2502  0.1342  0.1411
 1203PYPI   C2A17646  14.338  -0.171   7.714 -0.0054  0.3105  0.0487
 1203PYPI   D3A17647  14.406  -0.072   8.097  0.3210  0.0611 -0.0144
 1203PYPI   C4A17648  14.411  -0.307   8.536  0.0316 -0.2138 -0.2664
 1203PYPI   C1B17649  14.773   0.083   7.541 -0.2898  0.0651 -0.0206
 1203PYPI   C2B17650  14.818   0.254   7.925 -0.0634  0.0393  0.0077
 1203PYPI   C3B17651  14.829   0.199   8.300  0.0124  0.0870  0.0041
 1203PYPI   C4B17652  14.843  -0.069   8.610 -0.0300  0.1393 -0.1804
 1204PYPI    C117653  13.731   2.062   6.278  0.0221  0.0079  0.0454
 1204PYPI    C217654  14.069   2.258   6.195 -0.0365  0.1392  0.1150
 1204PYPI    C317655  13.720   2.453   6.196 -0.1184 -0.0049 -0.0006
 1204PYPI   PO417656  13.725   1.924   6.470 -0.2344 -0.0774 -0.0692
 1204PYPI   GL117657  13.381   1.965   6.692  0.0762 -0.1855 -0.0932
 1204PYPI   GL217658  13.663   1.916   6.950  0.2189  0.2181  0.0810
 1204PYPI   C1A17659  13.208   2.200   7.083 -0.0420 -0.2689 -0.1093
 1204PYPI   C2A17660  13.293   2.098   7.517 -0.1335 -0.1113 -0.0672
 1204PYPI   D3A17661  13.321   2.060   7.939 -0.2098  0.1138 -0.0091
 1204PYPI   C4A17662  13.207   2.267   8.293  0.2851 -0.2543  0.2584
 1204PYPI   C1B17663  13.670   1.813   7.340 -0.0265  0.0895  0.0282
 1204PYPI   C2B17664  13.904   1.487   7.659  0.0263 -0.1296 -0.2254
 1204PYPI   C3B17665  14.023   1.466   8.071  0.0214  0.1388  0.0528
 1204PYPI   C4B17666  14.181   1.772   8.451 -0.0096 -0.1651 -0.1939
 1205PYPI    C117667   8.031   6.396   5.806 -0.0386 -0.1076  0.3643
 1205PYPI    C217668   7.692   6.337   5.602 -0.0087 -0.0038  0.2837
 1205PYPI    C317669   7.818   6.709   5.677  0.2003 -0.0406  0.1233
 1205PYPI   PO417670   8.095   6.211   5.967 -0.2078 -0.0979  0.1091
 1205PYPI   GL117671   8.342   6.176   6.339 -0.0768 -0.0801 -0.0570
 1205PYPI   GL217672   8.008   6.234   6.443  0.0521 -0.0274  0.2165
 1205PYPI   C1A17673   8.521   6.220   6.712 -0.1747  0.0793  0.0843
 1205PYPI   C2A17674   8.498   6.340   7.136  0.1840  0.1475 -0.0859
 1205PYPI   D3A17675   8.447   6.356   7.591 -0.1333 -0.0676 -0.1408
 1205PYPI   C4A17676   8.374   6.381   8.031  0.3291 -0.2688 -0.0078
 1205PYPI   C1B17677   8.016   6.259   6.821  0.3978  0.0395 -0.1427
 1205PYPI   C2B17678   7.946   6.309   7.266 -0.1918 -0.1892 -0.0268
 1205PYPI   C3B17679   7.946   6.239   7.671 -0.0363  0.1544  0.1999
 1205PYPI   C4B17680   7.807   6.226   8.014  0.0365 -0.2457 -0.0081
 1206PYPI    C117681  12.063   6.783   5.926  0.0948  0.0072  0.0238
 1206PYPI    C217682  12.179   6.407   5.996 -0.0303 -0.1013 -0.3276
 1206PYPI    C317683  11.935   6.487   5.690 -0.3345  0.2142 -0.0129
 1206PYPI   PO417684  12.016   6.922   6.176 -0.1172 -0.0383  0.0596
 1206PYPI   GL117685  11.989   6.984   6.567 -0.5295  0.2563 -0.0298
 1206PYPI   GL217686  11.860   7.213   6.532  0.2582 -0.0507  0.1423
 1206PYPI   C1A17687  11.997   6.794   6.924  0.2265  0.0060  0.1965
 1206PYPI   C2A17688  11.812   6.743   7.243  0.1826  0.1359 -0.2984
 1206PYPI   D3A17689  11.900   6.865   7.584 -0.2722 -0.2665  0.3051
 1206PYPI   C4A17690  11.843   6.770   7.920 -0.2231  0.1675 -0.0415
 1206PYPI   C1B17691  11.678   7.145   6.933  0.0531 -0.1388 -0.2222
 1206PYPI   C2B17692  11.566   7.219   7.298 -0.0853  0.0299 -0.0113
 1206PYPI   C3B17693  11.596   7.255   7.736  0.0185 -0.0186  0.1136
 1206PYPI   C4B17694  11.693   7.278   8.181  0.1958 -0.0283 -0.0273
 1207PYPI    C117695  17.126   2.199   6.226 -0.0786  0.0001  0.2786
 1207PYPI    C217696  16.782   1.996   6.211 -0.0659 -0.0229  0.3003
 1207PYPI    C317697  17.047   1.961   5.915 -0.1977  0.2016  0.1526
 1207PYPI   PO417698  17.261   2.212   6.538 -0.1976 -0.1536 -0.0478
 1207PYPI   GL117699  17.096   2.107   6.990 -0.2955 -0.2013  0.1383
 1207PYPI   GL217700  17.323   2.209   7.124  0.1810  0.0865  0.0991
 1207PYPI   C1A17701  16.843   2.041   7.309  0.2686  0.1731 -0.2238
 1207PYPI   C2A17702  16.799   2.021   7.706 -0.1194  0.0526  0.5371
 1207PYPI   D3A17703  16.730   2.081   8.128  0.1805 -0.2559 -0.1446
 1207PYPI   C4A17704  16.647   1.972   8.560 -0.0659 -0.1190 -0.0694
 1207PYPI   C1B17705  17.300   2.149   7.580 -0.1296  0.0199  0.2505
 1207PYPI   C2B17706  17.321   2.087   7.968  0.0307 -0.1607 -0.2174
 1207PYPI   C3B17707  17.253   2.231   8.394  0.3277  0.0546 -0.3415
 1207PYPI   C4B17708  17.479   2.443   8.722  0.0113 -0.1720  0.1782
 1208PYPI    C117709   3.521   1.117   6.206  0.1282  0.1472 -0.1007
 1208PYPI    C217710   3.721   0.890   5.944 -0.0234 -0.0638 -0.0361
 1208PYPI    C317711   3.625   1.267   5.850  0.1037 -0.0716 -0.2014
 1208PYPI   PO417712   3.658   1.122   6.471 -0.2008 -0.1814  0.0032
 1208PYPI   GL117713   3.529   1.391   6.790 -0.1319  0.1170 -0.1018
 1208PYPI   GL217714   3.463   1.637   6.942 -0.1681 -0.2098 -0.1104
 1208PYPI   C1A17715   3.579   1.265   7.232  0.1852 -0.0224 -0.1067
 1208PYPI   C2A17716   3.467   1.222   7.628 -0.1996 -0.1954  0.1572
 1208PYPI   D3A17717   3.627   1.337   8.027 -0.0729 -0.1290 -0.0687
 1208PYPI   C4A17718   3.651   1.218   8.428  0.1717  0.0577 -0.0173
 1208PYPI   C1B17719   3.338   1.655   7.339 -0.0874  0.0185 -0.0038
 1208PYPI   C2B17720   3.320   1.708   7.766  0.2872 -0.1903 -0.1735
 1208PYPI   C3B17721   3.378   1.722   8.188 -0.2800  0.0907 -0.1523
 1208PYPI   C4B17722   3.344   1.609   8.571  0.1586 -0.4659  0.0560
 1209PYPI    C117723   8.232  14.899   5.809 -0.0887 -0.0214 -0.3153
 1209PYPI    C217724   8.266  15.240   5.603 -0.4359  0.0753 -0.2181
 1209PYPI    C317725   7.971  14.983   5.518 -0.3130 -0.0941 -0.1384
 1209PYPI   PO417726   8.299  14.951   6.112 -0.0291 -0.1794 -0.1654
 1209PYPI   GL117727   8.132  15.058   6.499  0.0136  0.3674  0.1821
 1209PYPI   GL217728   7.763  15.141   6.560  0.0635 -0.0633  0.2123
 1209PYPI   C1A17729   8.104  14.888   7.014 -0.0845  0.1085 -0.0421
 1209PYPI   C2A17730   8.147  14.924   7.428  0.0499 -0.2475 -0.0154
 1209PYPI   D3A17731   8.207  14.902   7.799 -0.1882 -0.1195  0.0259
 1209PYPI   C4A17732   8.176  14.907   8.281  0.1364 -0.0480 -0.1333
 1209PYPI   C1B17733   7.815  15.307   6.901 -0.2192  0.2197 -0.3631
 1209PYPI   C2B17734   7.772  15.326   7.315 -0.0370  0.4621  0.2477
 1209PYPI   C3B17735   7.842  15.346   7.838 -0.0755  0.0266 -0.1844
 1209PYPI   C4B17736   7.807  15.306   8.252  0.1608  0.0160  0.1038
 1210PYPI    C117737  15.270  14.737   6.426  0.0496  0.0883  0.0951
 1210PYPI    C217738  15.082  14.864   6.097  0.0003  0.1080  0.1307
 1210PYPI    C317739  15.445  14.698   6.068  0.0553  0.2346  0.0812
 1210PYPI   PO417740  15.385  14.939   6.587  0.2690  0.1855 -0.3048
 1210PYPI   GL117741  15.471  14.952   7.082 -0.1227 -0.1473  0.2743
 1210PYPI   GL217742  15.599  15.184   7.029 -0.3745 -0.1158 -0.0068
 1210PYPI   C1A17743  15.543  14.978   7.535  0.0201  0.0050  0.0848
 1210PYPI   C2A17744  15.515  14.827   7.915  0.1322 -0.2736  0.1333
 1210PYPI   D3A17745  15.244  14.820   8.260 -0.0745 -0.0389  0.3981
 1210PYPI   C4A17746  15.577  14.964   8.447 -0.1782  0.2066 -0.0810
 1210PYPI   C1B17747  15.977  15.065   7.353  0.1759 -0.3210  0.0987
 1210PYPI   C2B17748  15.978  14.967   7.754  0.1955 -0.2286 -0.2103
 1210PYPI   C3B17749  15.956  14.955   8.119  0.0077  0.0583 -0.0539
 1210PYPI   C4B17750  16.076  14.828   8.542  0.1446 -0.2182  0.0227
 1211PYPI    C117751  15.265   9.655   5.941 -0.1422  0.1400  0.1277
 1211PYPI    C217752  15.457   9.864   5.659  0.1005 -0.2081  0.0265
 1211PYPI    C317753  15.073   9.943   5.741  0.0929  0.0492 -0.2394
 1211PYPI   PO417754  15.321   9.415   5.966  0.0273  0.0308 -0.1112
 1211PYPI   GL117755  15.349   9.377   6.468  0.0845  0.1633  0.1565
 1211PYPI   GL217756  15.212   9.269   6.659  0.0853  0.1282 -0.1127
 1211PYPI   C1A17757  15.704   9.361   6.847 -0.1424 -0.2265  0.0442
 1211PYPI   C2A17758  15.716   9.341   7.266  0.2074 -0.1519  0.0636
 1211PYPI   D3A17759  15.738   9.569   7.690  0.0345 -0.2581 -0.2117
 1211PYPI   C4A17760  15.711   9.658   8.154 -0.1577  0.3817  0.0565
 1211PYPI   C1B17761  15.175   9.310   7.124 -0.1978  0.0182  0.2265
 1211PYPI   C2B17762  15.290   9.361   7.516 -0.1424  0.3925 -0.1341
 1211PYPI   C3B17763  15.199   9.517   7.942 -0.0037 -0.0805  0.3674
 1211PYPI   C4B17764  15.012   9.585   8.316  0.0766  0.1429 -0.1267
 1212PYPI    C117765   4.558  16.896   6.325 -0.1629 -0.1088  0.1435
 1212PYPI    C217766   4.675  17.215   6.113 -0.1101 -0.0827  0.2116
 1212PYPI    C317767   4.580  16.875   5.926 -0.1237 -0.0408  0.1418
 1212PYPI   PO417768   4.789  16.913   6.517 -0.1338 -0.2217  0.2006
 1212PYPI   GL117769   4.755  16.836   6.952  0.0871 -0.1960 -0.0788
 1212PYPI   GL217770   4.418  16.917   6.979  0.0990  0.2250  0.0163
 1212PYPI   C1A17771   4.842  16.842   7.250 -0.0139 -0.2260 -0.1648
 1212PYPI   C2A17772   5.006  17.009   7.653 -0.1045 -0.1244 -0.1305
 1212PYPI   D3A17773   5.027  17.079   8.074  0.0491  0.2046 -0.1172
 1212PYPI   C4A17774   4.900  16.830   8.451 -0.1790  0.1856 -0.0326
 1212PYPI   C1B17775   4.356  16.766   7.395 -0.2426 -0.0621 -0.3738
 1212PYPI   C2B17776   4.364  16.802   7.874  0.1104  0.0380 -0.0840
 1212PYPI   C3B17777   4.429  16.920   8.281 -0.2010  0.0813 -0.1212
 1212PYPI   C4B17778   4.505  17.037   8.827 -0.0891  0.1905 -0.5534
 1213PYPI    C117779   7.005   4.075   6.010  0.2694  0.0444 -0.0901
 1213PYPI    C217780   6.806   3.967   5.681  0.0131 -0.1429  0.1218
 1213PYPI    C317781   7.196   4.051   5.660 -0.0476  0.0689 -0.2688
 1213PYPI   PO417782   6.904   3.943   6.239  0.0625  0.1102  0.1310
 1213PYPI   GL117783   6.793   3.685   6.586  0.2197  0.0167 -0.1927
 1213PYPI   GL217784   6.656   3.306   6.668 -0.0759  0.1259 -0.0310
 1213PYPI   C1A17785   6.683   3.873   6.922  0.1287 -0.1845 -0.3324
 1213PYPI   C2A17786   6.640   4.031   7.331 -0.1765 -0.0170 -0.2870
 1213PYPI   D3A17787   6.724   4.009   7.793  0.2760  0.2185  0.3147
 1213PYPI   C4A17788   6.767   3.988   8.219 -0.0614  0.0604 -0.0113
 1213PYPI   C1B17789   6.723   3.069   6.917 -0.0534 -0.0294  0.1208
 1213PYPI   C2B17790   6.836   3.084   7.325 -0.0424  0.1369 -0.1578
 1213PYPI   C3B17791   6.799   3.076   7.723 -0.3563 -0.3313 -0.1148
 1213PYPI   C4B17792   6.763   3.016   8.135 -0.0036 -0.0077  0.2989
 1214ERGO   ROH17793  15.014   4.896   6.875  0.0544  0.0428 -0.2080
 1214ERGO    R117794  15.158   4.957   7.111  0.0175  0.2861 -0.2454
 1214ERGO    R217795  15.083   5.161   7.283 -0.3326  0.1158 -0.1806
 1214ERGO    R317796  15.090   4.963   7.468  0.1207  0.0829 -0.2228
 1214ERGO    R417797  15.076   5.209   7.625 -0.1448  0.0228 -0.1633
 1214ERGO    R517798  15.224   5.051   7.645  0.1194  0.2493 -0.3081
 1214ERGO    C117799  15.079   5.050   7.998  0.3902 -0.0623 -0.1928
 1214ERGO    C217800  14.904   5.137   8.258 -0.3461  0.1369  0.0533
 1215ERGO   ROH17801   6.816   8.974   6.644  0.3892 -0.1449  0.0227
 1215ERGO    R117802   6.731   8.892   6.901  0.3174 -0.1690 -0.0073
 1215ERGO    R217803   6.906   8.791   7.091  0.3092  0.0301  0.1180
 1215ERGO    R317804   6.801   8.989   7.245  0.0367 -0.0275  0.0110
 1215ERGO    R417805   6.943   8.815   7.433  0.2649  0.2744  0.1069
 1215ERGO    R517806   6.735   8.878   7.447  0.1822 -0.0026  0.0671
 1215ERGO    C117807   6.866   9.014   7.778 -0.0168  0.3625 -0.0001
 1215ERGO    C217808   6.879   8.979   8.060  0.1311 -0.1233 -0.1998
 1216ERGO   ROH17809  11.341   2.870   6.952 -0.1676 -0.0238 -0.0371
 1216ERGO    R117810  11.242   2.800   7.207 -0.0852  0.1782  0.0535
 1216ERGO    R217811  11.360   2.605   7.365 -0.3231 -0.0602 -0.0478
 1216ERGO    R317812  11.365   2.804   7.550  0.2359 -0.0541 -0.0560
 1216ERGO    R417813  11.318   2.560   7.705 -0.1509  0.0551 -0.0103
 1216ERGO    R517814  11.198   2.742   7.709  0.2282  0.3069  0.0800
 1216ERGO    C117815  11.299   2.720   8.076  0.4741  0.1279  0.0039
 1216ERGO    C217816  11.178   2.711   8.335 -0.0088  0.0527  0.3256
 1217ERGO   ROH17817   7.097   5.711   6.492  0.1725  0.2164 -0.1043
 1217ERGO    R117818   7.233   5.664   6.736  0.0705  0.0116 -0.0860
 1217ERGO    R217819   7.268   5.860   6.928  0.2574 -0.0671 -0.0465
 1217ERGO    R317820   7.152   5.676   7.091  0.0156  0.0339 -0.0970
 1217ERGO    R417821   7.230   5.894   7.270  0.1822 -0.0407 -0.0564
 1217ERGO    R517822   7.282   5.684   7.291 -0.0335 -0.1043 -0.0516
 1217ERGO    C117823   7.100   5.741   7.621 -0.0884  0.0697 -0.1096
 1217ERGO    C217824   7.053   5.706   7.920  0.0847 -0.3853 -0.1398
 1218ERGO   ROH17825  15.178   5.998   6.980 -0.2042  0.2214  0.1956
 1218ERGO    R117826  15.062   6.062   7.231 -0.1106  0.0869  0.2758
 1218ERGO    R217827  15.071   5.890   7.447  0.0375 -0.0012  0.2077
 1218ERGO    R317828  15.178   6.106   7.573  0.0340 -0.0194  0.2396
 1218ERGO    R417829  15.046   5.955   7.786  0.0872 -0.0711  0.2241
 1218ERGO    R517830  15.016   6.165   7.739  0.0599 -0.0691  0.2767
 1218ERGO    C117831  15.133   6.195   8.100  0.1129 -0.1289  0.2636
 1218ERGO    C217832  15.137   6.053   8.369  0.0748  0.3317 -0.1480
 1219ERGO   ROH17833  12.726   8.879   6.618 -0.2728 -0.2586 -0.0104
 1219ERGO    R117834  12.774   9.041   6.845 -0.0931 -0.1790 -0.1045
 1219ERGO    R217835  12.570   9.151   6.995  0.0277 -0.0908 -0.0091
 1219ERGO    R317836  12.699   9.028   7.201  0.1470 -0.0289 -0.0450
 1219ERGO    R417837  12.512   9.213   7.330 -0.0422 -0.2450  0.0087
 1219ERGO    R517838  12.727   9.200   7.365 -0.0247 -0.0454  0.0070
 1219ERGO    C117839  12.599   9.134   7.718  0.0291 -0.2766 -0.0145
 1219ERGO    C217840  12.486   9.079   8.008 -0.0515 -0.4738 -0.2844
 1220ERGO   ROH17841   4.677  16.352   7.219  0.0271 -0.1031 -0.0091
 1220ERGO    R117842   4.792  16.363   7.477  0.0130 -0.1570 -0.0005
 1220ERGO    R217843   4.725  16.557   7.662  0.1720 -0.0574 -0.0456
 1220ERGO    R317844   4.673  16.343   7.821 -0.0398  0.0193 -0.0081
 1220ERGO    R417845   4.774  16.550   8.004  0.0451 -0.0111 -0.0257
 1220ERGO    R517846   4.849  16.346   7.983 -0.0957 -0.0707  0.0531
 1220ERGO    C117847   4.753  16.344   8.352 -0.2277  0.0878  0.0212
 1220ERGO    C217848   4.686  16.322   8.636 -0.1593  0.1014 -0.1508
 1221ERGO   ROH17849  16.357   6.496   7.103  0.0005 -0.0056 -0.1319
 1221ERGO    R117850  16.320   6.604   7.363  0.1193 -0.0518 -0.0936
 1221ERGO    R217851  16.153   6.487   7.550  0.0601  0.0123 -0.0972
 1221ERGO    R317852  16.377   6.494   7.705  0.0953 -0.1954 -0.1366
 1221ERGO    R417853  16.156   6.542   7.891  0.1940  0.2225 -0.1313
 1221ERGO    R517854  16.332   6.667   7.865  0.3592 -0.0358 -0.2357
 1221ERGO    C117855  16.367   6.581   8.235  0.3048  0.1498 -0.1881
 1221ERGO    C217856  16.541   6.514   8.542  0.2577  0.0549 -0.1741
 1222ERGO   ROH17857   1.060   5.852   7.050  0.1117  0.2691 -0.0293
 1222ERGO    R117858   0.999   5.969   7.300  0.1892  0.2333  0.0062
 1222ERGO    R217859   0.952   5.819   7.528  0.1408  0.1970 -0.0287
 1222ERGO    R317860   1.148   5.975   7.632  0.2227  0.0799 -0.0055
 1222ERGO    R417861   0.983   5.902   7.862  0.2174  0.0860 -0.0072
 1222ERGO    R517862   1.039   6.103   7.802  0.2995  0.0792  0.0451
 1222ERGO    C117863   1.185   6.097   8.154  0.3390 -0.0886  0.0270
 1222ERGO    C217864   1.114   6.088   8.572 -0.1045  0.1342  0.0848
 1223ERGO   ROH17865   8.852   2.844   6.756 -0.0075 -0.2219 -0.0848
 1223ERGO    R117866   8.916   2.997   6.986  0.0046 -0.0875 -0.1754
 1223ERGO    R217867   8.725   3.138   7.129 -0.0216 -0.1504 -0.1422
 1223ERGO    R317868   8.823   2.995   7.338  0.1702 -0.0076 -0.1315
 1223ERGO    R417869   8.718   3.241   7.458 -0.0520 -0.0924 -0.1609
 1223ERGO    R517870   8.919   3.160   7.483  0.0350  0.1179 -0.1858
 1223ERGO    C117871   8.805   3.166   7.847  0.1103  0.0754 -0.1617
 1223ERGO    C217872   8.874   3.113   8.126  0.0731 -0.0190  0.1823
 1224ERGO   ROH17873  14.345   2.783   7.264 -0.0556  0.3411  0.0147
 1224ERGO    R117874  14.381   2.684   7.526  0.0082  0.1176 -0.0762
 1224ERGO    R217875  14.584   2.770   7.692 -0.0357  0.0799 -0.0047
 1224ERGO    R317876  14.380   2.821   7.863 -0.0589 -0.1929  0.0544
 1224ERGO    R417877  14.616   2.790   8.035  0.0413  0.1305 -0.0142
 1224ERGO    R517878  14.427   2.684   8.054  0.1870 -0.1291  0.0452
 1224ERGO    C117879  14.443   2.850   8.396  0.0643 -0.0960  0.0358
 1224ERGO    C217880  14.481   2.983   8.609  0.2135 -0.4651  0.2156
 1225ERGO   ROH17881  16.916   2.568   7.195 -0.1711 -0.3236 -0.1062
 1225ERGO    R117882  17.013   2.504   7.453 -0.2228 -0.4568 -0.1196
 1225ERGO    R217883  17.029   2.689   7.657  0.2840 -0.4059 -0.1918
 1225ERGO    R317884  16.883   2.504   7.793 -0.1051 -0.0262 -0.0696
 1225ERGO    R417885  16.966   2.699   7.997  0.4910 -0.1729 -0.1566
 1225ERGO    R517886  16.996   2.483   8.003 -0.0358 -0.2573 -0.1287
 1225ERGO    C117887  16.792   2.531   8.322  0.2464  0.3193 -0.0214
 1225ERGO    C217888  16.793   2.453   8.672 -0.2284 -0.2405  0.3784
 1226ERGO   ROH17889  15.261  17.139   7.185 -0.0820  0.0939  0.0176
 1226ERGO    R117890  15.343  17.108   7.454 -0.1456 -0.0417  0.0234
 1226ERGO    R217891  15.422  17.322   7.611  0.1380 -0.1556  0.0485
 1226ERGO    R317892  15.232  17.226   7.780 -0.0150  0.0906  0.0206
 1226ERGO    R417893  15.477  17.233   7.940  0.0196 -0.4275 -0.0035
 1226ERGO    R517894  15.346  17.061   7.910 -0.2901 -0.1834 -0.0772
 1226ERGO    C117895  15.331  17.090   8.290 -0.1929 -0.3548 -0.0600
 1226ERGO    C217896  15.379  17.079   8.649 -0.0918  0.0172 -0.0431
 1227ERGO   ROH17897  12.610  16.814   6.919  0.2329 -0.2880 -0.0064
 1227ERGO    R117898  12.538  16.909   7.176  0.2377 -0.1060 -0.0705
 1227ERGO    R217899  12.396  16.756   7.357  0.0240  0.1086 -0.0490
 1227ERGO    R317900  12.605  16.815   7.521  0.0288 -0.0254 -0.0068
 1227ERGO    R417901  12.382  16.755   7.703  0.0305 -0.1510 -0.0483
 1227ERGO    R517902  12.505  16.934   7.703  0.0386 -0.1576  0.0858
 1227ERGO    C117903  12.570  16.809   8.058  0.0388 -0.4275 -0.0083
 1227ERGO    C217904  12.591  16.738   8.349  0.0095  0.0787  0.0514
 1228ERGO   ROH17905  14.977  10.241   6.503 -0.2511 -0.3532 -0.0120
 1228ERGO    R117906  15.017  10.140   6.765  0.0104 -0.1407  0.0361
 1228ERGO    R217907  15.228  10.220   6.925  0.0437  0.1705 -0.1436
 1228ERGO    R317908  15.030  10.276   7.102  0.0952  0.1043 -0.0660
 1228ERGO    R417909  15.272  10.258   7.266  0.1276  0.0427 -0.1404
 1228ERGO    R517910  15.086  10.149   7.297  0.1420  0.0358 -0.1302
 1228ERGO    C117911  15.111  10.333   7.630  0.2246 -0.0939 -0.0657
 1228ERGO    C217912  15.114  10.426   8.009 -0.0494  0.0658  0.0448
 1229ERGO   ROH17913   3.874  13.427   6.749  0.0491 -0.1078 -0.0140
 1229ERGO    R117914   4.030  13.434   6.985  0.0208 -0.2167  0.0083
 1229ERGO    R217915   4.008  13.637   7.172  0.2096 -0.1449 -0.0470
 1229ERGO    R317916   3.967  13.430   7.344 -0.0403 -0.0592  0.0001
 1229ERGO    R417917   4.111  13.631   7.501  0.3937 -0.2746 -0.1048
 1229ERGO    R517918   4.167  13.422   7.475  0.0284 -0.3781 -0.1144
 1229ERGO    C117919   4.132  13.434   7.855  0.2664 -0.2696 -0.0942
 1229ERGO    C217920   4.086  13.379   8.177  0.0512 -0.2178  0.0508
 1230ERGO   ROH17921   1.253  13.277   6.858  0.0014  0.3215  0.0510
 1230ERGO    R117922   1.074  13.203   7.063 -0.0327  0.2359 -0.0070
 1230ERGO    R217923   1.120  12.991   7.232 -0.1192  0.0836 -0.1610
 1230ERGO    R317924   1.083  13.178   7.427 -0.0454 -0.0417 -0.0261
 1230ERGO    R417925   1.066  12.919   7.566 -0.1819 -0.1264 -0.2158
 1230ERGO    R517926   0.918  13.080   7.571 -0.1007 -0.0623 -0.1106
 1230ERGO    C117927   1.000  13.053   7.943 -0.1491 -0.3662 -0.1210
 1230ERGO    C217928   0.978  12.923   8.260 -0.1370  0.2771 -0.1022
 1231ERGO   ROH17929  10.151   7.250   6.576  0.1289  0.0980  0.1699
 1231ERGO    R117930  10.077   7.349   6.831 -0.0074  0.0619  0.1462
 1231ERGO    R217931   9.901   7.214   6.997  0.0843 -0.0836  0.1357
 1231ERGO    R317932  10.105   7.237   7.176  0.0387  0.1273  0.1623
 1231ERGO    R417933   9.871   7.170   7.339  0.1167 -0.2407  0.1180
 1231ERGO    R517934  10.006   7.339   7.368 -0.1126 -0.0725  0.1884
 1231ERGO    C117935  10.045   7.165   7.705  0.0927 -0.1343  0.1326
 1231ERGO    C217936   9.948   7.171   8.070  0.0580  0.2209 -0.0833
 1232ERGO   ROH17937  16.001   7.311   6.822  0.1889 -0.1958  0.1234
 1232ERGO    R117938  15.947   7.493   7.032  0.0881 -0.1176  0.0297
 1232ERGO    R217939  15.812   7.420   7.262  0.1249 -0.0721  0.0628
 1232ERGO    R317940  16.031   7.524   7.384  0.0660  0.1095  0.0177
 1232ERGO    R417941  15.833   7.500   7.598  0.1484 -0.1430  0.0783
 1232ERGO    R517942  15.943   7.679   7.544 -0.0402 -0.0160  0.0875
 1232ERGO    C117943  16.051   7.643   7.908  0.1068 -0.0137  0.0450
 1232ERGO    C217944  16.087   7.809   8.210 -0.5499  0.2475  0.0567
 1233ERGO   ROH17945   5.936   9.272   6.668 -0.0856 -0.0842 -0.0169
 1233ERGO    R117946   6.049   9.335   6.920  0.0337 -0.1784 -0.0450
 1233ERGO    R217947   5.924   9.503   7.102  0.3515  0.1675 -0.1266
 1233ERGO    R317948   5.956   9.291   7.269 -0.0719  0.1756 -0.0260
 1233ERGO    R417949   5.956   9.524   7.445  0.0423  0.2214 -0.0989
 1233ERGO    R517950   6.107   9.369   7.437 -0.1397  0.0328  0.0989
 1233ERGO    C117951   6.004   9.337   7.802 -0.5351  0.2605  0.0118
 1233ERGO    C217952   6.079   9.342   8.228  0.2722  0.1342  0.0743
 1234ERGO   ROH17953   4.121  11.787   6.662 -0.3220 -0.3440  0.0231
 1234ERGO    R117954   4.144  11.630   6.897  0.0431 -0.1823  0.1017
 1234ERGO    R217955   4.374  11.626   7.051  0.1067  0.3349  0.0434
 1234ERGO    R317956   4.203  11.693   7.250  0.0309  0.1186  0.0529
 1234ERGO    R417957   4.438  11.589   7.388  0.0459  0.1361  0.0345
 1234ERGO    R517958   4.233  11.523   7.416  0.0720  0.0212 -0.0551
 1234ERGO    C117959   4.314  11.631   7.772 -0.0607 -0.1827  0.0381
 1234ERGO    C217960   4.323  11.664   8.135  0.2256 -0.0600 -0.0453
 1235ERGO   ROH17961  16.594   9.602   6.473 -0.1681  0.0851  0.0458
 1235ERGO    R117962  16.713   9.509   6.712 -0.1513  0.0581  0.0266
 1235ERGO    R217963  16.838   9.677   6.892 -0.0928  0.0294  0.0098
 1235ERGO    R317964  16.667   9.563   7.069 -0.0872  0.0601  0.0355
 1235ERGO    R417965  16.867   9.697   7.236 -0.0665  0.0787  0.0049
 1235ERGO    R517966  16.807   9.488   7.248 -0.0749  0.0797  0.0371
 1235ERGO    C117967  16.723   9.602   7.602 -0.0456  0.1363  0.0262
 1235ERGO    C217968  16.718   9.706   7.922  0.0648  0.1207  0.1523
 1236ERGO   ROH17969   5.672  16.348   6.952  0.2406 -0.0067 -0.1431
 1236ERGO    R117970   5.850  16.396   7.168  0.1091  0.1672 -0.0706
 1236ERGO    R217971   5.834  16.623   7.326 -0.2380  0.1093 -0.0116
 1236ERGO    R317972   5.822  16.441   7.528 -0.0711  0.0358 -0.0672
 1236ERGO    R417973   5.812  16.700   7.662 -0.1576 -0.0158  0.0230
 1236ERGO    R517974   5.951  16.539   7.704 -0.0588  0.0424 -0.0812
 1236ERGO    C117975   5.788  16.575   8.047  0.0460 -0.1577 -0.0090
 1236ERGO    C217976   5.691  16.627   8.457  0.3077 -0.0520 -0.1757
 1237ERGO   ROH17977   5.705  10.414   6.534  0.0970 -0.3597 -0.0610
 1237ERGO    R117978   5.607  10.494   6.787  0.1974  0.0537 -0.1431
 1237ERGO    R217979   5.463  10.324   6.951 -0.1714  0.4630 -0.0109
 1237ERGO    R317980   5.655  10.391   7.133 -0.0651  0.2545 -0.0458
 1237ERGO    R417981   5.419  10.324   7.294 -0.1059  0.5367 -0.0035
 1237ERGO    R517982   5.536  10.508   7.304  0.1044  0.3999 -0.0322
 1237ERGO    C117983   5.573  10.387   7.664  0.0320  0.3839 -0.0319
 1237ERGO    C217984   5.571  10.296   7.937 -0.0133  0.2727 -0.1688
 1238ERGO   ROH17985  15.894  16.662   6.895  0.0730  0.1319 -0.0203
 1238ERGO    R117986  15.928  16.504   7.127  0.2268  0.0839 -0.0753
 1238ERGO    R217987  16.134  16.545   7.306  0.1065  0.3157  0.0102
 1238ERGO    R317988  15.931  16.558   7.486  0.0202 -0.0592 -0.0491
 1238ERGO    R417989  16.162  16.467   7.642  0.1443  0.3261  0.0099
 1238ERGO    R517990  15.967  16.371   7.631  0.3081 -0.0193 -0.0605
 1238ERGO    C117991  15.988  16.435   8.006  0.0853 -0.0196 -0.0459
 1238ERGO    C217992  16.005  16.388   8.326 -0.0019  0.0763 -0.2191
 1239ERGO   ROH17993   0.256   7.707   6.833  0.1294 -0.0319 -0.0687
 1239ERGO    R117994   0.312   7.825   7.084  0.1232 -0.0653 -0.0512
 1239ERGO    R217995   0.225   7.715   7.323  0.0236 -0.0412 -0.0716
 1239ERGO    R317996   0.489   7.730   7.388  0.0171 -0.1544 -0.0182
 1239ERGO    R417997   0.347   7.744   7.645 -0.0193 -0.0366 -0.0556
 1239ERGO    R517998   0.496   7.885   7.570  0.0602 -0.1257 -0.0498
 1239ERGO    C117999   0.666   7.775   7.894 -0.0504 -0.1402  0.0038
 1239ERGO    C218000   0.648   7.795   8.165 -0.0956  0.1816  0.0148
 1240ERGO   ROH18001  16.841   3.013   7.333  0.0654  0.0225  0.1093
 1240ERGO    R118002  16.920   3.171   7.554  0.0227  0.0510  0.1046
 1240ERGO    R218003  16.846   3.112   7.814  0.1665 -0.0504  0.1248
 1240ERGO    R318004  17.114   3.122   7.859  0.1769  0.1554  0.0243
 1240ERGO    R418005  16.992   3.177   8.120  0.2310 -0.0583  0.0956
 1240ERGO    R518006  17.141   3.300   8.017  0.0889  0.1108  0.0890
 1240ERGO    C118007  17.329   3.225   8.341  0.2783  0.1303 -0.0158
 1240ERGO    C218008  17.422   3.368   8.683 -0.3397  0.0336 -0.0809
 1241ERGO   ROH18009   8.611   1.034   6.684 -0.0313  0.0675 -0.0974
 1241ERGO    R118010   8.502   0.898   6.907 -0.1103  0.0307 -0.1584
 1241ERGO    R218011   8.658   0.757   7.086 -0.1758 -0.0084 -0.1344
 1241ERGO    R318012   8.534   0.916   7.269 -0.2291 -0.0388 -0.1434
 1241ERGO    R418013   8.700   0.734   7.428 -0.1150  0.0664 -0.1363
 1241ERGO    R518014   8.486   0.770   7.452 -0.1312 -0.0349 -0.1125
 1241ERGO    C118015   8.608   0.871   7.799 -0.1297  0.0813 -0.1460
 1241ERGO    C218016   8.588   0.980   8.111 -0.0986 -0.2420 -0.2043
 1242ERGO   ROH18017  12.774   1.762   6.960 -0.2305 -0.1878  0.0445
 1242ERGO    R118018  12.900   1.746   7.213 -0.1485 -0.1444  0.0067
 1242ERGO    R218019  12.866   1.939   7.409  0.0818 -0.0037 -0.0904
 1242ERGO    R318020  12.793   1.726   7.560 -0.0357  0.1420  0.0615
 1242ERGO    R418021  12.858   1.936   7.754  0.3070  0.1744 -0.0811
 1242ERGO    R518022  12.940   1.734   7.749  0.1000  0.0866 -0.0393
 1242ERGO    C118023  12.785   1.734   8.098  0.3280  0.4150  0.0668
 1242ERGO    C218024  12.738   1.574   8.329 -0.0082 -0.0823  0.0663
 1243ERGO   ROH18025   9.329  14.257   6.538 -0.1997 -0.0034 -0.0730
 1243ERGO    R118026   9.229  14.223   6.801 -0.1309 -0.0334 -0.0502
 1243ERGO    R218027   9.296  14.006   6.959  0.0331  0.0269 -0.0346
 1243ERGO    R318028   9.369  14.199   7.136 -0.0542  0.0948 -0.0720
 1243ERGO    R418029   9.229  13.998   7.297  0.0439  0.0520 -0.0325
 1243ERGO    R518030   9.185  14.211   7.289 -0.0590  0.0320 -0.0706
 1243ERGO    C118031   9.258  14.173   7.661 -0.0320  0.1303 -0.0663
 1243ERGO    C218032   9.330  14.112   8.013  0.2362  0.0562 -0.0229
 1244ERGO   ROH18033  13.804   9.073   6.583  0.1410 -0.0945  0.0619
 1244ERGO    R118034  13.660   9.165   6.809  0.0225 -0.1653  0.0160
 1244ERGO    R218035  13.603   9.003   7.025  0.1555 -0.1548  0.0559
 1244ERGO    R318036  13.724   9.203   7.165 -0.0582  0.0075  0.0146
 1244ERGO    R418037  13.550   9.069   7.360  0.1101 -0.1784  0.0534
 1244ERGO    R518038  13.554   9.282   7.314 -0.1429 -0.1728  0.0227
 1244ERGO    C118039  13.633   9.295   7.686 -0.1171 -0.0399  0.0132
 1244ERGO    C218040  13.514   9.238   7.962 -0.0062  0.0969 -0.1626
 1245ERGO   ROH18041   3.193  14.735   6.859 -0.0177 -0.0262  0.0259
 1245ERGO    R118042   3.095  14.803   7.115 -0.2030 -0.2155  0.0092
 1245ERGO    R218043   3.010  14.614   7.298  0.1553 -0.3939  0.0047
 1245ERGO    R318044   3.189  14.737   7.461 -0.1144 -0.0123  0.0241
 1245ERGO    R418045   3.005  14.599   7.643  0.0456 -0.2338  0.0108
 1245ERGO    R518046   3.058  14.810   7.648 -0.3120 -0.1401 -0.0643
 1245ERGO    C118047   3.171  14.706   7.997 -0.2715  0.2177  0.0326
 1245ERGO    C218048   3.287  14.592   8.305  0.0323  0.0320 -0.1763
 1246ERGO   ROH18049   6.010  11.264   8.102  0.1205 -0.1721 -0.0480
 1246ERGO    R118050   6.025  11.084   8.320  0.0495 -0.0837  0.0297
 1246ERGO    R218051   6.155  11.146   8.555  0.0671 -0.0309  0.0013
 1246ERGO    R318052   5.917  11.080   8.667  0.0420  0.1039  0.0319
 1246ERGO    R418053   6.091  11.145   8.895  0.1379 -0.0587  0.0155
 1246ERGO    R518054   5.976  10.962   8.867  0.0070  0.0191 -0.0035
 1246ERGO    C118055   5.829  11.083   9.198  0.1555  0.0518  0.0526
 1246ERGO    C218056   5.886  11.033   9.574 -0.1641 -0.2191 -0.0931
 1247ERGO   ROH18057  12.798  14.610   6.596  0.0043 -0.1236 -0.1058
 1247ERGO    R118058  12.820  14.469   6.840 -0.1140 -0.1396 -0.1039
 1247ERGO    R218059  13.019  14.520   7.025 -0.0197 -0.3573 -0.1404
 1247ERGO    R318060  12.809  14.550   7.195  0.0403 -0.1096 -0.1060
 1247ERGO    R418061  13.046  14.563   7.367  0.0869 -0.1312 -0.1753
 1247ERGO    R518062  12.875  14.431   7.392  0.0141 -0.0092 -0.0379
 1247ERGO    C118063  12.865  14.616   7.726  0.2053  0.2330 -0.1633
 1247ERGO    C218064  12.823  14.607   8.094  0.0247 -0.1045 -0.1847
 1248ERGO   ROH18065  12.258   2.664   6.877 -0.0501 -0.0939  0.1023
 1248ERGO    R118066  12.378   2.635   7.132  0.0297  0.0217  0.0787
 1248ERGO    R218067  12.331   2.813   7.340 -0.0955 -0.0176  0.0864
 1248ERGO    R318068  12.263   2.587   7.474  0.1434 -0.0823  0.1025
 1248ERGO    R418069  12.358   2.771   7.681 -0.1965  0.0925  0.1083
 1248ERGO    R518070  12.428   2.568   7.646  0.0920  0.1757  0.1839
 1248ERGO    C118071  12.310   2.534   8.007 -0.0310  0.0958  0.1362
 1248ERGO    C218072  12.358   2.688   8.255 -0.1610 -0.1569  0.0464
 1249ERGO   ROH18073   3.342   8.519   6.762  0.2753  0.0624 -0.0228
 1249ERGO    R118074   3.259   8.461   7.027  0.1250 -0.0566 -0.0934
 1249ERGO    R218075   3.423   8.335   7.210  0.0549 -0.0623 -0.0273
 1249ERGO    R318076   3.365   8.552   7.363 -0.1201 -0.1309  0.0049
 1249ERGO    R418077   3.482   8.358   7.550  0.0711 -0.0421 -0.0321
 1249ERGO    R518078   3.290   8.460   7.571 -0.0136 -0.2164  0.0021
 1249ERGO    C118079   3.462   8.576   7.891 -0.0836 -0.0949 -0.0047
 1249ERGO    C218080   3.411   8.523   8.254 -0.0861  0.1819 -0.1507
 1250ERGO   ROH18081   1.397   7.512   6.936  0.1362  0.1318  0.0097
 1250ERGO    R118082   1.262   7.531   7.185  0.1046  0.1605 -0.0103
 1250ERGO    R218083   1.273   7.332   7.376 -0.0740  0.0998 -0.0646
 1250ERGO    R318084   1.356   7.535   7.536  0.0430 -0.0035  0.0091
 1250ERGO    R418085   1.291   7.316   7.720 -0.0612 -0.0422 -0.0705
 1250ERGO    R518086   1.214   7.520   7.729  0.0455 -0.0030  0.0122
 1250ERGO    C118087   1.378   7.498   8.072  0.0562 -0.2219 -0.0048
 1250ERGO    C218088   1.354   7.458   8.363  0.0007 -0.2194 -0.2378
 1251ERGO   ROH18089   2.476   6.563   6.795  0.3472  0.1979 -0.0041
 1251ERGO    R118090   2.338   6.620   7.035  0.2462  0.1339 -0.0466
 1251ERGO    R218091   2.308   6.435   7.238  0.0302  0.0295 -0.1699
 1251ERGO    R318092   2.418   6.632   7.390  0.0581 -0.1188  0.0068
 1251ERGO    R418093   2.304   6.444   7.584  0.0042 -0.2581 -0.1594
 1251ERGO    R518094   2.266   6.658   7.573  0.0491 -0.2401  0.0172
 1251ERGO    C118095   2.404   6.635   7.927  0.0152 -0.5648  0.0127
 1251ERGO    C218096   2.472   6.612   8.320  0.0342  0.0129 -0.0997
 1252ERGO   ROH18097   7.268   3.838   6.655  0.1706  0.0710 -0.0248
 1252ERGO    R118098   7.293   3.966   6.906 -0.1426  0.0779  0.0071
 1252ERGO    R218099   7.086   3.978   7.088 -0.1999 -0.4281 -0.0088
 1252ERGO    R318100   7.269   3.869   7.256  0.0375 -0.0581 -0.0172
 1252ERGO    R418101   7.089   4.020   7.431 -0.2445 -0.3844 -0.0139
 1252ERGO    R518102   7.306   4.038   7.421 -0.2717  0.0370 -0.0388
 1252ERGO    C118103   7.264   3.942   7.788 -0.0477 -0.0117 -0.0248
 1252ERGO    C218104   7.306   3.985   8.197  0.1721  0.0805  0.0089
 1253ERGO   ROH18105   4.399   5.216   6.837 -0.2377  0.0023  0.0063
 1253ERGO    R118106   4.350   5.338   7.088 -0.2635 -0.0665  0.0343
 1253ERGO    R218107   4.161   5.242   7.266 -0.1507 -0.2254  0.0662
 1253ERGO    R318108   4.372   5.241   7.438 -0.1080 -0.0975  0.0174
 1253ERGO    R418109   4.139   5.289   7.608 -0.0798 -0.0505  0.0487
 1253ERGO    R518110   4.319   5.410   7.599 -0.1017 -0.0207 -0.0579
 1253ERGO    C118111   4.324   5.314   7.968  0.0015  0.1712 -0.0074
 1253ERGO    C218112   4.298   5.321   8.330  0.1292 -0.0328  0.0123
 1254ERGO   ROH18113  10.483  11.087   6.492 -0.0235 -0.0912  0.0171
 1254ERGO    R118114  10.355  11.098   6.744 -0.0168 -0.1245  0.0232
 1254ERGO    R218115  10.422  10.930   6.953  0.0178 -0.1287  0.0167
 1254ERGO    R318116  10.454  11.163   7.088 -0.0108 -0.1283  0.0203
 1254ERGO    R418117  10.404  10.964   7.297  0.0357 -0.1283  0.0168
 1254ERGO    R518118  10.296  11.151   7.268  0.0081 -0.1503  0.0288
 1254ERGO    C118119  10.424  11.203   7.624  0.0193 -0.1276  0.0202
 1254ERGO    C218120  10.332  11.180   7.895 -0.0362  0.0177 -0.0856
 1255ERGO   ROH18121  12.768   4.566   6.980  0.1593 -0.2075 -0.0112
 1255ERGO    R118122  12.846   4.464   7.233  0.1097 -0.0942  0.0505
 1255ERGO    R218123  12.929   4.628   7.439 -0.0432  0.0087  0.0340
 1255ERGO    R318124  12.733   4.498   7.577 -0.0383 -0.0378 -0.0028
 1255ERGO    R418125  12.883   4.647   7.781 -0.2004  0.1080  0.0080
 1255ERGO    R518126  12.839   4.434   7.782 -0.0951  0.0876  0.0656
 1255ERGO    C118127  12.672   4.537   8.110 -0.2873  0.1221 -0.0417
 1255ERGO    C218128  12.675   4.387   8.522  0.0748 -0.0589  0.0898
 1256ERGO   ROH18129   9.841   9.628   6.543  0.0958 -0.2854 -0.0665
 1256ERGO    R118130   9.705   9.641   6.791  0.0637 -0.1396 -0.0910
 1256ERGO    R218131   9.739   9.451   6.989 -0.1406 -0.1520 -0.0679
 1256ERGO    R318132   9.798   9.668   7.142  0.0282 -0.1892 -0.0772
 1256ERGO    R418133   9.747   9.453   7.335 -0.0260 -0.1716 -0.0694
 1256ERGO    R518134   9.652   9.649   7.331  0.0784 -0.1181 -0.0293
 1256ERGO    C118135   9.806   9.657   7.679  0.1993 -0.2178 -0.0790
 1256ERGO    C218136   9.680   9.736   7.984  0.2216 -0.1279  0.3534
 1257ERGO   ROH18137   6.049  16.060   6.895 -0.1244 -0.2325 -0.0320
 1257ERGO    R118138   6.079  15.960   7.157 -0.0199 -0.0509  0.0267
 1257ERGO    R218139   6.244  16.079   7.344 -0.1340  0.2209 -0.0461
 1257ERGO    R318140   6.018  16.080   7.495 -0.1328  0.0851 -0.0402
 1257ERGO    R418141   6.236  16.129   7.686 -0.1210 -0.1023  0.0056
 1257ERGO    R518142   6.083  15.974   7.700 -0.1290 -0.1147 -0.1394
 1257ERGO    C118143   6.019  16.160   8.027 -0.1123 -0.4181  0.0412
 1257ERGO    C218144   5.998  16.200   8.359 -0.0360  0.1782 -0.1105
 1258ERGO   ROH18145   4.341   9.518   6.519  0.0468  0.0590  0.0014
 1258ERGO    R118146   4.362   9.377   6.763 -0.2574 -0.0626 -0.0379
 1258ERGO    R218147   4.542   9.448   6.962  0.0064 -0.5838 -0.0707
 1258ERGO    R318148   4.319   9.453   7.117  0.0480 -0.0186 -0.0078
 1258ERGO    R418149   4.537   9.391   7.302 -0.0391 -0.4837 -0.0546
 1258ERGO    R518150   4.353   9.277   7.276 -0.3217 -0.0641  0.0268
 1258ERGO    C118151   4.324   9.362   7.646 -0.0263  0.1053  0.0137
 1258ERGO    C218152   4.412   9.381   7.920  0.0527 -0.0917  0.0949
 1259ERGO   ROH18153  12.522  15.895   6.565  0.1713 -0.2324 -0.0332
 1259ERGO    R118154  12.582  15.783   6.818  0.1037 -0.0555  0.0634
 1259ERGO    R218155  12.712  15.924   7.017 -0.0140  0.1087  0.0282
 1259ERGO    R318156  12.496  15.852   7.165 -0.0535  0.1425 -0.0134
 1259ERGO    R418157  12.711  15.890   7.361 -0.0619  0.0117  0.0185
 1259ERGO    R518158  12.586  15.713   7.338 -0.1209  0.0628 -0.0435
 1259ERGO    C118159  12.507  15.803   7.700 -0.1269 -0.0132 -0.0262
 1259ERGO    C218160  12.354  15.813   7.976 -0.1991 -0.6702  0.0362
 1260ERGO   ROH18161  12.718  12.562   6.659  0.1796 -0.1394  0.0124
 1260ERGO    R118162  12.699  12.718   6.895  0.1668 -0.1296  0.0054
 1260ERGO    R218163  12.482  12.703   7.067  0.0791 -0.0046 -0.0881
 1260ERGO    R318164  12.674  12.654   7.252 -0.0280 -0.1210 -0.0064
 1260ERGO    R418165  12.434  12.709   7.409 -0.0220  0.1629 -0.1044
 1260ERGO    R518166  12.627  12.807   7.430  0.0619 -0.0139 -0.0773
 1260ERGO    C118167  12.587  12.667   7.782 -0.1815  0.1512 -0.0372
 1260ERGO    C218168  12.591  12.764   8.158  0.1250  0.2979  0.0948
 1261ERGO   ROH18169   8.604   8.558   6.457  0.1746 -0.1402  0.0868
 1261ERGO    R118170   8.733   8.610   6.704  0.0583 -0.1797  0.1556
 1261ERGO    R218171   8.603   8.727   6.918  0.0060 -0.0510  0.0479
 1261ERGO    R318172   8.692   8.507   7.050 -0.2225 -0.0833  0.1559
 1261ERGO    R418173   8.603   8.689   7.262  0.2059  0.2442  0.0848
 1261ERGO    R518174   8.799   8.594   7.246  0.0631 -0.0674  0.0059
 1261ERGO    C118175   8.688   8.460   7.586  0.1078  0.3857  0.2076
 1261ERGO    C218176   8.560   8.470   7.801  0.1150 -0.0338  0.3170
 1262ERGO   ROH18177   0.850   0.680   6.944  0.3397 -0.0788 -0.0555
 1262ERGO    R118178   0.770   0.548   7.181  0.1779 -0.0466 -0.0907
 1262ERGO    R218179   0.950   0.467   7.375  0.0603 -0.1333 -0.0135
 1262ERGO    R318180   0.789   0.612   7.539  0.0563 -0.0603 -0.0820
 1262ERGO    R418181   0.909   0.409   7.713 -0.0954 -0.0987 -0.0261
 1262ERGO    R518182   0.696   0.451   7.689 -0.0679 -0.0134 -0.1094
 1262ERGO    C118183   0.733   0.511   8.064 -0.1899 -0.0102 -0.0979
 1262ERGO    C218184   0.827   0.540   8.368  0.2392  0.0779  0.1227
 1263ERGO   ROH18185   7.795   7.981   6.474  0.0826 -0.0303 -0.0957
 1263ERGO    R118186   7.915   8.058   6.719  0.0263 -0.0497 -0.0611
 1263ERGO    R218187   7.779   8.199   6.914  0.0329  0.0905 -0.1540
 1263ERGO    R318188   7.858   7.994   7.072 -0.1742  0.0748 -0.0692
 1263ERGO    R418189   7.806   8.215   7.258  0.1259  0.2331 -0.1681
 1263ERGO    R518190   7.990   8.098   7.243 -0.0132  0.0083 -0.1512
 1263ERGO    C118191   7.897   8.032   7.607 -0.0145  0.3014 -0.0969
 1263ERGO    C218192   7.864   8.015   7.936 -0.1793 -0.1040 -0.1734
 1264ERGO   ROH18193   0.885  14.261   6.727 -0.1397 -0.0206 -0.1369
 1264ERGO    R118194   1.041  14.359   6.942 -0.0709 -0.0113 -0.1906
 1264ERGO    R218195   0.933  14.511   7.147  0.0180  0.1028 -0.2268
 1264ERGO    R318196   1.047  14.320   7.304 -0.0399  0.1087 -0.1778
 1264ERGO    R418197   0.939  14.518   7.492 -0.0636  0.1396 -0.2261
 1264ERGO    R518198   1.143  14.443   7.486 -0.0706  0.1176 -0.1682
 1264ERGO    C118199   1.048  14.342   7.841 -0.1655  0.1666 -0.1796
 1264ERGO    C218200   1.023  14.358   8.193 -0.1048  0.1154 -0.0958
 1265ERGO   ROH18201  14.705  15.577   6.786 -0.1200 -0.0783  0.0631
 1265ERGO    R118202  14.699  15.732   7.023 -0.1249 -0.0839  0.0659
 1265ERGO    R218203  14.519  15.938   7.061 -0.1534 -0.1154  0.0839
 1265ERGO    R318204  14.458  15.801   7.288 -0.1129 -0.1266  0.0891
 1265ERGO    R418205  14.502  16.076   7.378 -0.1540 -0.1138  0.0838
 1265ERGO    R518206  14.599  15.897   7.456 -0.1152 -0.0988  0.0781
 1265ERGO    C118207  14.435  16.027   7.775 -0.1162 -0.1232  0.0886
 1265ERGO    C218208  14.441  16.022   8.186 -0.1659 -0.2578 -0.1314
 1266ERGO   ROH18209   3.739   4.204   7.039  0.1350 -0.0351 -0.0106
 1266ERGO    R118210   3.848   4.342   7.261 -0.0623  0.1673 -0.0350
 1266ERGO    R218211   3.691   4.468   7.450 -0.2535 -0.0777 -0.0176
 1266ERGO    R318212   3.833   4.315   7.623  0.0319  0.1634 -0.0327
 1266ERGO    R418213   3.656   4.475   7.793 -0.3080 -0.2250 -0.0206
 1266ERGO    R518214   3.873   4.459   7.811 -0.2750  0.2011  0.0028
 1266ERGO    C118215   3.769   4.335   8.156 -0.0719 -0.0843 -0.0364
 1266ERGO    C218216   3.813   4.395   8.539  0.1363  0.1154 -0.0249
 1267ERGO   ROH18217   4.701   0.172   7.063 -0.0040 -0.0599  0.1356
 1267ERGO    R118218   4.612   0.257   7.318 -0.0206  0.0007  0.1105
 1267ERGO    R218219   4.583   0.083   7.531 -0.0350  0.0501  0.1516
 1267ERGO    R318220   4.746   0.261   7.657 -0.0419  0.0795  0.1177
 1267ERGO    R418221   4.602   0.125   7.873 -0.1199  0.1952  0.1386
 1267ERGO    R518222   4.615   0.341   7.841 -0.0787  0.1790  0.0489
 1267ERGO    C118223   4.765   0.317   8.191 -0.1759  0.3074  0.0991
 1267ERGO    C218224   4.736   0.415   8.451 -0.0465  0.1001 -0.0824
 1268ERGO   ROH18225  10.963  15.036   6.485 -0.1312  0.1779 -0.0299
 1268ERGO    R118226  10.903  14.886   6.717 -0.0225  0.0214 -0.1020
 1268ERGO    R218227  11.096  14.748   6.859  0.0673  0.0482 -0.2018
 1268ERGO    R318228  10.999  14.892   7.068  0.0172 -0.1169 -0.1089
 1268ERGO    R418229  11.124  14.657   7.191  0.0517 -0.1869 -0.2630
 1268ERGO    R518230  10.920  14.727   7.222  0.0319 -0.2464 -0.2344
 1268ERGO    C118231  11.049  14.739   7.581 -0.0044 -0.4787 -0.2114
 1268ERGO    C218232  11.060  14.696   7.794 -0.0362  0.1532  0.0339
 1269ERGO   ROH18233   6.740   8.016   6.636 -0.1460 -0.1145  0.0716
 1269ERGO    R118234   6.840   7.961   6.895 -0.1828 -0.0996  0.0897
 1269ERGO    R218235   6.921   8.160   7.069 -0.0589 -0.0949  0.0325
 1269ERGO    R318236   6.745   8.039   7.237 -0.1393  0.0648  0.0643
 1269ERGO    R418237   6.941   8.166   7.414 -0.1009  0.0386  0.0328
 1269ERGO    R518238   6.881   7.957   7.416 -0.2054  0.0721  0.1152
 1269ERGO    C118239   6.788   8.056   7.773 -0.2008  0.2664  0.0628
 1269ERGO    C218240   6.727   8.071   8.204  0.0389  0.4114  0.4473
 1270ERGO   ROH18241   6.824  13.045   6.668  0.0092  0.0448 -0.1507
 1270ERGO    R118242   6.723  13.046   6.932  0.0275  0.1484 -0.1454
 1270ERGO    R218243   6.753  12.831   7.103 -0.0893  0.1640 -0.1182
 1270ERGO    R318244   6.861  13.019   7.268  0.0294  0.1229 -0.1456
 1270ERGO    R418245   6.739  12.822   7.448  0.1219  0.0777 -0.1092
 1270ERGO    R518246   6.704  13.037   7.448  0.1339  0.0894 -0.0405
 1270ERGO    C118247   6.832  12.992   7.804  0.3564 -0.0109 -0.1298
 1270ERGO    C218248   6.861  12.939   8.206  0.3937 -0.0133 -0.0081
 1271ERGO   ROH18249   1.223   8.816   6.835  0.1397 -0.0159 -0.1081
 1271ERGO    R118250   1.308   8.969   7.057 -0.1283  0.1012 -0.0803
 1271ERGO    R218251   1.180   8.961   7.302 -0.1138 -0.1783 -0.0737
 1271ERGO    R318252   1.429   8.901   7.394  0.0043  0.2480 -0.0983
 1271ERGO    R418253   1.281   8.982   7.632 -0.1283 -0.0683 -0.0768
 1271ERGO    R518254   1.471   9.063   7.564 -0.2746  0.2880 -0.0679
 1271ERGO    C118255   1.573   8.938   7.910 -0.0259  0.3959 -0.1018
 1271ERGO    C218256   1.636   8.817   8.246 -0.1250 -0.1165 -0.2503
 1272ERGO   ROH18257  10.797  16.708   6.613  0.1097  0.3372  0.0758
 1272ERGO    R118258  10.924  16.604   6.844  0.0305  0.1975  0.0576
 1272ERGO    R218259  11.019  16.766   7.047  0.1824  0.0906  0.0719
 1272ERGO    R318260  10.863  16.607   7.203  0.0502  0.2076  0.0613
 1272ERGO    R418261  11.054  16.730   7.389  0.3822 -0.2194  0.0234
 1272ERGO    R518262  11.014  16.517   7.365  0.0386 -0.1491 -0.1142
 1272ERGO    C118263  10.928  16.561   7.734  0.3743 -0.2901 -0.0149
 1272ERGO    C218264  10.796  16.747   7.994 -0.0762 -0.0693  0.0259
 1273ERGO   ROH18265  13.414   2.769   7.032 -0.1978  0.1443 -0.0213
 1273ERGO    R118266  13.267   2.779   7.274 -0.0826  0.1378  0.0500
 1273ERGO    R218267  13.295   2.590   7.473 -0.0307  0.0992  0.0063
 1273ERGO    R318268  13.343   2.808   7.629  0.0904  0.0636  0.0201
 1273ERGO    R418269  13.343   2.581   7.815 -0.1500  0.0632  0.0226
 1273ERGO    R518270  13.223   2.763   7.831 -0.0126  0.1588 -0.0185
 1273ERGO    C118271  13.415   2.781   8.160 -0.1057  0.0088  0.0451
 1273ERGO    C218272  13.487   2.797   8.517 -0.1088  0.1628  0.0706
 1274ERGO   ROH18273   3.214   5.157   7.041  0.0938 -0.1917 -0.0302
 1274ERGO    R118274   3.226   5.311   7.278  0.0671 -0.1013 -0.0852
 1274ERGO    R218275   3.043   5.283   7.484  0.0132  0.0084 -0.1083
 1274ERGO    R318276   3.266   5.245   7.634 -0.0229  0.0246 -0.0533
 1274ERGO    R418277   3.052   5.289   7.829 -0.0422  0.1104 -0.1095
 1274ERGO    R518278   3.241   5.397   7.817 -0.0317  0.0777 -0.1051
 1274ERGO    C118279   3.267   5.257   8.171 -0.1084  0.1849 -0.0586
 1274ERGO    C218280   3.219   5.225   8.485  0.1867 -0.1848 -0.2148
 1275ERGO   ROH18281   8.158   5.737   6.642 -0.0987  0.0184  0.0755
 1275ERGO    R118282   8.283   5.717   6.895 -0.0949  0.0473  0.0769
 1275ERGO    R218283   8.295   5.929   7.073 -0.0961  0.0692  0.0575
 1275ERGO    R318284   8.181   5.750   7.243 -0.0938  0.0833  0.0725
 1275ERGO    R418285   8.283   5.963   7.416 -0.1619  0.1244  0.0494
 1275ERGO    R518286   8.326   5.750   7.434 -0.1306  0.1395  0.0959
 1275ERGO    C118287   8.170   5.816   7.777 -0.1981  0.1697  0.0588
 1275ERGO    C218288   8.154   5.897   8.159  0.1224  0.0078 -0.1815
 1276ERGO   ROH18289   4.587  15.843   7.310 -0.3107 -0.1361  0.0674
 1276ERGO    R118290   4.589  15.952   7.571 -0.3353 -0.0360  0.0266
 1276ERGO    R218291   4.391  15.899   7.756 -0.2609 -0.1094  0.0879
 1276ERGO    R318292   4.601  15.824   7.911 -0.1733  0.0986  0.0726
 1276ERGO    R418293   4.384  15.875   8.101 -0.2185 -0.1433  0.0863
 1276ERGO    R518294   4.584  15.962   8.107 -0.3080  0.0659  0.0832
 1276ERGO    C118295   4.577  15.791   8.447 -0.1117  0.0321  0.0709
 1276ERGO    C218296   4.602  15.861   8.746 -0.1204  0.3968  0.0666
 1277ERGO   ROH18297  12.957  10.872   6.684 -0.0701  0.0211  0.0963
 1277ERGO    R118298  13.019  10.990   6.934 -0.1239  0.0916  0.0769
 1277ERGO    R218299  12.824  11.070   7.113 -0.1615 -0.0029  0.0810
 1277ERGO    R318300  12.962  10.911   7.284 -0.0519  0.1019  0.0908
 1277ERGO    R418301  12.788  11.072   7.456  0.0099  0.1582  0.0996
 1277ERGO    R518302  13.004  11.050   7.475  0.0219  0.2005  0.0028
 1277ERGO    C118303  12.897  10.923   7.818  0.2125  0.3505  0.1196
 1277ERGO    C218304  12.771  10.876   8.158  0.2943 -0.1424 -0.0590
 1278ERGO   ROH18305  14.372   8.274   6.651 -0.3016 -0.0814 -0.0199
 1278ERGO    R118306  14.250   8.277   6.906 -0.2644  0.1167 -0.0036
 1278ERGO    R218307  14.350   8.134   7.120 -0.5140 -0.1198 -0.0415
 1278ERGO    R318308  14.345   8.376   7.243 -0.0199 -0.1226  0.0012
 1278ERGO    R418309  14.309   8.182   7.460 -0.6598 -0.0940 -0.0617
 1278ERGO    R518310  14.180   8.353   7.415 -0.2200  0.2375 -0.1300
 1278ERGO    C118311  14.281   8.438   7.773 -0.2807 -0.0816 -0.0334
 1278ERGO    C218312  14.143   8.312   8.061  0.3651 -0.0960  0.2690
 1279ERGO   ROH18313   2.306  10.071   6.739 -0.0363  0.0568 -0.1459
 1279ERGO    R118314   2.371  10.256   6.943 -0.0826  0.1138 -0.1814
 1279ERGO    R218315   2.186  10.346   7.127 -0.0696 -0.0193 -0.0967
 1279ERGO    R318316   2.371  10.260   7.307  0.0802  0.1218 -0.1816
 1279ERGO    R418317   2.178  10.412   7.467 -0.0491 -0.1622 -0.0688
 1279ERGO    R518318   2.394  10.441   7.461 -0.0846  0.0871 -0.1177
 1279ERGO    C118319   2.348  10.369   7.832  0.1035 -0.1127 -0.1323
 1279ERGO    C218320   2.429  10.251   8.135  0.3266  0.0148  0.0864
 1280ERGO   ROH18321   2.736   7.633   6.893  0.0336 -0.1768 -0.0894
 1280ERGO    R118322   2.787   7.505   7.140 -0.1987 -0.0843  0.0088
 1280ERGO    R218323   2.974   7.598   7.320 -0.0716 -0.2483 -0.0414
 1280ERGO    R318324   2.764   7.591   7.493 -0.1069  0.2047 -0.0518
 1280ERGO    R418325   3.001   7.609   7.665 -0.0580 -0.3064 -0.0400
 1280ERGO    R518326   2.842   7.459   7.677 -0.3922  0.0254 -0.0481
 1280ERGO    C118327   2.819   7.608   8.027 -0.0831  0.0850 -0.0489
 1280ERGO    C218328   3.012   7.527   8.377  0.0594 -0.1955  0.0152
 1281ERGO   ROH18329  13.017  13.647   6.541 -0.0716  0.0916  0.0453
 1281ERGO    R118330  12.938  13.576   6.803 -0.0408  0.1060  0.0582
 1281ERGO    R218331  13.118  13.491   6.995 -0.0169  0.1337  0.0458
 1281ERGO    R318332  13.007  13.692   7.141 -0.0169  0.1359  0.0433
 1281ERGO    R418333  13.089  13.494   7.340 -0.0845  0.1017  0.0408
 1281ERGO    R518334  12.891  13.581   7.318 -0.0689  0.1334  0.0093
 1281ERGO    C118335  12.969  13.684   7.677 -0.1238  0.0850  0.0356
 1281ERGO    C218336  12.966  13.716   7.990  0.0199  0.1660  0.1626
 1282ERGO   ROH18337  12.019   8.309   6.388 -0.2379  0.0987 -0.0266
 1282ERGO    R118338  12.054   8.196   6.645 -0.2887  0.0499 -0.0413
 1282ERGO    R218339  12.229   8.301   6.832 -0.1401 -0.1307 -0.0766
 1282ERGO    R318340  12.007   8.304   6.990 -0.1032  0.0782 -0.0240
 1282ERGO    R418341  12.225   8.226   7.169 -0.1277 -0.0987 -0.0689
 1282ERGO    R518342  12.038   8.119   7.138 -0.2311  0.0625 -0.0155
 1282ERGO    C118343  12.016   8.184   7.513 -0.0858  0.1162 -0.0150
 1282ERGO    C218344  12.111   8.134   7.808 -0.2528 -0.0309  0.1773
 1283ERGO   ROH18345   1.776   3.248   7.125  0.1114 -0.0392  0.0008
 1283ERGO    R118346   1.759   3.093   7.361  0.0886 -0.0162  0.0147
 1283ERGO    R218347   1.979   2.966   7.473  0.0819  0.0099  0.0596
 1283ERGO    R318348   1.903   3.104   7.695  0.0410  0.0283  0.0338
 1283ERGO    R418349   2.003   2.849   7.797 -0.0336  0.0133  0.0695
 1283ERGO    R518350   1.810   2.938   7.839 -0.0302  0.0482  0.0105
 1283ERGO    C118351   1.947   2.910   8.194 -0.1393  0.0324  0.0512
 1283ERGO    C218352   2.089   2.981   8.508  0.2907 -0.0190 -0.0342
 1284ERGO   ROH18353  17.144  10.726   6.677  0.2171  0.0791  0.0714
 1284ERGO    R118354  17.081  10.587   6.916  0.1732  0.0523  0.0460
 1284ERGO    R218355  17.270  10.529   7.109  0.1332  0.0689  0.1002
 1284ERGO    R318356  17.094  10.656   7.273  0.0655  0.0345  0.0519
 1284ERGO    R418357  17.270  10.508   7.454 -0.1410 -0.1515  0.0884
 1284ERGO    R518358  17.053  10.499   7.448 -0.1357 -0.0566 -0.0801
 1284ERGO    C118359  17.104  10.614   7.808 -0.3641 -0.3120  0.0363
 1284ERGO    C218360  17.155  10.549   8.154  0.0170  0.0536 -0.1753
 1285ERGO   ROH18361   3.809  16.579  10.911  0.1352  0.3086 -0.0516
 1285ERGO    R118362   3.843  16.488  10.646  0.1134  0.2501 -0.0352
 1285ERGO    R218363   3.630  16.419  10.484  0.1050  0.0841  0.0401
 1285ERGO    R318364   3.743  16.598  10.313 -0.0401  0.1001 -0.0400
 1285ERGO    R418365   3.618  16.398  10.139  0.4227 -0.2805  0.0463
 1285ERGO    R518366   3.826  16.464  10.133  0.3269  0.0476  0.1592
 1285ERGO    C118367   3.718  16.553   9.778  0.4714 -0.4779 -0.0254
 1285ERGO    C218368   3.625  16.595   9.428  0.1868 -0.0522  0.0321
 1286ERGO   ROH18369  14.646   0.947   7.498  0.2088 -0.0069  0.0777
 1286ERGO    R118370  14.764   0.897   7.750  0.0725 -0.0134  0.1400
 1286ERGO    R218371  14.657   0.993   7.986 -0.1561 -0.1734  0.1005
 1286ERGO    R318372  14.666   0.731   8.059 -0.0207 -0.1937  0.0168
 1286ERGO    R418373  14.676   0.880   8.312 -0.3164 -0.2659  0.0800
 1286ERGO    R518374  14.817   0.727   8.246 -0.1524 -0.1436  0.1294
 1286ERGO    C118375  14.697   0.568   8.571 -0.2827 -0.3388 -0.0106
 1286ERGO    C218376  14.580   0.354   8.769 -0.0242  0.2045 -0.2203
 1287ERGO   ROH18377   1.545   2.197   7.119  0.1094 -0.0974 -0.0008
 1287ERGO    R118378   1.406   2.132   7.356  0.0333  0.0582 -0.0015
 1287ERGO    R218379   1.451   1.898   7.497 -0.1257  0.0730  0.0794
 1287ERGO    R318380   1.492   2.069   7.704 -0.0572  0.1157  0.0312
 1287ERGO    R418381   1.494   1.803   7.826 -0.0486  0.1464  0.0911
 1287ERGO    R518382   1.370   1.972   7.886 -0.0173  0.1690  0.0849
 1287ERGO    C118383   1.556   1.908   8.213  0.0607  0.2293  0.0526
 1287ERGO    C218384   1.577   2.021   8.529 -0.0714  0.0497  0.0159
 1288ERGO   ROH18385   3.938   1.628   7.082 -0.1234 -0.0249 -0.0081
 1288ERGO    R118386   3.981   1.714   7.348 -0.1204 -0.0466 -0.0020
 1288ERGO    R218387   3.773   1.763   7.524 -0.1154 -0.1044  0.0167
 1288ERGO    R318388   3.910   1.588   7.682 -0.0728 -0.0958 -0.0097
 1288ERGO    R418389   3.831   1.805   7.862 -0.0949 -0.1205  0.0156
 1288ERGO    R518390   4.033   1.727   7.833 -0.0826 -0.0856 -0.0086
 1288ERGO    C118391   3.993   1.665   8.207 -0.0429 -0.1218 -0.0098
 1288ERGO    C218392   3.853   1.703   8.636 -0.0932  0.0056  0.1133
 1289ERGO   ROH18393   6.404  15.787   6.938 -0.1401  0.3054  0.0198
 1289ERGO    R118394   6.396  15.619   7.166 -0.2565  0.1627 -0.0873
 1289ERGO    R218395   6.579  15.641   7.373 -0.1659 -0.1765 -0.1277
 1289ERGO    R318396   6.354  15.662   7.525 -0.0959 -0.0241 -0.0437
 1289ERGO    R418397   6.574  15.735   7.705  0.0166 -0.0896 -0.1484
 1289ERGO    R518398   6.421  15.583   7.741 -0.0484 -0.0046 -0.0499
 1289ERGO    C118399   6.360  15.810   8.042  0.1886  0.1041 -0.0815
 1289ERGO    C218400   6.260  15.825   8.389  0.1233 -0.0596  0.0875
 1290ERGO   ROH18401   9.556  11.489   6.537  0.1472  0.1798 -0.0414
 1290ERGO    R118402   9.521  11.372   6.793  0.0177  0.1802 -0.0577
 1290ERGO    R218403   9.724  11.360   6.980  0.0156 -0.0874 -0.0631
 1290ERGO    R318404   9.540  11.482   7.139  0.1609  0.1086 -0.0431
 1290ERGO    R418405   9.721  11.346   7.326  0.0957  0.0135 -0.0587
 1290ERGO    R518406   9.504  11.327   7.318  0.0804  0.1915  0.0091
 1290ERGO    C118407   9.548  11.454   7.676  0.2789  0.2562 -0.0374
 1290ERGO    C218408   9.476  11.474   8.029 -0.0284 -0.0718 -0.0278
 1291ERGO   ROH18409   5.282  12.725   6.988 -0.0210 -0.1495  0.0071
 1291ERGO    R118410   5.175  12.674   7.245  0.0239 -0.1458  0.0269
 1291ERGO    R218411   5.297  12.505   7.426  0.0888 -0.0967  0.0327
 1291ERGO    R318412   5.281  12.721   7.589  0.0579 -0.0799  0.0068
 1291ERGO    R418413   5.364  12.502   7.765  0.0538 -0.0497  0.0399
 1291ERGO    R518414   5.194  12.634   7.795  0.0439 -0.0593  0.0075
 1291ERGO    C118415   5.388  12.703   8.116  0.0044 -0.0065  0.0198
 1291ERGO    C218416   5.455  12.856   8.416 -0.0649  0.1745  0.2682
 1292ERGO   ROH18417  12.686  11.976   6.645  0.1862  0.1721  0.0057
 1292ERGO    R118418  12.655  11.815   6.876  0.0353  0.1601 -0.0216
 1292ERGO    R218419  12.860  11.768   7.054  0.0116 -0.1107 -0.0569
 1292ERGO    R318420  12.681  11.861   7.236  0.1395  0.0608 -0.0168
 1292ERGO    R418421  12.907  11.764   7.396  0.0117 -0.3120 -0.0587
 1292ERGO    R518422  12.697  11.707   7.419 -0.0666 -0.0366 -0.0794
 1292ERGO    C118423  12.766  11.849   7.766  0.1319 -0.2681 -0.0221
 1292ERGO    C218424  12.666  11.854   8.101 -0.1186 -0.0441  0.2559
 1293ERGO   ROH18425   2.405   7.972   7.010  0.0100 -0.0677  0.0468
 1293ERGO    R118426   2.484   7.897   7.271 -0.0594 -0.0311  0.0787
 1293ERGO    R218427   2.669   8.040   7.419  0.0774 -0.1393  0.0167
 1293ERGO    R318428   2.470   8.043   7.604  0.0778  0.1251  0.0166
 1293ERGO    R418429   2.713   7.983   7.757  0.0288  0.0348  0.0536
 1293ERGO    R518430   2.528   7.867   7.756 -0.0578  0.1745  0.1253
 1293ERGO    C118431   2.552   7.952   8.127  0.0009  0.3844  0.0751
 1293ERGO    C218432   2.634   7.951   8.505  0.0808  0.0543  0.0313
 1294ERGO   ROH18433   4.214  15.156   6.675 -0.1811  0.0341 -0.1235
 1294ERGO    R118434   4.103  15.038   6.907 -0.1223  0.0099 -0.1065
 1294ERGO    R218435   4.250  14.876   7.076 -0.0602  0.0427 -0.1223
 1294ERGO    R318436   4.164  15.051   7.265 -0.0742  0.0278 -0.1164
 1294ERGO    R418437   4.274  14.827   7.418 -0.0682  0.0328 -0.1240
 1294ERGO    R518438   4.076  14.913   7.439 -0.0700  0.0191 -0.1250
 1294ERGO    C118439   4.207  14.963   7.794 -0.0860  0.0129 -0.1193
 1294ERGO    C218440   4.183  14.905   8.139  0.1201 -0.2018 -0.3378
 1295ERGO   ROH18441   6.986   0.972   6.595  0.0459  0.1254  0.1310
 1295ERGO    R118442   6.912   0.936   6.866  0.0867  0.0092  0.1275
 1295ERGO    R218443   7.025   0.741   7.027  0.1253 -0.0480  0.0336
 1295ERGO    R318444   7.078   0.952   7.190  0.1311 -0.1092  0.1111
 1295ERGO    R418445   7.054   0.723   7.371 -0.0842 -0.1387  0.0475
 1295ERGO    R518446   6.946   0.911   7.385 -0.0028 -0.0901  0.0250
 1295ERGO    C118447   7.120   0.911   7.724 -0.2007 -0.2491  0.1283
 1295ERGO    C218448   7.083   0.850   8.025  0.1909 -0.1700  0.0405
 1296ERGO   ROH18449  13.125  14.147   6.591  0.0607  0.0405 -0.0748
 1296ERGO    R118450  13.180  14.035   6.845 -0.1740 -0.0246 -0.0509
 1296ERGO    R218451  13.336  14.163   7.034 -0.0090 -0.2514 -0.0313
 1296ERGO    R318452  13.118  14.124   7.193 -0.1115  0.1095 -0.0729
 1296ERGO    R418453  13.325  14.227   7.373  0.0824 -0.3573 -0.0075
 1296ERGO    R518454  13.209  14.044   7.399 -0.2832 -0.1513 -0.0912
 1296ERGO    C118455  13.114  14.228   7.720  0.0395 -0.0801 -0.0325
 1296ERGO    C218456  13.154  14.235   8.137  0.1358  0.2438 -0.1784
 1297ERGO   ROH18457  11.832  10.969   6.718 -0.1137  0.0226 -0.0298
 1297ERGO    R118458  11.913  10.864   6.968  0.0089  0.1243 -0.0240
 1297ERGO    R218459  11.975  11.025   7.184 -0.1000  0.2122 -0.0468
 1297ERGO    R318460  11.789  10.872   7.311  0.0404  0.0687 -0.0137
 1297ERGO    R418461  11.934  11.008   7.527 -0.1451  0.2993 -0.0487
 1297ERGO    R518462  11.902  10.793   7.507  0.0837  0.2631  0.0340
 1297ERGO    C118463  11.736  10.855   7.845 -0.0395  0.2153 -0.0187
 1297ERGO    C218464  11.843  10.933   8.163 -0.0838  0.1960 -0.1844
 1298ERGO   ROH18465  11.634   0.487   6.735 -0.2166  0.0373 -0.1622
 1298ERGO    R118466  11.564   0.378   6.987 -0.1474  0.1137 -0.1098
 1298ERGO    R218467  11.733   0.389   7.205 -0.0404  0.0797 -0.1901
 1298ERGO    R318468  11.518   0.504   7.325  0.0648  0.1962 -0.1099
 1298ERGO    R418469  11.646   0.348   7.537 -0.0206  0.0095 -0.1935
 1298ERGO    R518470  11.437   0.337   7.476 -0.0402  0.1945 -0.1667
 1298ERGO    C118471  11.393   0.432   7.843  0.0896  0.0779 -0.1201
 1298ERGO    C218472  11.372   0.382   8.172  0.2345  0.2477  0.1753
 1299ERGO   ROH18473  11.785   1.450   6.785  0.1794 -0.0499  0.0302
 1299ERGO    R118474  11.714   1.346   7.039  0.0380 -0.1212 -0.0377
 1299ERGO    R218475  11.868   1.387   7.265 -0.1121 -0.1440  0.0696
 1299ERGO    R318476  11.634   1.481   7.367 -0.1952 -0.2113 -0.0555
 1299ERGO    R418477  11.769   1.354   7.594 -0.1916 -0.0057  0.0604
 1299ERGO    R518478  11.567   1.314   7.525 -0.1498 -0.1576  0.0221
 1299ERGO    C118479  11.493   1.423   7.882 -0.3160  0.0116 -0.0624
 1299ERGO    C218480  11.418   1.403   8.185 -0.0874  0.3029 -0.1071
 1300ERGO   ROH18481   4.988   7.376   6.697  0.1978 -0.1467 -0.0023
 1300ERGO    R118482   5.039   7.491   6.950  0.2152 -0.1616  0.0001
 1300ERGO    R218483   4.836   7.571   7.120  0.2300  0.0769 -0.0980
 1300ERGO    R318484   4.964   7.410   7.297 -0.0131 -0.0308 -0.0148
 1300ERGO    R418485   4.905   7.655   7.448  0.3108  0.1316 -0.1279
 1300ERGO    R518486   5.100   7.560   7.426  0.1873 -0.1571 -0.0684
 1300ERGO    C118487   5.065   7.553   7.805  0.1296  0.0623 -0.0674
 1300ERGO    C218488   4.962   7.532   8.092 -0.1375 -0.3290  0.0889
 1301ERGO   ROH18489   1.868  12.610   6.830 -0.1211  0.1926  0.0149
 1301ERGO    R118490   1.855  12.535   7.103 -0.2062  0.2027  0.0148
 1301ERGO    R218491   2.070  12.562   7.275 -0.1101 -0.2154 -0.0267
 1301ERGO    R318492   1.892  12.702   7.424  0.1833  0.1254  0.0145
 1301ERGO    R418493   2.069  12.574   7.620 -0.0910 -0.3320 -0.0229
 1301ERGO    R518494   1.852  12.563   7.615 -0.1252  0.1415 -0.0350
 1301ERGO    C118495   1.902  12.713   7.962  0.1955 -0.0799  0.0180
 1301ERGO    C218496   1.861  12.702   8.341  0.0511 -0.2240 -0.2588
 1302ERGO   ROH18497   7.710   9.476   6.558 -0.1579 -0.1208  0.0596
 1302ERGO    R118498   7.632   9.406   6.821 -0.0580 -0.1804  0.0722
 1302ERGO    R218499   7.789   9.248   6.985  0.1900  0.1131  0.1146
 1302ERGO    R318500   7.762   9.457   7.157 -0.1549  0.1139  0.0703
 1302ERGO    R418501   7.761   9.218   7.328  0.4779  0.1284  0.1428
 1302ERGO    R518502   7.611   9.377   7.324  0.1160 -0.1866  0.1910
 1302ERGO    C118503   7.720   9.396   7.690  0.3218  0.1380  0.1177
 1302ERGO    C218504   7.741   9.374   7.979  0.1166  0.1866  0.0228
 1303ERGO   ROH18505  14.779  14.426   7.089 -0.0700  0.1283 -0.0377
 1303ERGO    R118506  14.882  14.428   7.353  0.0456  0.0653 -0.0805
 1303ERGO    R218507  14.765  14.573   7.558  0.1807  0.0827 -0.0098
 1303ERGO    R318508  14.764  14.332   7.684  0.1555  0.0680 -0.0406
 1303ERGO    R418509  14.742  14.529   7.900  0.1177  0.0403 -0.0205
 1303ERGO    R518510  14.889  14.370   7.884  0.1182  0.0418 -0.0136
 1303ERGO    C118511  14.727  14.278   8.217  0.0576  0.0018 -0.0558
 1303ERGO    C218512  14.674  14.245   8.597 -0.0161  0.0993  0.3252
 1304ERGO   ROH18513   6.410  11.958   6.850  0.0108  0.3105  0.0164
 1304ERGO    R118514   6.314  11.965   7.116  0.0107  0.4916  0.0143
 1304ERGO    R218515   6.359  11.761   7.296 -0.6846  0.2078 -0.0878
 1304ERGO    R318516   6.459  11.962   7.450  0.0057 -0.1851  0.0204
 1304ERGO    R418517   6.306  11.794   7.636 -0.6306  0.2653 -0.0857
 1304ERGO    R518518   6.284  12.009   7.606  0.1310  0.3759  0.0017
 1304ERGO    C118519   6.369  12.003   7.978  0.0488 -0.0702  0.0171
 1304ERGO    C218520   6.572  12.024   8.307 -0.1470  0.2720 -0.2099
 1305ERGO   ROH18521  13.724  11.948   6.718  0.3786  0.3267 -0.1037
 1305ERGO    R118522  13.864  12.003   6.958  0.1491  0.2594  0.0492
 1305ERGO    R218523  13.769  12.179   7.148 -0.0591  0.1663  0.0330
 1305ERGO    R318524  13.802  11.967   7.315 -0.1726  0.1074 -0.0178
 1305ERGO    R418525  13.763  12.196   7.494 -0.1418  0.0722  0.0369
 1305ERGO    R518526  13.929  12.055   7.498 -0.1894  0.0147  0.0398
 1305ERGO    C118527  13.791  12.007   7.851 -0.2965 -0.0378 -0.0086
 1305ERGO    C218528  13.713  11.957   8.213 -0.2581  0.0943 -0.0545
 1306ERGO   ROH18529   5.017   2.092   6.964 -0.1889 -0.0690  0.1499
 1306ERGO    R118530   5.180   2.070   7.195 -0.0571 -0.0373  0.0614
 1306ERGO    R218531   5.188   2.265   7.391  0.0694  0.0010  0.0251
 1306ERGO    R318532   5.129   2.057   7.555  0.1460  0.0336  0.0929
 1306ERGO    R418533   5.153   2.287   7.734  0.0196  0.1002  0.0135
 1306ERGO    R518534   5.258   2.097   7.752  0.1015  0.1582  0.0931
 1306ERGO    C118535   5.078   2.104   8.088  0.0625  0.1885  0.0705
 1306ERGO    C218536   5.106   2.127   8.356  0.3120 -0.4343  0.0643
 1307ERGO   ROH18537  15.315  11.258   6.590 -0.0167 -0.3818 -0.0118
 1307ERGO    R118538  15.408  11.178   6.845  0.2235 -0.1873 -0.0338
 1307ERGO    R218539  15.588  11.328   6.992 -0.1437  0.2729 -0.0270
 1307ERGO    R318540  15.396  11.311   7.184 -0.0950 -0.2648 -0.0116
 1307ERGO    R418541  15.647  11.327   7.333 -0.1116  0.4244 -0.0312
 1307ERGO    R518542  15.493  11.175   7.354  0.3002 -0.0107 -0.0222
 1307ERGO    C118543  15.500  11.310   7.711 -0.0472  0.0079 -0.0193
 1307ERGO    C218544  15.483  11.330   8.081  0.1298  0.3407  0.0728
 1308ERGO   ROH18545  13.286   6.553   6.687 -0.1056  0.1605 -0.1628
 1308ERGO    R118546  13.264   6.427   6.940 -0.0707  0.1272 -0.1766
 1308ERGO    R218547  13.455   6.457   7.138  0.0321 -0.0186 -0.2523
 1308ERGO    R318548  13.241   6.533   7.287  0.1388  0.0788 -0.1459
 1308ERGO    R418549  13.439   6.443   7.483  0.1829 -0.0409 -0.2454
 1308ERGO    R518550  13.233   6.374   7.466  0.1389  0.0665 -0.1569
 1308ERGO    C118551  13.229   6.507   7.824  0.3709  0.0375 -0.1414
 1308ERGO    C218552  13.110   6.456   8.186  0.2562 -0.1793  0.1846
 1309ERGO   ROH18553  16.377  11.682   6.639 -0.1399 -0.3603 -0.0169
 1309ERGO    R118554  16.324  11.824   6.878  0.0309 -0.2056 -0.0687
 1309ERGO    R218555  16.128  11.747   7.056 -0.0018  0.0430  0.0069
 1309ERGO    R318556  16.332  11.755   7.235  0.0422 -0.0533 -0.0387
 1309ERGO    R418557  16.092  11.811   7.394  0.1176  0.1892 -0.0070
 1309ERGO    R518558  16.273  11.932   7.385  0.2110  0.0461 -0.0873
 1309ERGO    C118559  16.263  11.855   7.759  0.2285  0.1840 -0.0578
 1309ERGO    C218560  16.251  11.892   8.127 -0.1897  0.1418 -0.0915
 1310ERGO   ROH18561  16.308   1.574   7.154 -0.1707 -0.0506  0.1513
 1310ERGO    R118562  16.460   1.619   7.388 -0.1991  0.1725  0.1306
 1310ERGO    R218563  16.379   1.791   7.588 -0.4032  0.0931  0.1274
 1310ERGO    R318564  16.415   1.573   7.746 -0.1035  0.1478  0.1377
 1310ERGO    R418565  16.410   1.798   7.933 -0.3107  0.1451  0.1176
 1310ERGO    R518566  16.565   1.647   7.917 -0.1427  0.3282  0.0880
 1310ERGO    C118567  16.462   1.597   8.281  0.0244  0.2267  0.1214
 1310ERGO    C218568  16.485   1.489   8.728 -0.1279 -0.1109  0.1868
 1311ERGO   ROH18569   9.611  15.226   6.464  0.3795 -0.0983 -0.0842
 1311ERGO    R118570   9.718  15.154   6.716  0.1833 -0.0112  0.0257
 1311ERGO    R218571   9.711  15.324   6.934 -0.2156 -0.0310  0.0353
 1311ERGO    R318572   9.590  15.112   7.054 -0.1375 -0.1593 -0.1085
 1311ERGO    R418573   9.685  15.278   7.276 -0.4583 -0.1168  0.0071
 1311ERGO    R518574   9.726  15.067   7.246 -0.2533 -0.0801 -0.0041
 1311ERGO    C118575   9.556  15.052   7.587 -0.5263 -0.2870 -0.1444
 1311ERGO    C218576   9.647  14.984   7.884 -0.2525 -0.2720 -0.4835
 1312ERGO   ROH18577   8.354  16.799   6.641  0.0418 -0.1041  0.0329
 1312ERGO    R118578   8.393  16.715   6.909  0.0926 -0.0404  0.0456
 1312ERGO    R218579   8.600  16.811   7.066  0.0824  0.0484  0.0061
 1312ERGO    R318580   8.399  16.873   7.237  0.0825  0.0257  0.0142
 1312ERGO    R418581   8.619  16.787   7.410  0.1321  0.1423  0.0101
 1312ERGO    R518582   8.416  16.709   7.411  0.1575  0.0755  0.0542
 1312ERGO    C118583   8.440  16.831   7.771  0.1611  0.1757  0.0200
 1312ERGO    C218584   8.401  16.724   8.119  0.1379  0.1928  0.0086
 1313ERGO   ROH18585  14.118  16.693   6.900 -0.0066  0.3212 -0.0530
 1313ERGO    R118586  13.955  16.697   7.132  0.0372  0.0884 -0.0155
 1313ERGO    R218587  14.001  16.532   7.349  0.2742  0.0920 -0.0599
 1313ERGO    R318588  14.003  16.766   7.486  0.0378  0.0687 -0.0117
 1313ERGO    R418589  13.977  16.560   7.692  0.2316 -0.0001 -0.0548
 1313ERGO    R518590  13.847  16.732   7.665  0.0622 -0.1206 -0.0245
 1313ERGO    C118591  13.965  16.796   8.022 -0.0149 -0.0755 -0.0065
 1313ERGO    C218592  13.972  16.849   8.352  0.1693  0.0785 -0.0766
 1314ERGO   ROH18593   4.812   3.559   7.129  0.4078  0.0471  0.0238
 1314ERGO    R118594   4.912   3.439   7.365  0.3579  0.1241  0.0848
 1314ERGO    R218595   5.021   3.587   7.571  0.1560  0.2066  0.1364
 1314ERGO    R318596   4.837   3.454   7.721  0.1586  0.0995  0.0450
 1314ERGO    R418597   5.020   3.573   7.917  0.1261  0.0173  0.1294
 1314ERGO    R518598   4.962   3.363   7.903  0.1543  0.0155  0.0075
 1314ERGO    C118599   4.845   3.441   8.258  0.1111 -0.1933  0.0395
 1314ERGO    C218600   4.834   3.429   8.675 -0.0939 -0.1341 -0.0910
 1315ERGO   ROH18601   4.694  14.884   6.810 -0.1007  0.0183 -0.0001
 1315ERGO    R118602   4.787  14.965   7.065 -0.1255  0.0831 -0.0108
 1315ERGO    R218603   4.627  15.099   7.246 -0.1461  0.1277 -0.0567
 1315ERGO    R318604   4.701  14.897   7.412 -0.1590  0.1671 -0.0034
 1315ERGO    R418605   4.581  15.097   7.589 -0.1418  0.2146 -0.0558
 1315ERGO    R518606   4.778  15.007   7.610 -0.1513  0.2090 -0.0330
 1315ERGO    C118607   4.623  14.906   7.944 -0.1514  0.3024 -0.0052
 1315ERGO    C218608   4.668  14.772   8.310 -0.2067  0.2157  0.1878
 1316ERGO   ROH18609  13.204   8.271   6.661  0.0164  0.0959 -0.0744
 1316ERGO    R118610  13.153   8.178   6.924 -0.1046  0.1036 -0.0944
 1316ERGO    R218611  13.355   8.111   7.100 -0.1870 -0.1233 -0.0799
 1316ERGO    R318612  13.228   8.288   7.263 -0.0336 -0.0216 -0.0696
 1316ERGO    R418613  13.334   8.084   7.444 -0.0429 -0.0140 -0.0621
 1316ERGO    R518614  13.128   8.152   7.432 -0.0165  0.0736  0.0150
 1316ERGO    C118615  13.203   8.235   7.797  0.1851  0.1449 -0.0421
 1316ERGO    C218616  13.140   8.308   8.087  0.0635  0.1809 -0.1702
 1317ERGO   ROH18617   2.508   4.053   7.123 -0.4179  0.0415 -0.0171
 1317ERGO    R118618   2.393   4.014   7.379 -0.2308 -0.3163  0.0200
 1317ERGO    R218619   2.475   3.813   7.550  0.4679 -0.0735  0.0094
 1317ERGO    R318620   2.509   4.019   7.724 -0.1283  0.0644 -0.0157
 1317ERGO    R418621   2.464   3.785   7.894  0.4665 -0.0406  0.0115
 1317ERGO    R518622   2.355   3.973   7.901 -0.0536 -0.3237 -0.0436
 1317ERGO    C118623   2.490   3.963   8.258 -0.0941  0.1080 -0.0108
 1317ERGO    C218624   2.519   3.911   8.631  0.3019 -0.2224  0.0705
 1318ERGO   ROH18625  11.935  14.435   6.430 -0.0686  0.1549  0.0575
 1318ERGO    R118626  11.783  14.439   6.669 -0.0278  0.3607  0.0811
 1318ERGO    R218627  11.832  14.267   6.879 -0.3302  0.1755  0.0031
 1318ERGO    R318628  11.847  14.497   7.022  0.1461  0.0985  0.0966
 1318ERGO    R418629  11.831  14.286   7.224 -0.1586  0.0352  0.0136
 1318ERGO    R518630  11.702  14.461   7.209  0.1480  0.2827  0.1373
 1318ERGO    C118631  11.845  14.514   7.559  0.3885 -0.1188  0.1075
 1318ERGO    C218632  11.830  14.439   7.852  0.2427 -0.1862  0.2492
 1319ERGO   ROH18633   6.902  10.162   6.622 -0.0956  0.2375  0.0970
 1319ERGO    R118634   7.056  10.219   6.853 -0.0686  0.2211  0.0827
 1319ERGO    R218635   6.979  10.408   7.040 -0.0813  0.1579  0.1387
 1319ERGO    R318636   7.007  10.200   7.213  0.0011  0.1259  0.0882
 1319ERGO    R418637   7.061  10.438   7.374 -0.1857  0.1186  0.1688
 1319ERGO    R518638   7.189  10.264   7.354 -0.0721  0.2009  0.1526
 1319ERGO    C118639   7.135  10.262   7.732 -0.1691  0.0658  0.1390
 1319ERGO    C218640   7.094  10.356   8.057  0.2406  0.0200  0.0402
 1320ERGO   ROH18641  10.350   6.751   6.634  0.1368  0.0861  0.0917
 1320ERGO    R118642  10.325   6.873   6.888 -0.0844 -0.0410  0.1340
 1320ERGO    R218643  10.136   6.794   7.074  0.0374 -0.4298  0.1014
 1320ERGO    R318644  10.353   6.770   7.236  0.0784 -0.1167  0.0990
 1320ERGO    R418645  10.126   6.793   7.419  0.0487 -0.3976  0.1016
 1320ERGO    R518646  10.306   6.915   7.420 -0.1125 -0.1527  0.0804
 1320ERGO    C118647  10.323   6.770   7.772  0.0936 -0.0849  0.0994
 1320ERGO    C218648  10.368   6.769   7.998 -0.0205  0.4190 -0.0018
 1321ERGO   ROH18649  13.632  12.873   6.644 -0.1775 -0.0739 -0.0307
 1321ERGO    R118650  13.686  12.736   6.886 -0.1117 -0.0343 -0.0232
 1321ERGO    R218651  13.847  12.841   7.084 -0.0464 -0.0089 -0.0924
 1321ERGO    R318652  13.630  12.793   7.241  0.0000  0.0296 -0.0150
 1321ERGO    R418653  13.844  12.865   7.428  0.0871 -0.0192 -0.0897
 1321ERGO    R518654  13.721  12.686   7.435  0.0516  0.0039 -0.0511
 1321ERGO    C118655  13.639  12.834   7.777  0.2084  0.0111 -0.0156
 1321ERGO    C218656  13.522  12.929   8.075 -0.3423  0.2549 -0.2631
 1322ERGO   ROH18657  11.313   5.280   6.813  0.1396 -0.0023  0.0276
 1322ERGO    R118658  11.323   5.396   7.071  0.0444  0.0232  0.0203
 1322ERGO    R218659  11.096   5.474   7.208 -0.0065  0.0407 -0.0724
 1322ERGO    R318660  11.197   5.313   7.403 -0.0817  0.0580 -0.0188
 1322ERGO    R418661  11.032   5.509   7.546 -0.1141  0.0865 -0.0969
 1322ERGO    R518662  11.241   5.461   7.586 -0.1309  0.0767 -0.0225
 1322ERGO    C118663  11.090   5.377   7.925 -0.2473  0.1294 -0.0608
 1322ERGO    C218664  11.106   5.477   8.185 -0.0333  0.0987 -0.1292
 1323ERGO   ROH18665   2.029   2.048   7.121 -0.1427 -0.1226  0.0351
 1323ERGO    R118666   1.912   2.090   7.375 -0.2039 -0.2489  0.0296
 1323ERGO    R218667   1.903   1.893   7.569  0.0236 -0.2557  0.0432
 1323ERGO    R318668   2.023   2.082   7.722 -0.2044 -0.1004  0.0321
 1323ERGO    R418669   1.949   1.870   7.910  0.0520 -0.1739  0.0438
 1323ERGO    R518670   1.898   2.082   7.926 -0.2017 -0.2356  0.0302
 1323ERGO    C118671   2.089   2.035   8.253 -0.1455  0.0196  0.0338
 1323ERGO    C218672   2.207   2.112   8.591 -0.0960 -0.0792  0.1411
 1324ERGO   ROH18673  12.930   6.856   6.732  0.0557 -0.2120  0.1485
 1324ERGO    R118674  13.021   6.807   6.996  0.1069 -0.0773  0.1575
 1324ERGO    R218675  13.030   7.005   7.188  0.1103  0.0181  0.0702
 1324ERGO    R318676  12.881   6.828   7.331  0.1556  0.0591  0.1673
 1324ERGO    R418677  12.974   7.024   7.529  0.1456  0.1405  0.0691
 1324ERGO    R518678  12.997   6.808   7.540  0.1761  0.1576  0.1582
 1324ERGO    C118679  12.801   6.869   7.861  0.2087  0.2503  0.1598
 1324ERGO    C218680  12.916   6.885   8.131  0.1861  0.1744  0.0334
 1325ERGO   ROH18681   0.084   4.905   7.139  0.2631  0.0931  0.0560
 1325ERGO    R118682   0.146   4.853   7.410  0.0897 -0.0135  0.0765
 1325ERGO    R218683   0.281   5.034   7.570  0.0674 -0.1136  0.2078
 1325ERGO    R318684   0.067   5.002   7.733 -0.0373 -0.0834  0.0787
 1325ERGO    R418685   0.274   5.117   7.905 -0.1570 -0.0094  0.1795
 1325ERGO    R518686   0.161   4.934   7.942 -0.1647 -0.0103  0.1625
 1325ERGO    C118687   0.068   5.134   8.254 -0.3860  0.0796  0.0420
 1325ERGO    C218688   0.103   5.213   8.500  0.1942  0.0124  0.2464
 1326ERGO   ROH18689  10.875   4.243   6.611 -0.2311 -0.1652 -0.0273
 1326ERGO    R118690  10.962   4.166   6.870 -0.3436 -0.3566 -0.0434
 1326ERGO    R218691  11.003   4.349   7.073  0.1629 -0.4232 -0.0698
 1326ERGO    R318692  10.832   4.187   7.209 -0.2105 -0.0003 -0.0108
 1326ERGO    R418693  11.036   4.262   7.406  0.1170 -0.5881 -0.1076
 1326ERGO    R518694  10.974   4.060   7.354 -0.4641 -0.4226 -0.1184
 1326ERGO    C118695  10.896   4.059   7.727 -0.2602 -0.2869 -0.0742
 1326ERGO    C218696  10.961   4.049   8.018 -0.2580  0.3517 -0.4030
 1327ERGO   ROH18697   5.290   0.887   9.338  0.1347  0.0778  0.0246
 1327ERGO    R118698   5.473   0.813   9.135  0.0953  0.2158 -0.0638
 1327ERGO    R218699   5.639   0.995   9.010  0.2328  0.2703  0.1858
 1327ERGO    R318700   5.834   0.823   9.088  0.1062  0.0269 -0.0235
 1327ERGO    R418701   5.952   0.975   8.867  0.2480  0.2739  0.2202
 1327ERGO    R518702   5.941   0.758   8.883  0.1033  0.2541 -0.0980
 1327ERGO    C118703   6.319   0.802   8.856  0.1381  0.0475  0.0437
 1327ERGO    C218704   6.524   1.081   8.697 -0.1930  0.1573  0.1936
 1328ERGO   ROH18705   4.486   0.562   6.944  0.0361 -0.0716  0.1764
 1328ERGO    R118706   4.395   0.680   7.184 -0.0508 -0.0981  0.1567
 1328ERGO    R218707   4.294   0.531   7.394  0.0286 -0.1341  0.1685
 1328ERGO    R318708   4.483   0.665   7.537 -0.0621  0.0000  0.1646
 1328ERGO    R418709   4.285   0.579   7.736 -0.0290 -0.0971  0.1618
 1328ERGO    R518710   4.358   0.782   7.705 -0.1493 -0.0540  0.1403
 1328ERGO    C118711   4.457   0.732   8.070 -0.1476  0.0503  0.1540
 1328ERGO    C218712   4.448   0.833   8.442 -0.0367  0.0956  0.0044
 1329ERGO   ROH18713   4.569   3.962   7.222  0.0950  0.0832  0.1003
 1329ERGO    R118714   4.654   3.852   7.468  0.2034  0.1310  0.0854
 1329ERGO    R218715   4.789   4.000   7.659 -0.0605  0.2789  0.1676
 1329ERGO    R318716   4.590   3.912   7.821  0.0248 -0.0743  0.0886
 1329ERGO    R418717   4.782   4.039   8.002 -0.2807  0.2842  0.1634
 1329ERGO    R518718   4.702   3.837   8.019  0.0765  0.1385  0.1390
 1329ERGO    C118719   4.591   3.979   8.355 -0.3289 -0.0444  0.0868
 1329ERGO    C218720   4.711   3.928   8.706  0.0095  0.1894 -0.0533
 1330ERGO   ROH18721   2.804  11.186   7.169  0.1324 -0.1273  0.0523
 1330ERGO    R118722   2.886  11.292   7.418  0.1265 -0.1762  0.0743
 1330ERGO    R218723   2.719  11.302   7.638  0.0899 -0.1245  0.0386
 1330ERGO    R318724   2.923  11.170   7.759  0.0137 -0.2110  0.0762
 1330ERGO    R418725   2.787  11.312   7.976  0.2349  0.1389  0.0044
 1330ERGO    R518726   3.000  11.321   7.928  0.2312 -0.1141 -0.0984
 1330ERGO    C118727   3.019  11.194   8.287  0.2479  0.2111  0.0198
 1330ERGO    C218728   3.039  11.171   8.593  0.1489  0.2387  0.0729
 1331ERGO   ROH18729   9.986   2.711   6.893 -0.2040  0.1334  0.1186
 1331ERGO    R118730   9.834   2.774   7.124 -0.2009 -0.0340  0.1673
 1331ERGO    R218731   9.708   2.581   7.276  0.1643 -0.1876  0.2786
 1331ERGO    R318732   9.849   2.696   7.479  0.0778  0.0886  0.1868
 1331ERGO    R418733   9.618   2.570   7.610  0.3124 -0.2411  0.3178
 1331ERGO    R518734   9.681   2.779   7.628  0.0021 -0.1290  0.2320
 1331ERGO    C118735   9.698   2.672   7.994  0.3176 -0.0130  0.2544
 1331ERGO    C218736   9.652   2.559   8.270  0.1164 -0.1758  0.0174
 1332ERGO   ROH18737   1.840   0.664   6.868  0.3300  0.1716  0.0057
 1332ERGO    R118738   1.939   0.552   7.108  0.2379  0.0448 -0.0138
 1332ERGO    R218739   2.048   0.705   7.311  0.1819 -0.0613  0.1043
 1332ERGO    R318740   1.862   0.578   7.463  0.1151 -0.1218 -0.0278
 1332ERGO    R418741   2.057   0.682   7.655 -0.1059  0.0139  0.1184
 1332ERGO    R518742   1.989   0.476   7.639  0.0130 -0.0207  0.1025
 1332ERGO    C118743   1.888   0.549   7.999 -0.3361  0.0008  0.0025
 1332ERGO    C218744   1.891   0.702   8.292 -0.0966 -0.1067 -0.0238
 1333ERGO   ROH18745   6.275   5.806   6.802  0.0516  0.1171  0.0342
 1333ERGO    R118746   6.132   5.816   7.046  0.0268 -0.1188  0.0309
 1333ERGO    R218747   6.155   5.622   7.240  0.4251 -0.0338  0.0727
 1333ERGO    R318748   6.214   5.833   7.400 -0.0047  0.1291  0.0283
 1333ERGO    R418749   6.128   5.621   7.585  0.5326 -0.0577  0.0821
 1333ERGO    R518750   6.048   5.824   7.573  0.0613 -0.2307  0.0814
 1333ERGO    C118751   6.168   5.820   7.936  0.1917  0.0812  0.0460
 1333ERGO    C218752   6.133   5.770   8.325 -0.0596 -0.3484  0.1043
 1334ERGO   ROH18753   3.413  13.426   6.873 -0.1139 -0.0621  0.0917
 1334ERGO    R118754   3.575  13.432   7.104 -0.0109 -0.0569  0.0209
 1334ERGO    R218755   3.521  13.599   7.319  0.1013 -0.0278  0.0308
 1334ERGO    R318756   3.531  13.366   7.460  0.1350 -0.0166  0.0462
 1334ERGO    R418757   3.524  13.576   7.664  0.1121 -0.0111  0.0314
 1334ERGO    R518758   3.671  13.416   7.647  0.1303  0.0099  0.0393
 1334ERGO    C118759   3.535  13.345   7.997  0.1500  0.0094  0.0463
 1334ERGO    C218760   3.611  13.416   8.408  0.2249 -0.1938  0.1784
 1335ERGO   ROH18761   3.524  14.386   6.936  0.2247 -0.0273  0.0616
 1335ERGO    R118762   3.417  14.453   7.190  0.1934 -0.0377  0.0513
 1335ERGO    R218763   3.337  14.261   7.372  0.2204 -0.0464  0.0548
 1335ERGO    R318764   3.506  14.394   7.538  0.1821 -0.0033  0.0597
 1335ERGO    R418765   3.392  14.181   7.704  0.2661 -0.0578  0.0446
 1335ERGO    R518766   3.395  14.394   7.750  0.1938 -0.0623  0.0651
 1335ERGO    C118767   3.584  14.259   8.052  0.2568 -0.0240  0.0431
 1335ERGO    C218768   3.615  14.253   8.409 -0.1317 -0.3334 -0.0623
 1336ERGO   ROH18769  15.515  15.645   7.175  0.0027 -0.3334 -0.1304
 1336ERGO    R118770  15.502  15.493   7.413 -0.1408 -0.0716  0.0345
 1336ERGO    R218771  15.724  15.436   7.564 -0.1496 -0.3236 -0.0408
 1336ERGO    R318772  15.577  15.545   7.765  0.1598  0.1570 -0.0593
 1336ERGO    R418773  15.785  15.386   7.901 -0.3062 -0.4704 -0.0331
 1336ERGO    R518774  15.569  15.372   7.932 -0.3696  0.1870 -0.0383
 1336ERGO    C118775  15.682  15.460   8.286 -0.1070 -0.1049 -0.0460
 1336ERGO    C218776  15.763  15.436   8.616 -0.1284 -0.2703  0.3462
 1337ERGO   ROH18777  15.325   1.531   7.163 -0.0243 -0.0597 -0.0998
 1337ERGO    R118778  15.448   1.499   7.416 -0.0542 -0.1529 -0.0963
 1337ERGO    R218779  15.467   1.705   7.600  0.1204 -0.1562 -0.1056
 1337ERGO    R318780  15.347   1.524   7.764 -0.0390 -0.0470 -0.0998
 1337ERGO    R418781  15.547   1.656   7.932 -0.0311 -0.1147 -0.0624
 1337ERGO    R518782  15.525   1.442   7.902 -0.1370 -0.1091 -0.0120
 1337ERGO    C118783  15.482   1.458   8.280 -0.2691  0.0119 -0.0317
 1337ERGO    C218784  15.521   1.334   8.712 -0.3325 -0.0485  0.0950
 1338ERGO   ROH18785   0.084   5.987   6.933  0.2559  0.1052 -0.0452
 1338ERGO    R118786  -0.038   6.055   7.180  0.0839  0.0240 -0.1057
 1338ERGO    R218787  -0.120   5.864   7.364  0.2694 -0.0286 -0.0771
 1338ERGO    R318788   0.037   6.008   7.533  0.0287  0.2278 -0.0645
 1338ERGO    R418789  -0.160   5.881   7.706  0.1059  0.0430 -0.0995
 1338ERGO    R518790  -0.113   6.093   7.697 -0.1488  0.1035 -0.1563
 1338ERGO    C118791  -0.036   6.026   8.064 -0.2150  0.3254 -0.1007
 1338ERGO    C218792   0.126   6.040   8.266 -0.0815 -0.0251  0.1583
 1339ERGO   ROH18793   9.954   0.939   6.779 -0.0725 -0.4534 -0.0740
 1339ERGO    R118794   9.777   0.985   6.995 -0.0719 -0.2445 -0.1148
 1339ERGO    R218795   9.610   0.789   7.095 -0.1770 -0.1116 -0.0145
 1339ERGO    R318796   9.729   0.852   7.331 -0.1641 -0.0311 -0.0431
 1339ERGO    R418797   9.513   0.667   7.403  0.0474 -0.2528  0.0019
 1339ERGO    R518798   9.548   0.866   7.487 -0.1232 -0.2345  0.0194
 1339ERGO    C118799   9.569   0.656   7.805  0.1903 -0.2595 -0.0153
 1339ERGO    C218800   9.650   0.598   8.107 -0.1289  0.3301 -0.3165
 1340ERGO   ROH18801   4.608   8.469   6.660  0.0148 -0.0337  0.1012
 1340ERGO    R118802   4.489   8.563   6.899  0.0665  0.1077  0.0753
 1340ERGO    R218803   4.361   8.394   7.077 -0.0391  0.2279  0.1343
 1340ERGO    R318804   4.534   8.506   7.255  0.0370  0.1808  0.0865
 1340ERGO    R418805   4.349   8.350   7.420  0.0486  0.2732  0.1421
 1340ERGO    R518806   4.398   8.561   7.444  0.1212  0.2425  0.1147
 1340ERGO    C118807   4.503   8.429   7.787  0.1711  0.2553  0.1017
 1340ERGO    C218808   4.467   8.502   8.226 -0.0851  0.0258 -0.0531
 1341ERGO   ROH18809  10.172  17.115   6.727 -0.0001  0.2115 -0.0216
 1341ERGO    R118810  10.164  17.167   7.005 -0.0200  0.1612 -0.0117
 1341ERGO    R218811   9.944  17.105   7.161  0.0209 -0.0010 -0.0081
 1341ERGO    R318812  10.128  16.971   7.310  0.1141  0.0869 -0.0447
 1341ERGO    R418813   9.917  17.044   7.500  0.1299 -0.0073 -0.0009
 1341ERGO    R518814  10.130  17.086   7.520  0.1112  0.0890 -0.0496
 1341ERGO    C118815  10.073  16.882   7.837  0.2810  0.0717 -0.0309
 1341ERGO    C218816  10.089  16.912   8.176 -0.0631  0.0278 -0.0621
 1342ERGO   ROH18817  12.434   6.659   6.796  0.0690 -0.0993 -0.0956
 1342ERGO    R118818  12.489   6.709   7.070  0.0415  0.0222 -0.1118
 1342ERGO    R218819  12.477   6.962   7.180 -0.1869  0.0407 -0.1765
 1342ERGO    R318820  12.307   6.843   7.355 -0.0645 -0.0721 -0.1333
 1342ERGO    R418821  12.485   7.004   7.523 -0.1279  0.0552 -0.1795
 1342ERGO    R518822  12.444   6.792   7.545  0.0206  0.0242 -0.1652
 1342ERGO    C118823  12.330   6.916   7.887  0.0214 -0.0423 -0.1408
 1342ERGO    C218824  12.399   6.904   8.243 -0.2802 -0.0839  0.1734
 1343ERGO   ROH18825  13.546   1.073   6.905  0.1219 -0.0263  0.0922
 1343ERGO    R118826  13.433   1.076   7.164 -0.0405 -0.0962  0.0233
 1343ERGO    R218827  13.250   0.889   7.249  0.0604 -0.2386 -0.0759
 1343ERGO    R318828  13.426   0.854   7.453 -0.0366 -0.0782  0.0381
 1343ERGO    R418829  13.162   0.854   7.581 -0.1188 -0.2011 -0.1177
 1343ERGO    R518830  13.333   0.980   7.634 -0.2221 -0.0829 -0.0496
 1343ERGO    C118831  13.277   0.802   7.967 -0.3141 -0.0287 -0.0351
 1343ERGO    C218832  13.200   0.759   8.407 -0.0481 -0.3296  0.0201
 1344ERGO   ROH18833   8.471  13.548   6.513 -0.0114 -0.2413  0.0638
 1344ERGO    R118834   8.584  13.624   6.761  0.0273 -0.2016  0.0335
 1344ERGO    R218835   8.431  13.720   6.971  0.0714 -0.0942  0.0119
 1344ERGO    R318836   8.553  13.519   7.109  0.0199 -0.0878  0.0688
 1344ERGO    R418837   8.440  13.694   7.315 -0.0187 -0.0425  0.0188
 1344ERGO    R518838   8.647  13.628   7.300 -0.0168 -0.0650  0.0779
 1344ERGO    C118839   8.559  13.492   7.645 -0.1195 -0.0064  0.0762
 1344ERGO    C218840   8.497  13.658   7.979  0.0802 -0.0312  0.3134
 1345ERGO   ROH18841   4.753  13.941   6.763 -0.0580  0.0704  0.0498
 1345ERGO    R118842   4.715  14.040   7.025 -0.3022 -0.0497  0.0624
 1345ERGO    R218843   4.602  13.888   7.226 -0.0765 -0.3019  0.0059
 1345ERGO    R318844   4.830  13.954   7.359 -0.2206  0.0890  0.0704
 1345ERGO    R418845   4.634  13.898   7.570 -0.1394 -0.4364  0.0160
 1345ERGO    R518846   4.754  14.079   7.549 -0.5025 -0.1727  0.1360
 1345ERGO    C118847   4.867  13.966   7.896 -0.3112 -0.1479  0.0824
 1345ERGO    C218848   4.918  13.896   8.210  0.0790 -0.2844  0.0915
 1346ERGO   ROH18849  11.543   5.708   6.745 -0.0111 -0.0972 -0.0271
 1346ERGO    R118850  11.538   5.837   6.997  0.1125 -0.0563 -0.0440
 1346ERGO    R218851  11.307   5.868   7.144  0.1424  0.1583 -0.0295
 1346ERGO    R318852  11.452   5.747   7.339  0.0580  0.0603 -0.0281
 1346ERGO    R418853  11.268   5.924   7.483  0.1483  0.1414 -0.0270
 1346ERGO    R518854  11.485   5.918   7.504  0.1386  0.0206 -0.0081
 1346ERGO    C118855  11.382   5.842   7.863  0.0725  0.0395 -0.0242
 1346ERGO    C218856  11.388   5.876   8.155 -0.0024  0.2129  0.1454
 1347ERGO   ROH18857  16.156   5.196   6.969  0.0461 -0.1949 -0.1751
 1347ERGO    R118858  16.154   5.065   7.219  0.0773 -0.2881 -0.2237
 1347ERGO    R218859  16.355   5.098   7.406 -0.1017 -0.0362 -0.0732
 1347ERGO    R318860  16.148   5.163   7.570 -0.3231 -0.4196 -0.1881
 1347ERGO    R418861  16.365   5.086   7.751 -0.2023  0.1502 -0.0625
 1347ERGO    R518862  16.162   5.005   7.749 -0.0333 -0.3119 -0.1079
 1347ERGO    C118863  16.176   5.140   8.106 -0.4686 -0.1011 -0.1641
 1347ERGO    C218864  16.231   5.111   8.488  0.1213  0.1794 -0.0526
 1348ERGO   ROH18865  12.294   6.181   6.823  0.0808 -0.1722  0.0342
 1348ERGO    R118866  12.264   6.346   7.051  0.1475 -0.1156  0.0031
 1348ERGO    R218867  12.050   6.324   7.224  0.0739  0.0805 -0.0536
 1348ERGO    R318868  12.245   6.299   7.412  0.0037 -0.0553  0.0027
 1348ERGO    R418869  12.000   6.347   7.565  0.0359  0.3473 -0.0751
 1348ERGO    R518870  12.186   6.459   7.580  0.1734  0.1194 -0.1045
 1348ERGO    C118871  12.154   6.337   7.940 -0.0522  0.3752 -0.0349
 1348ERGO    C218872  12.201   6.450   8.215  0.0670  0.0228 -0.1620
 1349W        W18873   2.246  11.658   5.833 -0.4050 -0.1455  0.1389
 1350W        W18874  13.022   1.685   2.090  0.2065  0.2683  0.1523
 1351W        W18875   8.007  15.650   5.865 -0.4986 -0.2121  0.0654
 1352W        W18876  13.968   9.233   3.252  0.0280 -0.1669  0.2144
 1353W        W18877   2.102  11.853   0.216 -0.0917 -0.0667  0.1236
 1354W        W18878  15.164  12.539  14.807  0.0517 -0.1904  0.4327
 1355W        W18879  11.428   0.100   4.732 -0.1306  0.0489 -0.1389
 1356W        W18880  13.104  14.261  13.653  0.0220 -0.0469  0.1935
 1357W        W18881  10.936   7.159  13.564 -0.3377  0.1399 -0.1945
 1358W        W18882  11.270   2.339  17.098  0.1164 -0.0490 -0.1452
 1359W        W18883  12.269   6.639   1.814 -0.2028 -0.1582 -0.0618
 1360W        W18884  13.591   2.452  13.673  0.0880  0.0125 -0.2504
 1361W        W18885   9.919   2.778   2.742  0.1895 -0.1891  0.0108
 1362W        W18886  13.226  11.234   3.631  0.1925 -0.0264  0.0082
 1363W        W18887   4.132  12.249  14.689 -0.3026  0.0196 -0.1009
 1364W        W18888  13.281   8.744  13.947  0.1828  0.2629  0.2283
 1365W        W18889   1.357  12.034   0.978  0.2365 -0.0868 -0.3031
 1366W        W18890  11.191   7.777   3.274  0.2256  0.2353 -0.0936
 1367W        W18891   5.198   9.208   0.708  0.0780  0.0628 -0.0930
 1368W        W18892   9.846  15.049  13.179 -0.1924  0.0203 -0.1647
 1369W        W18893  14.691  16.485   5.514 -0.1131  0.0145 -0.1352
 1370W        W18894  15.703   1.717   5.132 -0.1251  0.2703 -0.2068
 1371W        W18895  11.232   3.623  12.719  0.2947 -0.0315  0.1553
 1372W        W18896   1.244   0.469  13.419  0.0854 -0.0185  0.2247
 1373W        W18897   1.852  16.027  16.107 -0.2727  0.1938  0.2060
 1374W        W18898  14.159   6.194  15.565 -0.0336 -0.1215 -0.2783
 1375W        W18899  13.896   3.286   1.802 -0.0647 -0.1898 -0.2410
 1376W        W18900  14.198  13.183   2.279 -0.4302 -0.0357 -0.2066
 1377W        W18901  13.774   4.173  15.157  0.2994 -0.0270  0.2683
 1378W        W18902   7.468  15.296   4.152 -0.3885 -0.1092 -0.1847
 1379W        W18903  14.298   2.666  16.819  0.2859  0.1491 -0.2128
 1380W        W18904  12.354  13.422   4.190  0.1721  0.2317 -0.2259
 1381W        W18905   3.404  13.893  13.652 -0.0016 -0.2122 -0.1520
 1382W        W18906   4.600  15.469  16.103 -0.1091 -0.1566  0.0026
 1383W        W18907  12.790  15.064  12.196 -0.2331 -0.3897  0.0438
 1384W        W18908  16.971   2.808  16.594 -0.1634 -0.0100 -0.1785
 1385W        W18909  12.274  15.176   2.831  0.0794  0.2685 -0.0569
 1386W        W18910   9.812   6.088  15.303  0.2754  0.1065  0.2159
 1387W        W18911   7.354  13.218  13.740  0.1881  0.1306  0.2323
 1388W        W18912  11.684   8.080  14.540 -0.2859 -0.0518  0.3481
 1389W        W18913   2.080  10.597  17.049  0.2435 -0.2325 -0.2797
 1390W        W18914   6.662  15.757  15.151  0.0284 -0.0923  0.1290
 1391W        W18915   5.127   8.247   4.549 -0.0025 -0.1852 -0.0465
 1392W        W18916   2.439   2.273   3.389 -0.0049  0.0339 -0.1945
 1393W        W18917   9.889  11.632   3.785 -0.1451 -0.0757 -0.0638
 1394W        W18918  14.847  10.221  14.346 -0.0914 -0.1526 -0.0017
 1395W        W18919   2.873  11.660   3.346  0.0699 -0.4802  0.0754
 1396W        W18920   9.746   0.573  15.717 -0.2513  0.0936 -0.3677
 1397W        W18921  13.125  17.002  16.266 -0.0064  0.0347  0.0765
 1398W        W18922  13.195   2.576   1.712  0.0510 -0.0323  0.1612
 1399W        W18923  15.070   4.392  13.731 -0.1364  0.4206 -0.0741
 1400W        W18924   9.852  10.453   1.858  0.0353  0.1375  0.5660
 1401W        W18925  13.288   0.159  13.394 -0.2007  0.1903  0.0520
 1402W        W18926   2.793   3.867  13.204  0.0494  0.0328 -0.0013
 1403W        W18927  13.474   1.188   3.817  0.1593  0.2300  0.0244
 1404W        W18928  13.134   8.394  14.698 -0.1167 -0.0956 -0.0212
 1405W        W18929   0.864   6.256  15.434  0.0326  0.1546  0.0334
 1406W        W18930   3.548   7.883  12.634  0.3644  0.1137  0.1185
 1407W        W18931   8.441   6.072   4.483  0.1791 -0.0360 -0.0441
 1408W        W18932  16.487   1.933   5.085 -0.0956 -0.0571 -0.2417
 1409W        W18933   1.458  10.942   4.494 -0.1187  0.3234  0.1523
 1410W        W18934  15.370   1.458  16.950  0.0317 -0.0927  0.2259
 1411W        W18935   3.023   5.181   3.982  0.0583 -0.5278 -0.0229
 1412W        W18936   1.173   8.477   2.435 -0.0005 -0.0619 -0.0390
 1413W        W18937  13.879   4.716  17.133 -0.3073 -0.0566 -0.0205
 1414W        W18938  10.644  13.966   2.124  0.2407 -0.1572  0.1031
 1415W        W18939   9.604   0.828  17.002  0.0794 -0.2397 -0.2197
 1416W        W18940   2.054   3.147  15.424  0.0387 -0.0384  0.2778
 1417W        W18941  13.819   2.559   0.529  0.0281  0.0693 -0.1077
 1418W        W18942  14.431   1.029   5.256  0.2378 -0.1435 -0.0319
 1419W        W18943   7.245   3.002  15.256 -0.1571 -0.1351  0.0571
 1420W        W18944  13.162  12.579   2.462  0.0072  0.1548  0.0893
 1421W        W18945   4.083  12.310  12.586  0.3617 -0.0361 -0.1144
 1422W        W18946  15.263   7.369   0.506  0.1241 -0.0726 -0.1181
 1423W        W18947  12.983   7.306   1.602 -0.0048  0.2074 -0.4683
 1424W        W18948  13.364  13.788   3.754  0.0736  0.0187 -0.0404
 1425W        W18949  11.935   3.903   0.300 -0.2569 -0.2726  0.0555
 1426W        W18950  14.420   0.333   1.133 -0.3086  0.0852 -0.4121
 1427W        W18951   9.040  14.385  17.404 -0.0832  0.1292  0.3133
 1428W        W18952  16.695   4.086  14.763  0.0353  0.0256 -0.1152
 1429W        W18953   3.627  12.586  15.460  0.2586 -0.1589  0.1225
 1430W        W18954  10.338   0.045  11.837  0.0433 -0.2095 -0.0138
 1431W        W18955   8.303   1.869  12.319 -0.1552 -0.0530 -0.1744
 1432W        W18956   9.293   2.386   4.376  0.0624  0.1750  0.2417
 1433W        W18957  10.491  14.959   2.757 -0.0585 -0.0156  0.0273
 1434W        W18958   4.851   1.095  13.169 -0.0559  0.2756 -0.0386
 1435W        W18959   8.002  12.859   0.935 -0.0305 -0.2089  0.1233
 1436W        W18960   7.201   2.683  17.080 -0.1980  0.0332  0.1321
 1437W        W18961  12.659  11.443   0.460  0.1922 -0.0812 -0.0335
 1438W        W18962   2.307   2.622  16.537 -0.0680 -0.4004 -0.0828
 1439W        W18963  10.303  15.059  17.006  0.1440  0.0323  0.0389
 1440W        W18964  11.322   9.208  15.925 -0.0235 -0.2742  0.0014
 1441W        W18965   4.735  15.919   5.574 -0.0197 -0.0091 -0.1836
 1442W        W18966  11.696  16.751   2.491 -0.1674 -0.0080 -0.2672
 1443W        W18967  12.015   4.486   0.999 -0.1900  0.4762  0.1105
 1444W        W18968   7.460   2.195   4.120 -0.1258  0.1801 -0.1770
 1445W        W18969  16.959   6.006  15.658  0.3068  0.2178 -0.2546
 1446W        W18970  15.959  11.770  13.939 -0.0570 -0.3172 -0.0117
 1447W        W18971   9.808   5.731   1.984  0.0784  0.1496  0.0035
 1448W        W18972   7.199  10.986   0.645  0.0308 -0.1071 -0.0013
 1449W        W18973   8.972   6.654   1.105  0.0293  0.3039  0.0523
 1450W        W18974   6.188   0.484  13.048 -0.1580 -0.0018  0.0481
 1451W        W18975   1.495   8.599   4.019  0.1607 -0.0103 -0.0228
 1452W        W18976   3.099  12.721   4.370  0.1904 -0.0123  0.1683
 1453W        W18977   1.236  11.943  15.761 -0.0930  0.0064 -0.2591
 1454W        W18978  16.773   2.696   1.348  0.1588 -0.1288  0.3459
 1455W        W18979   7.154  16.623   4.020  0.1132 -0.3460  0.2741
 1456W        W18980  10.820  13.439   4.946 -0.1373  0.0743 -0.1362
 1457W        W18981   7.305  15.299   2.893 -0.0581  0.0178 -0.3303
 1458W        W18982   7.244   2.510  11.263  0.0586 -0.1078  0.3605
 1459W        W18983   2.251   0.173   5.123 -0.1150 -0.1785 -0.1670
 1460W        W18984   6.755  15.006   4.799 -0.0957 -0.0929 -0.0040
 1461W        W18985   8.888  12.540  14.296  0.0736 -0.0510  0.1599
 1462W        W18986  14.254  12.689  13.637 -0.2090  0.3361  0.0432
 1463W        W18987  13.246   6.314  16.608  0.1145  0.0038  0.0465
 1464W        W18988  12.016   1.085  16.813 -0.1424  0.0062 -0.0962
 1465W        W18989  14.975   8.262  16.453  0.1178 -0.2550 -0.0448
 1466W        W18990   7.201  15.333  12.820  0.0790  0.1684  0.0029
 1467W        W18991   2.174   2.973   4.560  0.0419 -0.0804 -0.0965
 1468W        W18992   9.630   4.431  12.182  0.1102 -0.0947 -0.0098
 1469W        W18993   2.499   3.856   2.249 -0.1752 -0.0292 -0.0085
 1470W        W18994   0.873   5.196  12.514  0.2600  0.1597 -0.2216
 1471W        W18995   2.758   7.768  16.801 -0.2760 -0.2212 -0.0040
 1472W        W18996  16.364   7.908   3.267 -0.0961  0.1901 -0.0101
 1473W        W18997   2.224   2.534  11.304  0.2153 -0.0211  0.0900
 1474W        W18998   3.226  15.941   2.296  0.2415 -0.1321  0.3288
 1475W        W18999   8.149  11.476   6.109 -0.0751  0.3387 -0.1935
 1476W        W19000   0.011  10.152  16.333 -0.0401 -0.2999  0.1253
 1477W        W19001  13.421   7.585  13.176 -0.2048  0.1002 -0.2277
 1478W        W19002  12.329  15.253   4.402  0.2239  0.2107  0.0572
 1479W        W19003  11.817  11.807   3.866 -0.1372  0.0191  0.1322
 1480W        W19004   2.131   5.500  16.149 -0.2977  0.2033  0.0051
 1481W        W19005   1.739  17.055  15.890 -0.2615  0.0226  0.2726
 1482W        W19006  13.474  14.260   3.079 -0.0942  0.0823  0.0206
 1483W        W19007  15.983  15.560  14.009  0.0003  0.1626  0.3257
 1484W        W19008  16.525   2.727  16.897 -0.0434 -0.2330  0.0172
 1485W        W19009   4.398   0.723   0.952  0.0498 -0.0323  0.2111
 1486W        W19010   8.904  16.406  16.479  0.4457  0.0956  0.0258
 1487W        W19011  16.513   6.215   0.141 -0.0389  0.1488  0.0990
 1488W        W19012   4.317  15.493   1.511 -0.0339  0.1839  0.2332
 1489W        W19013  11.346  15.840  15.107  0.1305  0.1358 -0.1605
 1490W        W19014   9.052   6.124  12.522 -0.0938 -0.1229 -0.0408
 1491W        W19015   7.686   8.394  13.224  0.0099  0.2668  0.0284
 1492W        W19016  14.505  12.430   2.833  0.1876 -0.1335 -0.0090
 1493W        W19017  13.730   2.196  16.450  0.0374  0.0139 -0.2235
 1494W        W19018   6.548  11.428   0.920  0.0946  0.0572  0.1312
 1495W        W19019   2.018  16.163  14.519 -0.1033  0.1324 -0.0341
 1496W        W19020  13.492  12.937  15.461  0.1059  0.0254 -0.0448
 1497W        W19021  13.093   5.414  15.451  0.1096 -0.0770  0.0079
 1498W        W19022   5.584  14.497   4.411 -0.1075 -0.1175 -0.4421
 1499W        W19023   8.176   7.698  17.184  0.1842 -0.1453  0.1693
 1500W        W19024  11.616   9.044   3.686 -0.1894 -0.0438 -0.0852
 1501W        W19025  12.816   8.877  15.547  0.1326  0.0534 -0.4519
 1502W        W19026   5.751  15.635   2.324  0.2255  0.0195  0.4280
 1503W        W19027   0.942   5.497   2.487  0.0020 -0.2567  0.0851
 1504W        W19028   6.335   7.766   2.047 -0.0429  0.1379  0.0812
 1505W        W19029   6.165  11.200  15.778 -0.2421  0.1883 -0.2273
 1506W        W19030   7.760  11.334   3.089 -0.1130 -0.1409  0.2620
 1507W        W19031   4.877  11.074   6.391  0.1488 -0.0846  0.0421
 1508W        W19032   7.471   5.364  16.982  0.1509  0.2015  0.0719
 1509W        W19033   1.811   1.714  17.081 -0.1914 -0.2857 -0.1170
 1510W        W19034  11.368   4.081   5.452 -0.0423 -0.1388  0.1629
 1511W        W19035  10.013   4.119   2.822 -0.0458 -0.0211  0.0006
 1512W        W19036   9.546  11.871  12.536  0.1925 -0.0746 -0.1382
 1513W        W19037   1.082   8.727  13.376 -0.2481  0.3295 -0.2327
 1514W        W19038   6.347  13.662   3.384  0.1912  0.1473 -0.0017
 1515W        W19039   6.082   4.317   5.235  0.1689  0.0467  0.1204
 1516W        W19040   7.530   2.930  13.575  0.2460 -0.1174  0.0043
 1517W        W19041  15.076   7.862   2.390 -0.1466  0.0163  0.0886
 1518W        W19042  10.068   4.003   4.281  0.0255  0.0987 -0.0787
 1519W        W19043   8.920   1.417   5.290 -0.0248  0.2774 -0.0559
 1520W        W19044   5.556   4.179   2.709 -0.1286  0.2454 -0.3455
 1521W        W19045  14.644   2.332   5.090  0.0446  0.1649 -0.0680
 1522W        W19046  15.813   5.406   2.701  0.0565 -0.2458  0.0270
 1523W        W19047   5.138   1.220  14.554 -0.1120 -0.1290  0.0339
 1524W        W19048   9.215   7.454  13.323 -0.1503  0.3420  0.0517
 1525W        W19049   8.117   5.304   1.899 -0.0430 -0.0052 -0.0039
 1526W        W19050   2.377   9.087   0.671  0.0771 -0.0191  0.2580
 1527W        W19051   4.883   8.705   0.556  0.1219 -0.1149  0.0155
 1528W        W19052  11.019  10.377  16.513 -0.1207 -0.1472 -0.1693
 1529W        W19053  15.030   2.997   4.535 -0.2100 -0.0536  0.0405
 1530W        W19054   2.719   8.060   4.982 -0.3878 -0.1218 -0.2340
 1531W        W19055  13.120  14.452   2.105 -0.0812  0.1640  0.0092
 1532W        W19056   1.639  13.968   3.092 -0.1196 -0.0781 -0.0013
 1533W        W19057  15.660   5.657   4.853  0.0580  0.2528  0.4507
 1534W        W19058  13.396   6.602  15.645  0.1947 -0.3271 -0.0754
 1535W        W19059  13.168   3.264   4.216  0.2238  0.0232  0.1576
 1536W        W19060  11.023   5.838  15.536  0.1693  0.0966 -0.0065
 1537W        W19061   7.337   9.588  15.161 -0.1940  0.1048 -0.1155
 1538W        W19062  15.451  14.853   5.029 -0.1487 -0.4101 -0.1385
 1539W        W19063   5.256   6.338   3.204  0.0814  0.0362  0.1835
 1540W        W19064   2.622  11.038   1.958 -0.1025  0.0163  0.2478
 1541W        W19065   0.178  10.383   4.316 -0.2758  0.2813  0.2150
 1542W        W19066  12.962   2.455   4.477  0.0706  0.3849  0.0393
 1543W        W19067   0.979   2.718  14.177  0.0747 -0.3048  0.1471
 1544W        W19068   3.607   0.308  16.954  0.1279  0.0807 -0.1000
 1545W        W19069  16.642   8.671   0.622 -0.0792 -0.0461 -0.0273
 1546W        W19070  12.675  16.395  14.116  0.4719 -0.2059  0.0988
 1547W        W19071   5.113   9.937   1.054 -0.2491 -0.2704 -0.0540
 1548W        W19072  14.776  16.897  15.368  0.1524 -0.1881  0.1911
 1549W        W19073   2.096   0.676  16.173  0.1412  0.0024  0.1245
 1550W        W19074   5.184  14.701  13.037  0.1805  0.1054  0.0067
 1551W        W19075  10.720   0.955  12.212  0.2240 -0.4282 -0.1972
 1552W        W19076  17.128  10.332  14.554 -0.0843 -0.1367 -0.3134
 1553W        W19077   8.092  17.100  15.566 -0.2903  0.1217 -0.1081
 1554W        W19078   6.450   2.141  17.128  0.0922  0.0210 -0.0343
 1555W        W19079   5.832   6.391  13.563  0.1229 -0.0095 -0.1266
 1556W        W19080   5.345   2.040   2.121  0.0977 -0.4830 -0.0745
 1557W        W19081   4.900  15.497   3.183 -0.0528  0.2029 -0.2353
 1558W        W19082   1.926   1.148  11.496 -0.0269  0.2654 -0.1935
 1559W        W19083   3.186   2.553  17.188  0.0473  0.2762  0.0734
 1560W        W19084   1.746  15.435   3.037 -0.3270 -0.0693 -0.2185
 1561W        W19085   9.641  16.955   1.339  0.0774  0.1820 -0.3276
 1562W        W19086  10.809  13.355  12.844  0.1158  0.0202  0.0495
 1563W        W19087  14.935   2.440  13.168 -0.2715  0.0697  0.0936
 1564W        W19088   1.264  13.706   4.542 -0.0484 -0.1587 -0.0183
 1565W        W19089   2.962   8.045  17.273  0.1026 -0.0934  0.2049
 1566W        W19090   8.149   3.071   3.570  0.1221 -0.1773 -0.2939
 1567W        W19091   7.125   6.707  13.083 -0.2330 -0.1632 -0.1985
 1568W        W19092  17.093   7.372   4.096  0.1665 -0.1555 -0.3087
 1569W        W19093   3.583   1.037  13.460  0.0473  0.0370 -0.0622
 1570W        W19094  12.150   0.262   0.485  0.1276  0.1915  0.2820
 1571W        W19095   7.828  16.946   5.271  0.0761  0.0446  0.2694
 1572W        W19096   1.184  12.987  13.719 -0.1460  0.1216  0.0670
 1573W        W19097   7.669   8.387   0.846  0.1663  0.2307  0.2842
 1574W        W19098  13.320  13.259   3.635 -0.0625 -0.0194 -0.1972
 1575W        W19099   1.342  11.312  11.810 -0.0512 -0.1522  0.1422
 1576W        W19100  12.559  10.226  14.542 -0.1991 -0.3240  0.1507
 1577W        W19101  13.618  16.372  11.278  0.0123  0.2197 -0.1140
 1578W        W19102   4.055   7.152  17.520  0.2765  0.1629 -0.2196
 1579W        W19103   5.391   7.150  15.443  0.0935  0.2027  0.0919
 1580W        W19104   4.783   0.495   2.957  0.0698  0.0371  0.1211
 1581W        W19105   0.236  10.924  17.380 -0.1597 -0.2131  0.0831
 1582W        W19106   3.672  14.828  15.483 -0.1763  0.2135 -0.1536
 1583W        W19107   5.463  12.807   4.575 -0.1943 -0.0028 -0.0991
 1584W        W19108  16.767  13.308   3.445  0.3012  0.0669  0.0350
 1585W        W19109  12.069  13.546   1.127 -0.2480  0.0571 -0.1973
 1586W        W19110  11.859   4.315  12.804  0.2879  0.2490  0.1603
 1587W        W19111   0.393  14.913   3.854 -0.1837  0.2220  0.1160
 1588W        W19112   9.168   9.640  15.951  0.2728 -0.3326  0.1138
 1589W        W19113   6.556   6.644  15.821  0.0637  0.0270 -0.0449
 1590W        W19114   7.949   5.365   1.429  0.0799 -0.2850 -0.0278
 1591W        W19115   1.823   2.727   3.711 -0.0851  0.0627  0.2468
 1592W        W19116  14.828   5.221   4.007  0.1832  0.2320  0.2109
 1593W        W19117   9.534  12.725   0.070 -0.3788 -0.3183 -0.3064
 1594W        W19118  15.660   2.135  14.004 -0.0866  0.0010  0.2865
 1595W        W19119   3.204  12.968  14.579 -0.1915 -0.0234 -0.0578
 1596W        W19120   1.103   4.765   1.786 -0.2808  0.0460  0.0832
 1597W        W19121   3.407  15.331   4.959 -0.0334  0.1348 -0.2778
 1598W        W19122   9.118   1.117   0.187  0.2561 -0.0216  0.1482
 1599W        W19123  17.100  10.604  16.202  0.2125 -0.0890 -0.0559
 1600W        W19124   6.927  12.197   4.061  0.2020  0.1789  0.1054
 1601W        W19125  15.729   0.065  13.549  0.3066 -0.0098  0.2122
 1602W        W19126   4.961  15.357  12.445 -0.0742 -0.0485  0.1311
 1603W        W19127  10.885  10.928  13.489  0.1818 -0.0020 -0.2209
 1604W        W19128   9.631   4.552  17.609 -0.0095  0.3067 -0.0205
 1605W        W19129  15.705   4.059   2.671  0.2441 -0.1344  0.2424
 1606W        W19130   4.057   2.308   4.280  0.1063  0.1797 -0.0735
 1607W        W19131   9.528  16.137  14.951 -0.1928  0.2285  0.0663
 1608W        W19132  11.227   7.529   2.806 -0.2589  0.1272 -0.3582
 1609W        W19133  13.555   7.123  16.628 -0.0086 -0.2378 -0.1359
 1610W        W19134   4.042   9.808   4.227 -0.0364 -0.0864  0.1741
 1611W        W19135   7.730  15.243   2.621  0.1567  0.1423  0.0503
 1612W        W19136   3.247   3.947   4.924 -0.0167 -0.1711 -0.0561
 1613W        W19137  12.886   4.379  15.409 -0.2129  0.1675  0.1012
 1614W        W19138  15.063   6.579   4.063  0.0728  0.0322  0.1799
 1615W        W19139   1.874   5.579  13.991  0.0232  0.0985 -0.3066
 1616W        W19140  12.016   8.664   3.655 -0.0511  0.0619  0.0304
 1617W        W19141   1.877  14.401  13.094 -0.1603  0.3774  0.1868
 1618W        W19142   3.132  10.076   1.756  0.1846  0.0350 -0.0908
 1619W        W19143  16.853   3.555   5.697 -0.1879 -0.1357  0.0831
 1620W        W19144   5.287  15.868   2.401  0.1307 -0.0945 -0.0923
 1621W        W19145  10.764   4.354   2.667 -0.0929 -0.1328 -0.0516
 1622W        W19146   5.622   1.918  17.628 -0.2804  0.0850 -0.2095
 1623W        W19147  11.895  15.969  12.741 -0.1037 -0.1531  0.2541
 1624W        W19148   0.538   7.140   2.950 -0.1791  0.2701 -0.1968
 1625W        W19149  12.634   9.297   1.124  0.2349  0.0036 -0.2416
 1626W        W19150   0.778  15.049  16.207  0.4161 -0.0437  0.1209
 1627W        W19151   7.736  12.066  15.493 -0.1759  0.2068  0.3221
 1628W        W19152  11.823  17.154   5.544 -0.2022  0.4155  0.0325
 1629W        W19153  11.348  11.860  14.704  0.2567 -0.4172  0.0389
 1630W        W19154  10.410  14.163  17.114  0.0952 -0.0456 -0.0240
 1631W        W19155  16.861  16.072  13.199  0.0131  0.0907  0.0760
 1632W        W19156  15.308   7.580   2.080  0.3042 -0.2802  0.0302
 1633W        W19157   4.441   2.060   3.700  0.2273 -0.0739  0.1151
 1634W        W19158   4.811  14.217  17.500 -0.2449 -0.0475  0.0158
 1635W        W19159  11.330   0.821   0.269  0.2320  0.2386  0.0913
 1636W        W19160  16.634   8.121  12.580  0.2576 -0.0577  0.1855
 1637W        W19161   7.700   1.771   1.549 -0.1650  0.0301  0.0535
 1638W        W19162   1.818   3.232  15.949  0.1034  0.3266 -0.2114
 1639W        W19163   2.589   6.530   2.700 -0.4390  0.2534  0.0096
 1640W        W19164   8.353   6.246  13.533  0.0155  0.0826  0.1891
 1641W        W19165  16.935   0.718  16.076  0.1050 -0.0295 -0.0976
 1642W        W19166  12.722  15.571  12.275  0.1340 -0.0535  0.2407
 1643W        W19167  14.136   9.136  13.825  0.2769  0.0329  0.0357
 1644W        W19168  12.911  13.852  13.983 -0.0349 -0.1575 -0.0600
 1645W        W19169   6.413  13.407   5.482  0.1541 -0.0437  0.1428
 1646W        W19170   0.267  10.839   0.170 -0.1544  0.1800  0.0946
 1647W        W19171   1.315   7.178  17.216  0.0150  0.3077  0.0806
 1648W        W19172   9.785  10.211  14.126  0.0966 -0.0156 -0.1130
 1649W        W19173   6.860  11.384  13.580 -0.2330 -0.0203  0.0362
 1650W        W19174   9.815   5.078  15.538  0.2153  0.1580 -0.1731
 1651W        W19175   4.097  15.650  12.801 -0.0661  0.0375  0.2824
 1652W        W19176   6.228  12.246  15.973  0.0334  0.2309  0.2140
 1653W        W19177  11.289   7.624   4.210  0.0769  0.0110  0.0302
 1654W        W19178   2.908   4.291   3.854 -0.2659  0.2928  0.2293
 1655W        W19179   2.399  15.001  15.883 -0.0498  0.1812 -0.1216
 1656W        W19180   5.911   5.820   2.146  0.0295  0.3325 -0.0431
 1657W        W19181  16.320  11.314   1.261 -0.0629  0.0150 -0.0563
 1658W        W19182   9.176   9.811   3.570 -0.0199 -0.2569  0.2591
 1659W        W19183  11.113   6.693  13.688  0.2632  0.1046 -0.1303
 1660W        W19184   8.185   2.626   5.338  0.1672 -0.1267 -0.1405
 1661W        W19185  10.177  11.956  13.117  0.0971  0.3158  0.2157
 1662W        W19186   4.638   7.839   4.711 -0.0285  0.0010  0.1888
 1663W        W19187   1.109   0.082  12.345 -0.0019  0.2820  0.0342
 1664W        W19188   1.640   2.536   5.657  0.1588  0.0116  0.0365
 1665W        W19189   5.244   9.079   5.420  0.2536 -0.2476 -0.2929
 1666W        W19190  12.201   4.310   0.577 -0.1820  0.2086  0.2178
 1667W        W19191  13.167   4.231   3.306 -0.0578  0.2737 -0.0452
 1668W        W19192   7.588   3.561  16.141 -0.0632  0.0217  0.1842
 1669W        W19193   2.487   3.788  14.399 -0.0063  0.2038  0.2172
 1670W        W19194   6.432   4.179  17.639 -0.0235  0.2032  0.0466
 1671W        W19195  11.370  10.951   2.933  0.2016  0.3158 -0.1299
 1672W        W19196  11.199  12.452  13.880 -0.1281 -0.2237 -0.1814
 1673W        W19197  10.535   9.036  11.853 -0.2793  0.0550 -0.1576
 1674W        W19198  12.562   3.479   1.642  0.0931  0.0835  0.2606
 1675W        W19199  11.174  11.659   1.669  0.0024  0.1700  0.1757
 1676W        W19200   2.049   4.454  12.709 -0.3777 -0.4068  0.1043
 1677W        W19201  11.182  13.250   0.737 -0.0426  0.0930 -0.1740
 1678W        W19202   8.099   0.816  13.599 -0.0692 -0.3347 -0.0449
 1679W        W19203   3.079  11.927   5.571 -0.0911 -0.2827  0.0260
 1680W        W19204  15.387   0.886   1.165  0.1128 -0.3329  0.0829
 1681W        W19205   0.797  10.466  12.425  0.4393  0.0809 -0.0155
 1682W        W19206   1.883   7.230   3.496 -0.0046 -0.0046  0.0402
 1683W        W19207   8.851  10.129   2.077  0.0253 -0.0282 -0.1102
 1684W        W19208   5.726  16.183   2.408 -0.3153  0.1721 -0.0987
 1685W        W19209   1.018   8.431  16.289 -0.0610  0.2275  0.1010
 1686W        W19210  13.598   7.774  14.934  0.0359  0.1707  0.1922
 1687W        W19211   4.215   2.327   1.100  0.0045  0.0685  0.0677
 1688W        W19212  12.892  17.120   3.696  0.0626  0.0866 -0.1541
 1689W        W19213  12.429  13.566   4.953 -0.1644  0.1251 -0.0675
 1690W        W19214   4.329  16.497  12.729 -0.1620 -0.4868  0.0445
 1691W        W19215  10.764  12.167   4.993  0.1455  0.0410 -0.4070
 1692W        W19216  16.230   7.293   0.328  0.1656 -0.0528  0.2863
 1693W        W19217   4.629   7.038  13.658 -0.0583 -0.2497  0.3822
 1694W        W19218   3.266   8.111   1.786  0.0684 -0.0421  0.1859
 1695W        W19219   1.127  16.022   1.879  0.0671  0.4735 -0.1757
 1696W        W19220   0.074  17.110  17.041 -0.0096 -0.3102  0.2987
 1697W        W19221   5.484   8.247   0.652 -0.0609  0.0547 -0.1185
 1698W        W19222   8.256   1.494   0.447  0.3005  0.0566 -0.1826
 1699W        W19223   3.665  14.848  14.943  0.1425  0.0229  0.2558
 1700W        W19224  11.022  12.632   3.414 -0.1935  0.0888 -0.1991
 1701W        W19225   2.334   7.378   3.289 -0.0948 -0.1614 -0.1387
 1702W        W19226  16.620   1.414   0.018 -0.0926  0.1636  0.1199
 1703W        W19227  12.581   5.404  17.541  0.0615 -0.0645 -0.3223
 1704W        W19228   9.269  13.882   4.265  0.0053  0.1689 -0.1170
 1705W        W19229   5.685  11.910   4.026 -0.1354 -0.0468  0.2156
 1706W        W19230  11.540  10.949   4.041  0.1361  0.0871 -0.0053
 1707W        W19231  16.772   5.204   2.566 -0.0559 -0.0999 -0.1177
 1708W        W19232   1.259   5.441   3.128 -0.1525 -0.0135  0.0745
 1709W        W19233  15.060  14.093  17.012 -0.2111 -0.1807 -0.1909
 1710W        W19234   3.507   3.217   3.506  0.0984  0.2274  0.2822
 1711W        W19235   5.797   4.792  15.395 -0.0661 -0.0034 -0.2494
 1712W        W19236  11.987   6.401   1.406 -0.2380 -0.1279 -0.0458
 1713W        W19237   9.496   0.192  13.845 -0.0082 -0.2031 -0.0505
 1714W        W19238  12.295   1.439   5.532  0.1479 -0.4121 -0.2597
 1715W        W19239  12.939  16.854   0.711 -0.1650  0.0131 -0.1014
 1716W        W19240   9.821   1.760  16.892  0.1262 -0.1050  0.1146
 1717W        W19241  15.884   7.733  17.118 -0.1135  0.0438 -0.0362
 1718W        W19242   8.410   7.271   4.689  0.0153  0.0233 -0.1970
 1719W        W19243  11.852   8.457  15.300 -0.0326 -0.0064  0.3052
 1720W        W19244  15.693  10.871  12.397 -0.0213  0.2294  0.1727
 1721W        W19245   0.227   9.027  13.868  0.1191  0.3565 -0.2103
 1722W        W19246  15.486   0.072  14.431  0.0483  0.2264 -0.0232
 1723W        W19247   4.157  13.060  15.538 -0.0417 -0.2774  0.3267
 1724W        W19248   3.653   0.491  12.537  0.0547  0.0721 -0.1153
 1725W        W19249   3.270  13.699   5.067 -0.1609 -0.2286 -0.2232
 1726W        W19250   1.448  16.244   5.075 -0.3073  0.1740 -0.0144
 1727W        W19251   0.289  12.516   3.689 -0.0144 -0.0543  0.1034
 1728W        W19252  13.432   8.356  17.051 -0.0406 -0.1057 -0.0652
 1729W        W19253   9.364   8.536   2.847 -0.0315  0.1431  0.0102
 1730W        W19254  16.569   3.879  16.437  0.2838  0.0531 -0.0858
 1731W        W19255   8.378  10.017   4.750 -0.0102 -0.0334 -0.2024
 1732W        W19256   2.928   9.658  13.162  0.0561  0.0260 -0.1878
 1733W        W19257  10.213   6.021  14.460 -0.1427  0.2006 -0.0165
 1734W        W19258   1.462   9.306   1.592  0.1523  0.1907 -0.0524
 1735W        W19259   2.923   0.388  13.005 -0.4266  0.2879 -0.0306
 1736W        W19260   5.997   8.670  13.549 -0.0868 -0.2160 -0.0054
 1737W        W19261  16.330  13.452  13.855 -0.1936  0.1848 -0.2630
 1738W        W19262   9.022   5.394  13.905 -0.0421  0.0925  0.1889
 1739W        W19263  12.948   4.591  17.174  0.0790 -0.1061  0.0514
 1740W        W19264  11.446  10.629   1.221  0.0864 -0.1707  0.0748
 1741W        W19265   4.096   4.163  17.163  0.0810  0.1851  0.1964
 1742W        W19266  14.417   4.404   4.718 -0.1992  0.2337  0.0151
 1743W        W19267  12.052   1.878  12.770  0.1076 -0.2678  0.0171
 1744W        W19268  14.764  14.893  16.155  0.1941  0.2254 -0.1843
 1745W        W19269  10.494  11.008  15.944 -0.1888  0.3352  0.2409
 1746W        W19270  10.246   0.283  17.074  0.0792  0.1298  0.1323
 1747W        W19271   7.021  11.783   1.672  0.0629 -0.0733 -0.1070
 1748W        W19272   8.102  15.487   2.337  0.3933  0.1277  0.2663
 1749W        W19273  16.356   8.917   4.218  0.2328  0.1249  0.1614
 1750W        W19274   0.477   6.542  16.666 -0.2086  0.2139  0.0370
 1751W        W19275  10.497  12.590   5.997 -0.0737 -0.0797 -0.0581
 1752W        W19276   3.488   8.535  13.324 -0.1311  0.1401 -0.1174
 1753W        W19277   1.852   3.775   3.135  0.2023 -0.0405  0.1646
 1754W        W19278   3.141   7.534   3.342  0.1455 -0.1623 -0.1191
 1755W        W19279   8.301   8.593   0.553  0.1387  0.0323  0.1430
 1756W        W19280   2.972  10.082   4.038 -0.0140  0.0385 -0.0609
 1757W        W19281   7.903  13.532   5.302 -0.4099 -0.2142  0.1595
 1758W        W19282  10.420  12.506   5.485  0.2071  0.0047 -0.1881
 1759W        W19283   0.691   1.206   4.076  0.2655  0.0021 -0.0589
 1760W        W19284   4.720  10.931  16.108  0.2988 -0.0684 -0.0743
 1761W        W19285  13.448   6.518  12.993  0.1821  0.0027  0.0637
 1762W        W19286  15.573   2.387  17.357 -0.1022 -0.0716  0.2029
 1763W        W19287  13.129   5.955   5.181  0.2410 -0.0222  0.0966
 1764W        W19288  13.210   6.001   2.614  0.1891  0.0444  0.0400
 1765W        W19289   1.502   7.654   1.903 -0.1384 -0.0510  0.1531
 1766W        W19290   7.391  10.439   2.512  0.1356 -0.1623 -0.0676
 1767W        W19291  11.771   0.421   0.817  0.0063 -0.1303 -0.1643
 1768W        W19292   6.875   4.391  17.522 -0.0711 -0.0568 -0.0234
 1769W        W19293   2.085   6.634  13.501  0.1108 -0.0072  0.3387
 1770W        W19294  16.696   0.655   5.829 -0.2240  0.0600 -0.1805
 1771W        W19295   8.829   2.490   4.414 -0.2787  0.1860 -0.0402
 1772W        W19296   4.375  11.347   1.388 -0.2178  0.1535 -0.0818
 1773W        W19297  16.108  15.339  15.543  0.1063  0.3201 -0.1256
 1774W        W19298  12.568   7.683  14.003 -0.1363  0.2145  0.2484
 1775W        W19299  10.877   2.686  15.130 -0.3208 -0.1129  0.0844
 1776W        W19300   3.091   3.104  15.614  0.0240 -0.0258  0.1831
 1777W        W19301   9.733   0.653  12.594  0.2173 -0.2405  0.1295
 1778W        W19302  13.715   3.096   0.248  0.1595 -0.1226 -0.0388
 1779W        W19303   5.840   7.107  15.175 -0.1718 -0.1831  0.0491
 1780W        W19304  13.002   6.250  17.685 -0.1769 -0.0011  0.0213
 1781W        W19305   9.419   2.638  14.477  0.5380 -0.3444  0.1339
 1782W        W19306   8.859   9.388   1.627 -0.0735 -0.0217  0.3385
 1783W        W19307   2.866   9.119  11.504  0.0073 -0.1295  0.0341
 1784W        W19308  16.071   2.370   0.850 -0.1372 -0.0686 -0.2185
 1785W        W19309   6.792  15.417  12.548 -0.2074 -0.2701  0.0177
 1786W        W19310   0.591   7.833  14.404 -0.2841  0.1943 -0.3981
 1787W        W19311   1.320   8.239  13.409 -0.2037 -0.1051  0.1984
 1788W        W19312   4.650   3.286   2.009  0.3632 -0.0288  0.1885
 1789W        W19313   3.099  10.461   5.226  0.4558  0.1710  0.1830
 1790W        W19314   2.806   3.805   0.057  0.0052  0.3575  0.0714
 1791W        W19315  14.015  14.338  14.512 -0.1883  0.1957  0.2141
 1792W        W19316   3.276   6.158  15.394 -0.2135 -0.1546  0.0983
 1793W        W19317  15.611   6.173  16.282 -0.0581  0.0143 -0.0168
 1794W        W19318   1.051   5.767   3.911 -0.2222 -0.0754  0.0432
 1795W        W19319  13.373   1.422  17.600 -0.2262  0.1588  0.0855
 1796W        W19320  11.967   3.580   2.584 -0.0908 -0.0588  0.2320
 1797W        W19321  11.826   3.688  14.841 -0.3540 -0.1156 -0.0209
 1798W        W19322   8.198   7.874  12.985  0.1940 -0.0451 -0.0227
 1799W        W19323   2.912  11.873  17.549  0.0495  0.2803  0.2717
 1800W        W19324   5.860  16.485  17.266  0.2448 -0.0223 -0.0395
 1801W        W19325   5.857   4.179   3.121 -0.3389 -0.2204 -0.0036
 1802W        W19326   0.853  17.118   4.854 -0.0353  0.1955  0.0995
 1803W        W19327   7.689  15.625   0.076  0.1729  0.0193 -0.1034
 1804W        W19328  17.085   8.970   2.626  0.1930  0.3022  0.0656
 1805W        W19329  11.009   9.379  14.430  0.2249  0.0666  0.3366
 1806W        W19330   2.469   9.381   4.170  0.0652 -0.1379 -0.1091
 1807W        W19331  15.649   6.353  12.858  0.1448  0.0474 -0.0034
 1808W        W19332  10.564   8.441  15.852 -0.2525  0.0335 -0.1045
 1809W        W19333  12.532   7.333  16.457  0.0396 -0.2644 -0.0899
 1810W        W19334  14.158   2.612  17.303  0.0058 -0.0331 -0.2697
 1811W        W19335  15.023   0.995  17.164 -0.1690  0.0219 -0.0773
 1812W        W19336  13.666  14.901   4.722  0.2074  0.0633 -0.1796
 1813W        W19337   5.497   9.870  14.096  0.0971 -0.2015  0.2050
 1814W        W19338  16.242   2.832   6.428  0.1428 -0.1003  0.0036
 1815W        W19339   2.010   4.634   2.092  0.2186  0.3059  0.0588
 1816W        W19340   0.716   0.251  12.690  0.1517 -0.2175 -0.1345
 1817W        W19341   6.903   4.818   2.864  0.5360  0.2694  0.1505
 1818W        W19342   7.239   9.814   1.240  0.1383 -0.1544 -0.2060
 1819W        W19343   0.645  13.917   1.543 -0.2541  0.0597  0.0428
 1820W        W19344   6.118  12.591  13.171  0.3024 -0.1279 -0.3910
 1821W        W19345   5.828   3.693  12.195 -0.0980  0.0891 -0.1375
 1822W        W19346   7.884  15.939   5.041 -0.1386 -0.2697 -0.0578
 1823W        W19347   7.744  16.617   4.495 -0.0179 -0.3655  0.0180
 1824W        W19348   7.615  15.376  13.163 -0.3121 -0.0136  0.2642
 1825W        W19349   1.543   3.373  17.732 -0.1007 -0.2059 -0.0556
 1826W        W19350  12.977  12.120   2.656 -0.1076 -0.1761 -0.0816
 1827W        W19351   1.367  10.193  14.794  0.0854 -0.0732  0.3087
 1828W        W19352   1.647  14.455   3.496 -0.1395  0.0145 -0.1524
 1829W        W19353  16.097  16.328  15.395  0.1993 -0.0792  0.1343
 1830W        W19354   0.088   0.581   3.855  0.2482  0.2753 -0.0692
 1831W        W19355   1.253   1.793  17.207 -0.0739 -0.0788 -0.1684
 1832W        W19356  15.872   2.880   0.961 -0.3664 -0.4855  0.0917
 1833W        W19357  16.119  13.369   0.390  0.1006 -0.1170  0.0131
 1834W        W19358   8.120   8.451  12.945 -0.0168 -0.3217 -0.0883
 1835W        W19359   0.383   0.278   0.346 -0.0407  0.0542 -0.0484
 1836W        W19360   0.237   1.303  15.201  0.2209 -0.4092  0.2508
 1837W        W19361   9.289  10.376   1.951  0.1507 -0.0092 -0.0400
 1838W        W19362   4.165   9.441   5.368  0.0600 -0.0362  0.0116
 1839W        W19363   2.648  11.250   1.527 -0.2918  0.0282 -0.3133
 1840W        W19364  14.035  12.221  13.716  0.3270  0.2450  0.0151
 1841W        W19365  12.341   3.882  13.602  0.2131  0.1157  0.3871
 1842W        W19366   2.927   7.280  12.209  0.1063 -0.0085  0.0947
 1843W        W19367  14.779   6.574   3.655 -0.1701  0.0369  0.0826
 1844W        W19368   2.408   8.725   3.591  0.1416  0.0444  0.1992
 1845W        W19369   7.343   8.300   0.097 -0.1530  0.2454  0.1625
 1846W        W19370   8.733   7.914  14.890  0.0487  0.4706  0.1795
 1847W        W19371   6.980  10.674   4.391 -0.3611  0.2446  0.0267
 1848W        W19372   7.786  14.284   2.561 -0.0972  0.1360 -0.0600
 1849W        W19373  10.700   9.007   6.236 -0.0478  0.0068 -0.3862
 1850W        W19374   3.660   3.822   0.114 -0.0158  0.0293  0.0872
 1851W        W19375   5.820  10.952   1.630 -0.1551  0.3722  0.0688
 1852W        W19376   5.353   3.459   4.536  0.0518  0.0862 -0.0441
 1853W        W19377  14.700   3.728  13.231 -0.1920 -0.2819 -0.0340
 1854W        W19378   4.436   6.460   1.370  0.3580  0.0562 -0.0420
 1855W        W19379  16.404   4.816   0.067  0.3091 -0.1403 -0.3614
 1856W        W19380   0.176  14.683  15.401  0.2207 -0.3213  0.4350
 1857W        W19381  16.827   7.988   0.321 -0.1808  0.0261  0.2549
 1858W        W19382   6.636   0.645  14.022  0.2556  0.0289  0.4800
 1859W        W19383   5.504   8.694   5.275  0.2342 -0.0813  0.0151
 1860W        W19384   5.408  10.951   1.848  0.1696 -0.2846  0.1857
 1861W        W19385  15.356  12.887   4.938  0.1486  0.2590  0.0120
 1862W        W19386   2.449   9.945   0.584 -0.3533 -0.0298  0.3174
 1863W        W19387   7.755  12.320  13.602 -0.1189 -0.1236 -0.1934
 1864W        W19388  11.270   6.781  15.718  0.0017  0.0051 -0.1471
 1865W        W19389   0.989  14.596  12.608 -0.1322  0.1172 -0.0810
 1866W        W19390   4.076   2.048  13.894  0.1393  0.4961 -0.0929
 1867W        W19391   0.176  14.375   5.547  0.1373 -0.2144  0.3182
 1868W        W19392   5.113  13.305  16.040 -0.1024 -0.2011  0.0518
 1869W        W19393   2.898  14.615   5.639  0.1728  0.2202 -0.0628
 1870W        W19394   1.349   8.044   2.287 -0.2296  0.0066  0.0849
 1871W        W19395   6.405   6.062  12.715 -0.0453 -0.3758  0.2050
 1872W        W19396  10.058   8.013  14.150 -0.0124  0.0409 -0.0439
 1873W        W19397   2.896   5.394  13.540 -0.1720  0.2434 -0.0748
 1874W        W19398  14.348   8.839  16.849  0.0553  0.0884  0.2355
 1875W        W19399  14.936   2.700  14.015  0.0163  0.1129  0.3139
 1876W        W19400   4.925   4.487   5.510 -0.0848  0.0300 -0.3040
 1877W        W19401   7.725  14.453   3.890  0.0742  0.1000 -0.0772
 1878W        W19402   1.423  13.342   3.622 -0.0592 -0.1112  0.3073
 1879W        W19403   9.931   3.424   4.916 -0.1871 -0.0103  0.0926
 1880W        W19404  11.978   8.429  13.939 -0.2853 -0.1106  0.3747
 1881W        W19405  13.792   2.031   3.218 -0.0458 -0.0501 -0.2109
 1882W        W19406   3.328   0.743  13.736  0.0096  0.3047  0.1070
 1883W        W19407   4.738  11.524  17.008 -0.1842  0.0379  0.0201
 1884W        W19408  16.233   9.997   3.194  0.0552  0.1879  0.5191
 1885W        W19409   1.615   8.637   0.524 -0.0076 -0.3081 -0.0576
 1886W        W19410   9.529   9.896  12.946  0.1038 -0.0164 -0.0616
 1887W        W19411   2.483   6.929  11.405 -0.1840  0.1862 -0.0742
 1888W        W19412  14.256   8.799  14.213 -0.1122  0.2625  0.0130
 1889W        W19413  16.873   8.310  12.164  0.0891 -0.0349  0.1693
 1890W        W19414  12.828   1.275  12.333 -0.3367 -0.0599 -0.0688
 1891W        W19415  13.729   4.597  17.646  0.0921  0.0007 -0.2362
 1892W        W19416   3.287  15.211  12.892  0.0801 -0.1193 -0.0002
 1893W        W19417   5.041  13.277   0.064  0.0332 -0.0611 -0.2286
 1894W        W19418  14.680   8.923  14.543  0.0472  0.0018  0.3627
 1895W        W19419  10.963  13.122   3.579  0.3474 -0.2299 -0.2489
 1896W        W19420   4.951   9.034   1.647  0.1627  0.4099 -0.0183
 1897W        W19421   6.082   8.287   5.219 -0.2504  0.1515  0.1257
 1898W        W19422   3.468   1.305   1.360  0.2543 -0.2387  0.1927
 1899W        W19423   7.812   6.569   2.160  0.1462 -0.0573  0.2289
 1900W        W19424   1.155   3.984   2.553  0.0445 -0.0236 -0.0936
 1901W        W19425  14.506  10.992  15.230  0.0354  0.0012 -0.3289
 1902W        W19426  12.022  12.459   2.564 -0.0163  0.0400  0.1538
 1903W        W19427  15.282   9.326   5.006  0.1775 -0.1282  0.0955
 1904W        W19428   9.714   1.323  15.226 -0.0069 -0.3276 -0.0026
 1905W        W19429   1.424   7.690   1.375 -0.1310  0.0017  0.0630
 1906W        W19430  10.606   1.078   2.799  0.0331  0.0659 -0.1987
 1907W        W19431   9.680   2.405  13.533  0.0191 -0.0957  0.1921
 1908W        W19432   1.169   3.233   1.871 -0.2340 -0.0470  0.1003
 1909W        W19433  14.791  13.241  17.125  0.0247  0.1075  0.1480
 1910W        W19434  13.654  10.848  14.368  0.1776 -0.1124 -0.0398
 1911W        W19435   3.925   0.121   0.434  0.0343  0.1129 -0.1693
 1912W        W19436   3.361   8.508   0.913 -0.1598  0.2506  0.0072
 1913W        W19437  16.529   1.220  15.283 -0.0714 -0.2601  0.0151
 1914W        W19438  11.350  14.246  12.253  0.3787 -0.0341 -0.0324
 1915W        W19439   8.359  16.612   0.514  0.1891  0.1414 -0.0114
 1916W        W19440   7.354  15.899   0.850 -0.0703  0.1273  0.1107
 1917W        W19441   6.080   1.876   3.919  0.3345  0.0722 -0.4005
 1918W        W19442  16.843   0.083   3.259 -0.1264 -0.1821  0.2396
 1919W        W19443  15.310   2.549   4.150 -0.1576  0.0134 -0.4357
 1920W        W19444   1.047   2.232  13.935 -0.0495 -0.3040 -0.1350
 1921W        W19445   6.335   9.043  13.419  0.4846 -0.0314  0.0741
 1922W        W19446   0.220   2.305   5.314  0.0679 -0.0904 -0.2941
 1923W        W19447   3.461  11.584   1.925  0.1798  0.0144  0.0060
 1924W        W19448   9.970   3.012  17.311  0.1247 -0.0226 -0.1853
 1925W        W19449   9.189   6.310   1.379  0.0175 -0.0961  0.0019
 1926W        W19450   4.218   9.492  13.676  0.1455 -0.1424  0.1434
 1927W        W19451   5.300   0.556  16.212 -0.0930 -0.2075  0.1062
 1928W        W19452  17.103   2.025   2.752  0.2300  0.0445 -0.0507
 1929W        W19453   2.611  13.340  17.021  0.1599 -0.2851  0.2444
 1930W        W19454  10.887   7.599   5.928 -0.0492 -0.0660  0.1265
 1931W        W19455  12.539  14.140  13.167  0.0430  0.1987  0.0453
 1932W        W19456  10.605  17.059  16.965  0.1774 -0.1696 -0.0321
 1933W        W19457   3.294  15.445   0.341  0.0123 -0.0680 -0.0046
 1934W        W19458   6.517  11.565   0.432  0.4965 -0.0999 -0.1927
 1935W        W19459   9.755   6.661   2.263 -0.0380 -0.1160  0.0428
 1936W        W19460  12.399  11.536  13.275  0.0155 -0.0159 -0.0705
 1937W        W19461   2.069  10.457  13.080 -0.2303 -0.3265  0.0435
 1938W        W19462   4.982   9.496   5.604  0.0465  0.0582 -0.1291
 1939W        W19463   2.572   6.450  13.565  0.0823 -0.1855  0.1931
 1940W        W19464   0.407  16.206   1.517  0.1611 -0.0874 -0.1106
 1941W        W19465   8.224   2.844  13.974 -0.1484  0.2366  0.1654
 1942W        W19466   0.381   5.669   5.063 -0.0145 -0.2984 -0.1264
 1943W        W19467   4.855  11.692   1.506 -0.0382  0.1348  0.2699
 1944W        W19468  16.985   1.210  16.223 -0.0981  0.0868  0.2554
 1945W        W19469   6.626   1.687  15.397 -0.2190  0.1474 -0.1149
 1946W        W19470   8.996  13.582   5.016  0.2747  0.0433 -0.0911
 1947W        W19471   3.766   6.576  15.147 -0.0943  0.1269  0.2063
 1948W        W19472  16.520   8.908  15.754 -0.1963  0.0458 -0.3996
 1949W        W19473   9.624   3.532  17.513 -0.0019 -0.0929 -0.1460
 1950W        W19474   3.788   1.300  14.195  0.0940  0.2792 -0.1145
 1951W        W19475  13.738   9.096   5.059  0.1421  0.2463  0.0609
 1952W        W19476  11.097  13.236   5.327  0.1427 -0.2898 -0.0096
 1953W        W19477   7.778  10.303   3.483  0.0607  0.0176 -0.3704
 1954W        W19478   4.494  10.863  14.295 -0.0133 -0.0019  0.0925
 1955W        W19479   8.865  14.565  15.295  0.0965 -0.0560  0.5663
 1956W        W19480   9.433   7.447  12.214  0.0375  0.1079  0.0530
 1957W        W19481  16.897  14.759   0.419  0.1779 -0.3612  0.1851
 1958W        W19482   3.254   9.703   0.037  0.0838 -0.1059 -0.0596
 1959W        W19483  15.399   1.863  17.312  0.2066 -0.1078 -0.0293
 1960W        W19484   4.614   7.008   1.708  0.1226 -0.1701 -0.0617
 1961W        W19485  10.075  10.081  15.009 -0.2059 -0.6883 -0.0985
 1962W        W19486  13.493   2.047   2.776 -0.1900 -0.2440 -0.0722
 1963W        W19487   9.976   2.511  15.775 -0.0933 -0.0819 -0.3620
 1964W        W19488   5.832   0.360   3.006  0.0726  0.2455  0.0609
 1965W        W19489   6.292   4.123   0.806 -0.0653  0.0955  0.1575
 1966W        W19490   3.215  12.969  16.345 -0.1296  0.1413 -0.1249
 1967W        W19491   0.419  12.572  15.681 -0.0583  0.1574 -0.0325
 1968W        W19492  13.645  11.834  13.702  0.0538 -0.1476 -0.1634
 1969W        W19493  17.112  15.196   3.103 -0.1928 -0.0023 -0.0733
 1970W        W19494  16.118  15.095  14.157 -0.2776 -0.1701 -0.0373
 1971W        W19495   5.838  11.334   2.962 -0.1073 -0.1903  0.0867
 1972W        W19496   8.924   6.026   4.781 -0.0914  0.1798 -0.1942
 1973W        W19497  17.096  15.472   2.087  0.0846 -0.2837 -0.0880
 1974W        W19498  13.314  16.966   1.665  0.1326  0.2073 -0.0050
 1975W        W19499   2.624  17.112  12.542 -0.3194  0.1557  0.1181
 1976W        W19500   6.051   3.152   1.896 -0.1067 -0.2340  0.0275
 1977W        W19501  17.102   6.497   2.530 -0.0035 -0.0025  0.1433
 1978W        W19502   3.452  11.182   2.197  0.2370  0.0698 -0.1731
 1979W        W19503   2.820   9.646   5.067  0.0786  0.1967 -0.1478
 1980W        W19504   6.277   0.740   4.552 -0.0313  0.1857 -0.0300
 1981W        W19505  15.473  14.702  17.496 -0.0364 -0.1706  0.2731
 1982W        W19506  16.884   1.580   5.099  0.2513  0.3167 -0.2058
 1983W        W19507   2.036  12.820   4.006  0.1020  0.0519 -0.1071
 1984W        W19508   0.179   5.646  12.533  0.0781 -0.0731  0.0886
 1985W        W19509  10.254   5.641  13.022  0.3666  0.1982 -0.1048
 1986W        W19510   2.429  10.040  17.365  0.0074  0.1451  0.0556
 1987W        W19511  14.719  16.257  16.250  0.2601  0.0865  0.1131
 1988W        W19512   9.679   8.708   0.818 -0.0141 -0.0093  0.2128
 1989W        W19513   4.276   8.670  13.850  0.0059 -0.0518  0.1011
 1990W        W19514  13.969  12.210   5.473 -0.2651  0.1694  0.1826
 1991W        W19515   0.523   7.218   4.849  0.1010 -0.1109 -0.0754
 1992W        W19516  15.754   9.597  15.916 -0.1181 -0.2263 -0.0882
 1993W        W19517  11.365   3.895  11.745 -0.1274 -0.0356 -0.3331
 1994W        W19518  13.454   9.161  14.233  0.2142  0.0264 -0.4265
 1995W        W19519   5.073  16.652  14.428  0.0296  0.0454 -0.1604
 1996W        W19520   7.369   8.391  16.490  0.3555  0.0474  0.1335
 1997W        W19521   7.386   7.055   5.372  0.3149 -0.1913 -0.3264
 1998W        W19522  13.177  16.410  17.631  0.0048 -0.0481  0.1755
 1999W        W19523  16.601   5.379  14.628  0.0038 -0.1473  0.0104
 2000W        W19524  13.066   4.350   1.971 -0.0035  0.1878 -0.1011
 2001W        W19525   4.426   1.296  13.361  0.2135  0.1409 -0.2302
 2002W        W19526  14.681  15.785  16.074 -0.0570 -0.0529  0.0893
 2003W        W19527   5.506  14.671  13.576 -0.2353  0.0616 -0.0620
 2004W        W19528  14.848   8.814   0.602  0.2006  0.1692  0.0338
 2005W        W19529   1.382  11.055   1.948  0.0528 -0.1875 -0.0236
 2006W        W19530  10.810  12.989  12.364 -0.2084  0.0031 -0.0727
 2007W        W19531   8.110  10.023   0.245  0.1812 -0.2785  0.1078
 2008W        W19532  14.602   1.729   5.780  0.0613  0.2259  0.0316
 2009W        W19533   8.222  12.965  17.575 -0.1105 -0.1700  0.0878
 2010W        W19534   4.924  13.968   0.173  0.0148  0.0566  0.0941
 2011W        W19535   9.601  14.536  16.744 -0.0463 -0.0466  0.3088
 2012W        W19536   2.524   9.398   1.464  0.1417 -0.1400  0.1048
 2013W        W19537   1.768   8.260  13.667  0.2381 -0.0755 -0.3110
 2014W        W19538   8.944  11.262   2.670  0.2178  0.0055 -0.1083
 2015W        W19539  16.792  14.214   0.224  0.1065 -0.1778 -0.0079
 2016W        W19540   0.045   2.567   2.760 -0.0699 -0.0802 -0.0811
 2017W        W19541   9.016   1.197   2.573  0.0701  0.0694 -0.2580
 2018W        W19542  17.074   2.339   0.028  0.1523 -0.1692  0.1395
 2019W        W19543  14.834  15.025   2.186 -0.1808 -0.1047 -0.1780
 2020W        W19544   5.585   1.708   3.832 -0.1505 -0.0706  0.3707
 2021W        W19545  11.134   7.623   1.037 -0.2129 -0.0081 -0.0534
 2022W        W19546   8.583  16.632   3.534 -0.0950 -0.0199 -0.1118
 2023W        W19547  10.463  15.696  14.889  0.2894 -0.2416 -0.0393
 2024W        W19548   2.439   4.917   3.367  0.2041 -0.0268 -0.2640
 2025W        W19549   6.652  11.492  14.054 -0.4975  0.0034 -0.1193
 2026W        W19550   9.428  11.252  13.438 -0.0870 -0.0339 -0.1131
 2027W        W19551  14.577   5.632   4.791  0.3479 -0.1448  0.4023
 2028W        W19552   6.062   3.996  14.832 -0.0567  0.1278 -0.1216
 2029W        W19553   0.441   4.847  16.139 -0.2781  0.1838  0.0283
 2030W        W19554   5.584  16.695   2.229 -0.0652  0.1498  0.0263
 2031W        W19555   4.153   3.740  14.454  0.1199 -0.1675 -0.0871
 2032W        W19556   9.495  11.297  16.486 -0.1679 -0.3392  0.1832
 2033W        W19557   1.579  11.836   1.462 -0.0767 -0.0414 -0.1191
 2034W        W19558   0.311   7.343   0.470  0.0183 -0.0172 -0.2232
 2035W        W19559  14.437   0.328  13.049 -0.0447  0.0852 -0.1639
 2036W        W19560   8.926  15.876  15.881  0.0003 -0.0181  0.0892
 2037W        W19561   7.471  12.262  17.463  0.0298  0.0513  0.1593
 2038W        W19562   8.617  13.822  15.639 -0.0475 -0.1776  0.1667
 2039W        W19563  12.974   3.075  12.592  0.1831 -0.1717 -0.0575
 2040W        W19564  13.477  11.302  16.196  0.1139 -0.1042  0.3801
 2041W        W19565   8.298   5.662   5.137  0.0739 -0.0047  0.1194
 2042W        W19566   7.192  13.386   2.664  0.0384  0.0434  0.0746
 2043W        W19567  15.468  11.229   0.304 -0.2036  0.3040  0.4312
 2044W        W19568   5.429   9.863   0.059  0.2232 -0.1586  0.1431
 2045W        W19569  12.817   2.221  17.241  0.0922 -0.0970 -0.0560
 2046W        W19570  16.628  12.674  16.771  0.1766  0.0443  0.0667
 2047W        W19571   6.254   9.779  14.141  0.0162 -0.0349  0.0771
 2048W        W19572   7.401  10.411  11.850 -0.1199 -0.3957  0.1243
 2049W        W19573   5.771  14.844  14.771  0.2595  0.0312  0.2411
 2050W        W19574  15.694   3.991   5.090 -0.0420 -0.2531  0.0129
 2051W        W19575   0.882  16.833   0.430 -0.0915  0.3157 -0.1802
 2052W        W19576   7.676   0.884  16.156 -0.0451 -0.0339  0.0434
 2053W        W19577   9.794   0.439   1.961  0.0898 -0.1698 -0.0760
 2054W        W19578   1.374   1.254   4.671  0.1521  0.0891 -0.1470
 2055W        W19579   8.874  10.647   1.935  0.0792  0.2529 -0.2110
 2056W        W19580   0.111  10.853   3.686  0.0013 -0.1425 -0.1190
 2057W        W19581  11.845  13.141   3.473 -0.3160 -0.0659  0.1910
 2058W        W19582   6.391  11.939   0.907  0.0441  0.0532  0.1403
 2059W        W19583   2.155   2.917   4.045  0.0797 -0.1901 -0.1652
 2060W        W19584   1.185   7.162  15.634  0.1409 -0.1547  0.0449
 2061W        W19585  16.029   4.723  17.009 -0.0537  0.2936 -0.0919
 2062W        W19586   1.432   6.558   5.225 -0.3036  0.0011 -0.1440
 2063W        W19587   1.926   3.630  15.601  0.1348 -0.0578 -0.1646
 2064W        W19588   8.375   5.454  13.187 -0.0186  0.1881 -0.2377
 2065W        W19589  16.257  15.005  17.001  0.3097  0.1178 -0.4135
 2066W        W19590   4.123   9.968   0.114  0.0110  0.0693  0.1369
 2067W        W19591   1.405   9.084   0.773 -0.2417  0.3126  0.1083
 2068W        W19592   5.543  13.291  16.278  0.1300  0.2134 -0.1836
 2069W        W19593   9.762   4.955   2.562  0.0207  0.0127 -0.1118
 2070W        W19594   4.965   4.949   1.667  0.0743 -0.0903  0.1239
 2071W        W19595   7.553  16.180   2.050  0.0878 -0.0078  0.1536
 2072W        W19596   1.866   3.924   5.427 -0.1024 -0.0187 -0.2377
 2073W        W19597   5.358   2.815  14.703  0.1572 -0.1590  0.0103
 2074W        W19598   1.749   7.906  12.232  0.1071  0.1574  0.1934
 2075W        W19599  14.148   4.197  16.386  0.1528 -0.3566  0.2308
 2076W        W19600  11.815  16.387   0.921  0.0067  0.1314  0.2588
 2077W        W19601  13.769   3.804   3.044  0.0747  0.1132 -0.2417
 2078W        W19602   7.833  10.531   4.742  0.1368 -0.0476 -0.2105
 2079W        W19603  16.887  11.197   1.760  0.1016 -0.3741  0.1233
 2080W        W19604   9.204  12.451  17.296  0.2814  0.1705  0.3702
 2081W        W19605  11.409   1.266   3.108 -0.0952 -0.1074 -0.0084
 2082W        W19606  10.091  11.134  14.126 -0.0946 -0.1473 -0.1742
 2083W        W19607  15.415   2.654  12.824 -0.1058 -0.1645  0.2065
 2084W        W19608   7.070   0.027  17.051 -0.1219  0.0086 -0.0316
 2085W        W19609  14.958  14.895  14.676  0.0030  0.1714 -0.0809
 2086W        W19610   8.501   9.709  12.709  0.0859 -0.0869 -0.0162
 2087W        W19611  11.694   7.955   2.539  0.2871 -0.1999  0.0814
 2088W        W19612   9.797  12.214  12.814  0.0401 -0.0304 -0.1644
 2089W        W19613  11.380   6.564  12.486 -0.0680  0.1278  0.0557
 2090W        W19614   0.358   9.629  13.736 -0.2705  0.1720 -0.0435
 2091W        W19615   4.421   1.159  14.155  0.3077 -0.2990  0.1860
 2092W        W19616   5.048  11.867   2.505  0.0684  0.0670  0.2088
 2093W        W19617  11.228   0.305   6.467 -0.2477  0.1376  0.0059
 2094W        W19618   6.453  13.150   0.234 -0.2251  0.2681 -0.0170
 2095W        W19619   4.521  13.425   3.431 -0.1024 -0.0270 -0.1590
 2096W        W19620  15.076   4.843   2.283  0.0728  0.1548  0.3350
 2097W        W19621  15.842   2.834   4.493  0.2959  0.1959 -0.0896
 2098W        W19622   2.593   7.735   0.577  0.2863  0.1364  0.1848
 2099W        W19623  17.052   4.275  17.411 -0.0358  0.5111  0.2132
 2100W        W19624   6.532  14.721   0.864 -0.1273  0.0683 -0.1952
 2101W        W19625   8.771  14.726  13.233 -0.2579  0.0234 -0.0894
 2102W        W19626   6.366   7.715   2.542  0.0488  0.0549 -0.0145
 2103W        W19627   4.309   4.126  13.404 -0.2787  0.3765 -0.3677
 2104W        W19628   1.807  12.377   1.823 -0.0707 -0.2191 -0.0497
 2105W        W19629  14.686   8.273   0.452 -0.2025  0.1130  0.1558
 2106W        W19630  13.191   0.906   6.080 -0.0799 -0.1265 -0.0112
 2107W        W19631   0.713  13.651   0.507  0.1718  0.3183 -0.2286
 2108W        W19632  16.664   7.163  14.001  0.0207  0.1920  0.0836
 2109W        W19633   6.760  15.617   3.590 -0.1291 -0.0288  0.0566
 2110W        W19634   5.992   7.588  14.993  0.0543  0.0977  0.0689
 2111W        W19635   6.253   2.101   2.009  0.0232  0.1097  0.1279
 2112W        W19636   3.498   9.883  15.689 -0.1692  0.0027  0.0577
 2113W        W19637   4.927   8.188   0.343 -0.1924 -0.0141 -0.0632
 2114W        W19638   5.279  10.924   4.946  0.0179 -0.1758  0.0018
 2115W        W19639  14.752   0.496   2.540  0.4216  0.3944 -0.0273
 2116W        W19640   3.583  15.852   5.653  0.2574 -0.3331  0.1313
 2117W        W19641   2.379  16.574   1.925  0.1790  0.0316  0.0273
 2118W        W19642   3.181   0.673   4.374 -0.1866 -0.1564 -0.1162
 2119W        W19643   9.110  12.332   2.743 -0.0805 -0.2826  0.0649
 2120W        W19644   9.102   2.234   0.529 -0.1077  0.0691  0.0253
 2121W        W19645   7.119  16.305   1.072  0.0000  0.1707  0.1767
 2122W        W19646   6.691   5.166  15.262  0.0755  0.0400 -0.0062
 2123W        W19647   0.174   2.433  13.101  0.2078  0.2960 -0.2377
 2124W        W19648   0.590  12.236  15.361  0.0926  0.0743 -0.0411
 2125W        W19649  12.956   4.097  13.781 -0.0438 -0.4283  0.0172
 2126W        W19650   1.656  10.505   4.442 -0.1292 -0.1695  0.3475
 2127W        W19651   8.984   6.096  13.631  0.3788  0.0016  0.1083
 2128W        W19652  13.374  11.618   3.934  0.2035 -0.0498  0.3644
 2129W        W19653  14.548   6.251  14.939 -0.2149 -0.1436 -0.2989
 2130W        W19654   3.093  16.076  16.029 -0.2935  0.0717  0.0604
 2131W        W19655   7.492   3.814   5.253 -0.0433 -0.2679  0.0330
 2132W        W19656   3.928   9.586   0.805 -0.2587 -0.3152 -0.0672
 2133W        W19657   5.426  12.951   5.584  0.0838  0.0065  0.1077
 2134W        W19658   7.692   4.888  17.313  0.2259 -0.0695  0.4690
 2135W        W19659  16.851  12.771   0.540 -0.0729 -0.0749  0.0576
 2136W        W19660  10.415   1.397   1.980  0.0216  0.3315  0.4251
 2137W        W19661   8.444   8.933   2.508  0.1226 -0.0128 -0.1989
 2138W        W19662  14.762  12.009  16.137 -0.1669 -0.0486 -0.2477
 2139W        W19663   8.963   7.804   4.077 -0.4582  0.1572 -0.2587
 2140W        W19664  14.134  13.660   2.560 -0.1498 -0.2031  0.3265
 2141W        W19665  10.928  10.335  12.031  0.2646 -0.2117 -0.3050
 2142W        W19666   8.048  15.151  12.951 -0.0337 -0.0784  0.1527
 2143W        W19667   8.548   7.821   2.278 -0.0952 -0.0407  0.1710
 2144W        W19668  14.389  16.083  15.275  0.0139 -0.0932  0.1120
 2145W        W19669   5.723   4.535  12.175  0.2437  0.2516 -0.2172
 2146W        W19670  13.346   2.774   6.071 -0.1790 -0.0931  0.0563
 2147W        W19671   7.505   0.721  12.153 -0.1000  0.1482  0.1851
 2148W        W19672   9.114   5.675  15.794 -0.1253 -0.2016 -0.1798
 2149W        W19673   0.987   2.438   4.622  0.1322  0.0841 -0.1530
 2150W        W19674  12.976   2.567  14.915 -0.1983  0.2399  0.3165
 2151W        W19675  12.530   2.055   3.273  0.2466  0.2763 -0.1969
 2152W        W19676  15.110   5.140   3.572 -0.1933 -0.0382 -0.0866
 2153W        W19677  15.720   6.056  14.910 -0.1247 -0.0272  0.0780
 2154W        W19678  10.204   8.386  16.233 -0.0722 -0.2124 -0.1161
 2155W        W19679  14.699   8.846  17.388 -0.1773 -0.0501  0.1420
 2156W        W19680   9.836   2.057   1.980 -0.0229 -0.1373 -0.1287
 2157W        W19681   4.424  15.909  14.506 -0.0166 -0.3443 -0.0160
 2158W        W19682  14.559  15.501   2.646 -0.0325 -0.1522 -0.1365
 2159W        W19683  15.571   8.173  13.847  0.0118  0.2637  0.0170
 2160W        W19684   7.780   5.627   2.097  0.0192  0.0982 -0.0194
 2161W        W19685   8.234   8.744   4.229  0.0788 -0.1352 -0.1021
 2162W        W19686   2.917   0.202  17.323 -0.2294 -0.1648 -0.1230
 2163W        W19687  15.265  11.376  13.471  0.0139 -0.0157  0.2852
 2164W        W19688  12.795   5.765  17.197 -0.2197  0.0071 -0.0952
 2165W        W19689   3.586   4.465  15.254  0.3283 -0.1263 -0.1608
 2166W        W19690  12.039  10.306   4.709 -0.2647  0.2019  0.0362
 2167W        W19691  10.053  15.684  14.355  0.5234  0.0490 -0.0419
 2168W        W19692   8.124   9.071  15.656 -0.2427 -0.0772 -0.2516
 2169W        W19693   1.003   7.491  16.871 -0.1457 -0.0633 -0.2851
 2170W        W19694   1.993  14.588  16.052 -0.2188  0.0580 -0.3994
 2171W        W19695  15.623  13.602   0.330 -0.0835 -0.0868  0.3114
 2172W        W19696  11.198  11.371  15.553 -0.0228  0.0302 -0.0769
 2173W        W19697  10.946   0.932   2.432  0.0202  0.2739  0.1085
 2174W        W19698  16.291  16.368  17.518 -0.0566 -0.2359  0.0385
 2175W        W19699  15.950  13.938  16.517  0.1041 -0.0311 -0.0337
 2176W        W19700   7.077  12.736   4.014  0.0436  0.1114 -0.0385
 2177W        W19701   2.103  16.527   3.910  0.0089 -0.0631 -0.0547
 2178W        W19702   4.213   2.566  12.990 -0.1022  0.0073 -0.3975
 2179W        W19703  15.363   3.636   0.906  0.0362  0.1524 -0.1872
 2180W        W19704  10.104  14.562   2.770 -0.0884 -0.0159 -0.0119
 2181W        W19705  15.086   1.161   4.500 -0.3205  0.2036  0.0897
 2182W        W19706  12.105  14.097  12.863 -0.0457 -0.1001 -0.0606
 2183W        W19707   5.026   8.673  14.577 -0.0028 -0.1015 -0.1792
 2184W        W19708   0.484  16.832   2.246 -0.1166 -0.1422 -0.1625
 2185W        W19709  14.422  13.898  17.493  0.1299  0.1833 -0.0849
 2186W        W19710   1.925   3.631  14.655 -0.0242  0.0648  0.0142
 2187W        W19711   2.471   7.072  14.077  0.5301  0.0930  0.0361
 2188W        W19712  12.692   0.872   0.147 -0.0278  0.0859 -0.1678
 2189W        W19713   2.874   1.502   5.444  0.2542 -0.2473  0.1429
 2190W        W19714  10.012  11.471  13.186 -0.2762  0.2916 -0.0724
 2191W        W19715  16.091   0.427  16.424  0.0066  0.0838  0.1121
 2192W        W19716   2.131   5.966   1.972 -0.0915 -0.2595 -0.1545
 2193W        W19717  16.294  11.443   0.788  0.2039  0.0184 -0.0770
 2194W        W19718   4.464   5.143   0.042 -0.2996  0.0889  0.3417
 2195W        W19719   2.698   0.289   0.944 -0.2136 -0.1542  0.2067
 2196W        W19720  15.493  12.763  14.329 -0.0583 -0.3832  0.1141
 2197W        W19721  14.507   3.949   1.051 -0.0030  0.1698 -0.1469
 2198W        W19722   6.275  12.667   4.918  0.0118  0.1269 -0.0891
 2199W        W19723  16.488  14.393  13.163 -0.2257 -0.1305 -0.1226
 2200W        W19724   2.496  13.136  13.031 -0.1148  0.0759 -0.1216
 2201W        W19725   2.167  14.067  11.864 -0.0704 -0.0670  0.0550
 2202W        W19726   0.867   4.311   5.281 -0.0093 -0.3358  0.3681
 2203W        W19727   1.737   0.560  13.447  0.1309  0.1991 -0.0702
 2204W        W19728   6.113  13.210  17.120 -0.1842 -0.2932  0.2480
 2205W        W19729   5.959   3.734  13.622 -0.1964  0.0345  0.1014
 2206W        W19730   0.960   8.030  12.727  0.0426  0.0991  0.1606
 2207W        W19731  15.797   7.974   1.129  0.0447 -0.1035  0.0785
 2208W        W19732  14.909  16.136   4.616  0.1248 -0.1529  0.0942
 2209W        W19733  14.991  16.204   4.098 -0.0266  0.0102 -0.0513
 2210W        W19734  11.263   2.311   0.641 -0.0725 -0.0404 -0.0305
 2211W        W19735   3.762  16.373   0.846 -0.1347 -0.2033 -0.4452
 2212W        W19736  10.036   3.996   5.354  0.1170  0.1718  0.1444
 2213W        W19737  16.562  15.807  13.893 -0.1762 -0.0770  0.2508
 2214W        W19738  14.009  14.144  13.101 -0.0426 -0.1369  0.3390
 2215W        W19739   7.680   9.366   2.242  0.3024 -0.0440 -0.2508
 2216W        W19740   0.966   7.983   5.114  0.1269 -0.1279 -0.3329
 2217W        W19741   3.467  11.077  12.744  0.0711  0.0027  0.2520
 2218W        W19742   4.849   5.548   4.192 -0.0796  0.2739 -0.0885
 2219W        W19743  10.195  16.161   1.409 -0.1269  0.1731 -0.1744
 2220W        W19744   9.006   5.573   5.600  0.0331 -0.1764  0.1813
 2221W        W19745   2.673   1.506  15.612  0.0632 -0.3182  0.2850
 2222W        W19746  12.163   5.912  13.890 -0.1156 -0.1547 -0.0403
 2223W        W19747  10.905   5.443  14.223 -0.0959 -0.1743 -0.1552
 2224W        W19748   5.131   0.812   0.368  0.1914  0.0550 -0.2036
 2225W        W19749   1.612   2.052  13.999 -0.2053 -0.0495  0.0823
 2226W        W19750  12.325   6.146   3.788 -0.2283  0.3801  0.0940
 2227W        W19751   9.238   2.918   4.561 -0.1299 -0.1093 -0.2835
 2228W        W19752  10.352   3.042   2.684 -0.3578 -0.1573  0.1810
 2229W        W19753   4.626  13.028   2.447  0.0571 -0.1969  0.5571
 2230W        W19754  12.550  14.670   0.703  0.1126 -0.2449 -0.3093
 2231W        W19755  13.332   9.465   5.186 -0.0494 -0.1519 -0.0221
 2232W        W19756   5.056  12.453  17.197  0.2199 -0.2318 -0.0146
 2233W        W19757   1.458  15.271  14.502  0.0711  0.0380 -0.1689
 2234W        W19758   9.882   4.998   3.090  0.0123  0.2300 -0.1287
 2235W        W19759  16.494  12.570   0.166  0.2256 -0.2361  0.1146
 2236W        W19760  11.012   3.024   5.279 -0.0912 -0.1625  0.2157
 2237W        W19761   1.767   5.968   0.072  0.0261  0.0964  0.1385
 2238W        W19762   5.614   3.832  14.833  0.3320  0.1434  0.0154
 2239W        W19763   4.260  12.946  17.492 -0.1986  0.4503 -0.2027
 2240W        W19764  15.269   4.876  15.328  0.0705  0.3128 -0.0251
 2241W        W19765  11.060  13.743   3.181 -0.0017  0.2319  0.1625
 2242W        W19766   0.413   5.512  13.837 -0.0678 -0.0586 -0.2540
 2243W        W19767   9.669   5.224  17.106 -0.3430  0.1062  0.1377
 2244W        W19768  11.696   5.444  14.527  0.0425  0.0606 -0.0632
 2245W        W19769   8.391  13.667  16.398  0.0155  0.0223 -0.0435
 2246W        W19770   1.385   0.867   4.008  0.0170 -0.3666  0.0977
 2247W        W19771  15.421   4.030   5.553  0.0716 -0.0286  0.0727
 2248W        W19772  11.870   0.249   3.185 -0.1415 -0.1551  0.0498
 2249W        W19773   0.329   1.542   4.241  0.1512  0.1926 -0.1079
 2250W        W19774   5.662   6.023   4.569 -0.2597  0.0307  0.1165
 2251W        W19775  11.777  12.974  12.887  0.0141 -0.0253  0.0510
 2252W        W19776  15.117  15.841   1.865  0.1264 -0.0808  0.0349
 2253W        W19777  16.194  11.699  14.411 -0.0691  0.1627 -0.1112
 2254W        W19778   2.057  10.766  12.376  0.0646 -0.2716 -0.2674
 2255W        W19779   9.179  16.447   2.035 -0.1460 -0.1151  0.1175
 2256W        W19780  12.920   1.469  17.382  0.1074  0.1903 -0.1186
 2257W        W19781   2.751   0.006   5.074 -0.0580  0.0338  0.0018
 2258W        W19782   8.964  16.269   5.158 -0.1447  0.0382  0.2407
 2259W        W19783  14.087  14.091   5.479  0.2321  0.2719  0.0421
 2260W        W19784   2.772   4.720   5.896  0.0987  0.0183 -0.1633
 2261W        W19785   4.071  11.404   6.387  0.1263 -0.1033 -0.0556
 2262W        W19786  11.961   4.892   5.170 -0.2816  0.0013 -0.1640
 2263W        W19787  15.161  16.953   4.777  0.2723 -0.0674 -0.0214
 2264W        W19788   4.140  16.948   6.578 -0.1752  0.0802 -0.1446
 2265W        W19789   7.592   2.391  14.431  0.0896  0.1735  0.1843
 2266W        W19790   5.267  14.208   3.728  0.1207  0.3198 -0.5027
 2267W        W19791   7.993   3.839  14.469  0.0833  0.4877  0.1638
 2268W        W19792   7.399   7.472   2.341 -0.1482 -0.2434 -0.2897
 2269W        W19793   9.262   9.461   2.928  0.0381 -0.2684  0.1563
 2270W        W19794   0.326   3.065   6.115  0.0979 -0.1466  0.0817
 2271W        W19795   6.637  13.360   3.683  0.0689 -0.1491  0.0207
 2272W        W19796   3.461   6.352   3.935 -0.3990  0.1935  0.0675
 2273W        W19797  16.839   7.457   5.250  0.0057  0.1017 -0.0453
 2274W        W19798  10.955   3.971   4.390 -0.2397 -0.0252  0.2131
 2275W        W19799   0.645  16.912  13.050  0.1758  0.0513 -0.0715
 2276W        W19800   9.787  11.847   0.091  0.1501  0.0451  0.1974
 2277W        W19801  16.355  11.035  13.127 -0.0299 -0.4305  0.1583
 2278W        W19802  15.191   4.459   5.608 -0.0504  0.2101  0.1596
 2279W        W19803  15.786  15.635   5.463 -0.0087 -0.1277  0.1634
 2280W        W19804  14.967  12.253  16.947  0.1131  0.2919  0.1483
 2281W        W19805  13.900  10.076  16.859  0.1496 -0.1600 -0.1162
 2282W        W19806  13.153   7.598  12.003  0.1529 -0.3020  0.1028
 2283W        W19807   1.185  11.634   3.817  0.0648  0.0823  0.0162
 2284W        W19808  16.788   4.579  14.888 -0.1770 -0.0388 -0.2354
 2285W        W19809  12.067   4.056   3.296 -0.1002 -0.1224  0.0541
 2286W        W19810  14.708  15.879  15.585  0.0056  0.0988  0.1726
 2287W        W19811   0.238   0.079   3.154 -0.1380 -0.2807 -0.1143
 2288W        W19812  12.728  13.608  14.646  0.1740  0.0008 -0.1511
 2289W        W19813  12.987   9.432  17.211 -0.2321 -0.0444  0.1053
 2290W        W19814   6.626   7.157   2.972  0.1174  0.0202  0.2783
 2291W        W19815  14.182  15.926   0.760  0.0776 -0.3415 -0.1525
 2292W        W19816  11.643   9.766   2.374 -0.1653  0.0540  0.1006
 2293W        W19817   6.737   9.220   6.170 -0.0510  0.5045  0.0854
 2294W        W19818  16.276   4.164  12.710  0.1177  0.0869  0.2203
 2295W        W19819   5.312   6.928   4.693  0.0086 -0.0236  0.1303
 2296W        W19820  10.270   2.810  12.968  0.1411 -0.1769 -0.4453
 2297W        W19821   4.954   0.299  17.077 -0.1691  0.3561  0.1369
 2298W        W19822   7.114   9.928   3.924  0.1678 -0.0070  0.3140
 2299W        W19823  12.701  10.528  14.122  0.1078 -0.1968 -0.3459
 2300W        W19824   5.164   2.076   3.854 -0.2032 -0.4959  0.1148
 2301W        W19825  14.044  10.275  16.362  0.0805  0.0526 -0.2917
 2302W        W19826   6.924   1.139   2.688  0.2453 -0.1976  0.0208
 2303W        W19827  15.220  16.682   3.314  0.0407  0.2848  0.1403
 2304W        W19828  13.761   0.009  13.529  0.2521 -0.2926 -0.3032
 2305W        W19829   5.183  16.289   3.837  0.3685  0.1138 -0.3044
 2306W        W19830  11.800   6.636  17.520 -0.1928 -0.1478 -0.0499
 2307W        W19831  16.194   3.859   4.203 -0.0122 -0.1399 -0.1733
 2308W        W19832   3.078   9.417   0.876  0.2053  0.0079 -0.1104
 2309W        W19833  11.815   2.810   5.471 -0.0368  0.0509 -0.0081
 2310W        W19834   4.099   0.350   3.062 -0.1593  0.0146  0.0957
 2311W        W19835   1.662   9.384   2.679 -0.3091  0.0171  0.1834
 2312W        W19836   6.382   4.989   1.277  0.1908  0.0605 -0.1014
 2313W        W19837   6.805  16.914  16.526  0.0122  0.0687  0.1125
 2314W        W19838   9.019  14.756   1.483  0.1059  0.2565 -0.0290
 2315W        W19839   5.294   4.403   3.187  0.1820 -0.2346 -0.0399
 2316W        W19840  14.032  14.562  14.932 -0.3177  0.0499 -0.0192
 2317W        W19841  16.648  10.558  14.398 -0.0929  0.2632  0.1516
 2318W        W19842   2.382   8.750  16.520 -0.0700  0.1143 -0.0627
 2319W        W19843   4.763   1.133   4.089  0.2300 -0.0891 -0.1963
 2320W        W19844  13.631   6.112   2.930  0.0274 -0.1370  0.3426
 2321W        W19845  15.779   8.638   2.873 -0.2693 -0.3787 -0.3553
 2322W        W19846   5.366   6.291   0.465 -0.0561  0.0622  0.0489
 2323W        W19847   2.606  16.652   3.844  0.0063  0.0412  0.1120
 2324W        W19848   4.358   0.792   2.242  0.0102 -0.0123  0.0642
 2325W        W19849  15.043   7.999  13.527 -0.1889 -0.0404 -0.0045
 2326W        W19850   0.259  11.324  12.719 -0.1250  0.0244 -0.2895
 2327W        W19851  15.243   5.954  15.977 -0.1188 -0.0105 -0.2025
 2328W        W19852  16.988   5.273  14.239  0.1256 -0.2654  0.3548
 2329W        W19853   1.553  14.539  16.835 -0.1172 -0.0763 -0.0295
 2330W        W19854  14.818   7.478   0.314 -0.0746 -0.1128 -0.0743
 2331W        W19855   8.781   6.619  12.342  0.2521 -0.1954 -0.2124
 2332W        W19856   3.981  15.066   1.478  0.1892 -0.1173  0.0737
 2333W        W19857  15.293   0.187  15.669  0.1065  0.0857 -0.4568
 2334W        W19858   8.757  16.548  15.402 -0.1698  0.0815  0.2426
 2335W        W19859   6.514  11.763   5.069 -0.0589  0.0557 -0.0790
 2336W        W19860  12.306   3.853   2.874 -0.0886  0.1307 -0.0101
 2337W        W19861   5.157   3.397   1.624  0.0527 -0.0767 -0.1331
 2338W        W19862   0.721  10.892   2.550  0.0054 -0.0855 -0.1479
 2339W        W19863  13.266   1.907  13.169 -0.1375 -0.1660 -0.0539
 2340W        W19864  10.091   9.073  15.425 -0.0296 -0.1898  0.2817
 2341W        W19865   9.918  10.834   3.908 -0.1749 -0.2228  0.1377
 2342W        W19866   9.124   2.362  12.130 -0.0893  0.1343 -0.1298
 2343W        W19867   2.154   7.985   0.891  0.0237 -0.0392  0.0620
 2344W        W19868   2.925  10.889   1.482 -0.1756  0.1047  0.2532
 2345W        W19869   8.274  10.721  13.441 -0.1841 -0.0679  0.0643
 2346W        W19870   5.911  10.393   0.123 -0.0188 -0.0886 -0.1043
 2347W        W19871   0.034   8.526  13.090 -0.2777  0.1588  0.2149
 2348W        W19872   2.871   3.086  14.677  0.0700  0.0331  0.2217
 2349W        W19873   2.336  13.763  17.231 -0.0438  0.0904  0.1477
 2350W        W19874  14.275   4.299  16.889 -0.1812  0.5316  0.2228
 2351W        W19875   1.389  10.526   5.902  0.1954 -0.0311  0.2951
 2352W        W19876  16.641  11.386   2.696  0.2272  0.1914 -0.0749
 2353W        W19877  13.669   2.300  15.038  0.0429  0.1951  0.1811
 2354W        W19878   0.774   9.221   2.775 -0.0145 -0.1256 -0.0207
 2355W        W19879   1.714   5.270  14.318 -0.4436  0.0588 -0.2924
 2356W        W19880  10.244  14.696  11.712  0.0119 -0.1112 -0.0108
 2357W        W19881  13.754  13.871  11.841  0.1636 -0.2641 -0.0528
 2358W        W19882   6.502   1.658  16.969  0.0520 -0.2846  0.0841
 2359W        W19883  16.253  16.807   0.045  0.2137 -0.3252 -0.0433
 2360W        W19884   3.648  13.398   3.670  0.1963  0.3261  0.0965
 2361W        W19885  15.204  13.717   3.346 -0.1317 -0.0857 -0.1320
 2362W        W19886   2.182  13.262   2.867 -0.0799 -0.2574 -0.0119
 2363W        W19887   1.765  16.846   4.840  0.0548 -0.0285  0.0080
 2364W        W19888  14.070  11.799  17.241 -0.2174 -0.0337  0.0138
 2365W        W19889  10.334  17.003   0.583  0.2793  0.2110  0.2249
 2366W        W19890  17.031  16.423  15.661  0.3309 -0.1626  0.1011
 2367W        W19891  13.205   3.570   3.775  0.2818 -0.0357 -0.0867
 2368W        W19892   0.424   2.231  12.694 -0.1679  0.2725 -0.0092
 2369W        W19893   9.008   5.776   0.686  0.1790  0.0724  0.0624
 2370W        W19894  15.234   8.355   5.350 -0.1603  0.1902  0.3433
 2371W        W19895   7.834  15.226  15.921  0.1848  0.1179  0.0732
 2372W        W19896   2.734   1.805  14.658 -0.1466  0.0748  0.0321
 2373W        W19897  15.335  15.727   5.659 -0.1982 -0.0329  0.2597
 2374W        W19898   3.960  10.634   5.771 -0.1845  0.1708  0.0620
 2375W        W19899  12.402   9.619  17.472  0.0716  0.1889 -0.5123
 2376W        W19900  12.259   1.407  14.570 -0.1156  0.0715  0.0327
 2377W        W19901  14.969   7.614  16.901  0.2238 -0.2141 -0.0599
 2378W        W19902  16.725   5.657   2.849  0.1705 -0.0860 -0.2874
 2379W        W19903   4.962   4.738  17.113 -0.2502  0.1415  0.3040
 2380W        W19904  14.479   5.700   0.709 -0.1784  0.0621 -0.0338
 2381W        W19905   6.321  14.160   3.087  0.0612  0.1285  0.1128
 2382W        W19906  12.708   0.763   2.521 -0.1735  0.1279 -0.0301
 2383W        W19907  15.160  10.259   5.016  0.1742  0.2344 -0.2412
 2384W        W19908   3.418  11.504  16.021  0.0740  0.1140  0.0967
 2385W        W19909  15.413  11.147   5.295 -0.0728  0.1595  0.0666
 2386W        W19910   5.975   4.743  16.417 -0.2333  0.0271 -0.1331
 2387W        W19911   3.673   8.852   4.798  0.1080 -0.2008  0.1847
 2388W        W19912  14.906   8.879  13.053  0.1910 -0.0158 -0.3004
 2389W        W19913  12.371  10.113   1.218  0.1479 -0.0889 -0.0460
 2390W        W19914   5.408  11.753  14.051  0.0949  0.1043  0.0145
 2391W        W19915   3.891  11.534  12.671  0.0091  0.0393  0.0157
 2392W        W19916   6.624   0.581   1.710  0.0160  0.0664  0.2938
 2393W        W19917  11.094   9.470   2.904  0.1431 -0.1085 -0.0288
 2394W        W19918  17.050   8.347   0.639 -0.0347 -0.1278 -0.0197
 2395W        W19919  16.841  13.017   0.014  0.0279  0.0741 -0.0895
 2396W        W19920   3.973   8.534   5.661  0.3048  0.2085  0.1920
 2397W        W19921  14.922  10.049  16.740 -0.1109  0.1004 -0.1011
 2398W        W19922  12.426   7.707   4.552  0.1898 -0.0725  0.0633
 2399W        W19923   1.538  15.410  11.273  0.0135 -0.2556  0.1621
 2400W        W19924  16.448   7.108  15.525  0.0054  0.0747  0.1479
 2401W        W19925  11.973   3.206   1.207  0.0770  0.1302 -0.3163
 2402W        W19926  10.390   9.435  16.178 -0.0488  0.0597 -0.2628
 2403W        W19927   7.018  14.607  16.844 -0.0298  0.0202 -0.1125
 2404W        W19928   9.114   8.232  15.540  0.2061  0.0887  0.0423
 2405W        W19929   9.474   6.169  12.813 -0.2005 -0.0054  0.2668
 2406W        W19930   4.264  16.844  13.994  0.4314  0.2754 -0.0628
 2407W        W19931   8.771   8.277  11.916 -0.1390  0.2627  0.0731
 2408W        W19932   3.534   1.059   2.717  0.2292 -0.0374 -0.1265
 2409W        W19933   6.367   4.349   3.114 -0.2547  0.1315 -0.0895
 2410W        W19934  13.681   6.757   1.832 -0.2272 -0.2609 -0.0171
 2411W        W19935   7.430   1.947  15.820  0.1753  0.0361 -0.2428
 2412W        W19936   6.520   5.234   3.489  0.4353 -0.0988 -0.0041
 2413W        W19937   3.453   8.982   1.611 -0.2813  0.0766  0.1120
 2414W        W19938   6.915  11.995   3.491  0.0831 -0.1522  0.3205
 2415W        W19939  16.166   9.612  13.260  0.0478 -0.0348  0.1871
 2416W        W19940   6.499  14.773   3.251 -0.3186  0.3482 -0.0259
 2417W        W19941  14.176   1.296   1.084 -0.1034 -0.2214  0.2266
 2418W        W19942  11.409  12.631  15.840 -0.0416  0.0502  0.0361
 2419W        W19943  10.519   6.678  12.367  0.2455  0.1705 -0.3382
 2420W        W19944   3.014  16.718  14.413  0.1513 -0.0239 -0.4570
 2421W        W19945  13.311  14.674   4.392  0.5851 -0.1239 -0.0440
 2422W        W19946   1.834   4.747   2.564 -0.0038  0.1905  0.1075
 2423W        W19947   3.863  14.442  15.181 -0.0018 -0.4319 -0.2124
 2424W        W19948  12.085  16.858  13.225 -0.0111  0.0850 -0.1823
 2425W        W19949   9.812   6.120  12.361 -0.1427 -0.0989 -0.0791
 2426W        W19950   6.855  14.988  14.911  0.0296  0.1040 -0.1101
 2427W        W19951   9.462   4.480   1.317  0.1118 -0.0238 -0.0600
 2428W        W19952   4.463   0.794   4.934  0.1707 -0.0652 -0.2238
 2429W        W19953   9.388  12.192   0.476 -0.1786  0.1523  0.0526
 2430W        W19954  15.222   1.759  15.716  0.1575  0.0809  0.3061
 2431W        W19955   8.693  11.228  11.833 -0.1806 -0.1195  0.0472
 2432W        W19956   1.451  11.033  15.506  0.0049 -0.1820 -0.1445
 2433W        W19957   8.342  15.786   5.375  0.2717  0.0457  0.1007
 2434W        W19958  14.301   4.670   0.066  0.0371 -0.0980  0.0289
 2435W        W19959   3.269   5.767  17.546  0.2113  0.2115  0.0587
 2436W        W19960   8.325  13.044   5.248  0.0083 -0.3532 -0.2142
 2437W        W19961   5.670   2.475  13.853 -0.0467 -0.0888  0.1279
 2438W        W19962   1.614  13.050  17.469  0.3931  0.0988 -0.1399
 2439W        W19963  14.455   3.465   2.035  0.2979  0.1037  0.0826
 2440W        W19964  11.671   1.194  14.366  0.2760 -0.1093 -0.0687
 2441W        W19965   3.128   0.844  13.244 -0.2923 -0.0180  0.1170
 2442W        W19966   8.198  16.821   1.808 -0.0153 -0.0155 -0.0968
 2443W        W19967   4.694   5.503   3.215 -0.1797 -0.1815 -0.0167
 2444W        W19968   3.091   2.470  13.438 -0.3028  0.2699 -0.1642
 2445W        W19969  13.959  16.320  17.737 -0.0703  0.1940 -0.2163
 2446W        W19970  11.258   1.505  13.167  0.3340 -0.3651  0.0061
 2447W        W19971   8.591  13.164  14.805 -0.3378 -0.0282 -0.2002
 2448W        W19972  12.198   1.324  13.550  0.2162 -0.0937  0.4891
 2449W        W19973  11.889   3.781  15.383  0.2544  0.0506 -0.3215
 2450W        W19974   8.333   3.527   5.287  0.3127 -0.0392  0.2044
 2451W        W19975   7.853  13.072  17.234  0.2593 -0.2451 -0.0133
 2452W        W19976   0.919  12.651   5.253  0.1883  0.0956  0.0164
 2453W        W19977   3.930   3.785  16.828 -0.1662 -0.2479 -0.1018
 2454W        W19978  10.567   2.813   4.535  0.0020 -0.2339 -0.2558
 2455W        W19979   6.587   7.340   4.944  0.2548 -0.2057 -0.3443
 2456W        W19980   0.219   1.905   3.385 -0.0557  0.0879  0.1620
 2457W        W19981   9.161   8.201  12.658 -0.3624 -0.1183 -0.1409
 2458W        W19982   1.186   3.155  14.296  0.1334  0.1405 -0.1943
 2459W        W19983   3.023   7.049   1.839 -0.0265  0.0470  0.2042
 2460W        W19984  10.229   0.243  17.617  0.3181  0.2473 -0.0190
 2461W        W19985  13.679   6.555  14.381  0.0714  0.4705  0.1680
 2462W        W19986   4.279  12.223   2.586 -0.2314 -0.0428 -0.1288
 2463W        W19987  15.061   1.656   2.022 -0.0455 -0.1726  0.1317
 2464W        W19988  10.956   1.637  14.947  0.0030 -0.1413  0.4435
 2465W        W19989  13.941   6.669   4.060  0.0410  0.2076 -0.1443
 2466W        W19990  15.755   8.716  15.973  0.0641 -0.0387  0.0536
 2467W        W19991   8.534   2.915  12.038  0.0563  0.0991  0.1386
 2468W        W19992   5.300   8.991   4.201  0.0297 -0.1251 -0.1157
 2469W        W19993  11.689   4.648  13.294 -0.0859  0.4046 -0.0795
 2470W        W19994   8.462  10.220  13.388  0.0421  0.2423 -0.0767
 2471W        W19995  10.059   0.192   0.903 -0.0528 -0.0296 -0.1909
 2472W        W19996   6.434   1.120  15.652  0.0450  0.0204 -0.2841
 2473W        W19997  12.914   3.179   5.072  0.1420 -0.0262 -0.1210
 2474W        W19998   9.869   3.883   0.110  0.2839 -0.0012  0.1848
 2475W        W19999   0.856   1.004   1.765 -0.1296  0.0542  0.1594
 2476W        W20000   0.560  10.083  16.326  0.1263  0.0954  0.0149
 2477W        W20001   1.717   8.075   0.551 -0.0987 -0.5177  0.0523
 2478W        W20002  13.358  13.574   1.318 -0.0575  0.1638  0.0504
 2479W        W20003  15.434  11.950   3.446  0.2629  0.0889 -0.0247
 2480W        W20004   4.695   5.767   2.741 -0.0118  0.4260 -0.1183
 2481W        W20005  11.922  12.901  16.378 -0.2063 -0.0667 -0.2833
 2482W        W20006  11.625   1.708   1.064  0.0932 -0.1113 -0.2043
 2483W        W20007   4.721   2.771   3.533 -0.3568  0.0043 -0.2974
 2484W        W20008   4.139   8.589   3.861 -0.0487  0.0073 -0.0586
 2485W        W20009  14.401  10.527  12.691 -0.0992  0.0110 -0.0062
 2486W        W20010  10.885   5.813  13.027 -0.2079 -0.0195  0.1591
 2487W        W20011   0.973  12.469   4.798  0.0268 -0.2997  0.2468
 2488W        W20012   4.779  14.137  15.328  0.0433  0.1689  0.0528
 2489W        W20013   4.224   1.590  13.998  0.0757  0.2337  0.0527
 2490W        W20014  12.487   8.612   3.388  0.2393 -0.0828 -0.1712
 2491W        W20015  10.884  17.160  16.096 -0.0010 -0.0412 -0.3928
 2492W        W20016   4.624  16.941   0.784  0.0641  0.1064  0.1605
 2493W        W20017   9.312  13.823  11.801  0.0699 -0.3290 -0.1796
 2494W        W20018   4.761   1.035  13.765  0.0750  0.3750 -0.1208
 2495W        W20019   0.495   1.152   4.554 -0.2785  0.2671 -0.0773
 2496W        W20020  12.820  12.987   4.858 -0.1772  0.1014 -0.0788
 2497W        W20021   2.060   2.632   2.007  0.0556 -0.1072  0.1797
 2498W        W20022   4.202   5.089  16.827 -0.0617 -0.2730 -0.0499
 2499W        W20023   3.229   8.822   3.902 -0.0085  0.0552 -0.0392
 2500W        W20024  12.603   6.099  16.885  0.0217  0.0254  0.1572
 2501W        W20025   8.665  16.368  15.927 -0.0870 -0.3271 -0.2382
 2502W        W20026  11.758   9.843   4.744  0.1577  0.0997  0.4508
 2503W        W20027  12.470   6.768  14.668 -0.2909  0.1954 -0.2120
 2504W        W20028   8.204   5.932  12.561  0.1155 -0.0407 -0.1356
 2505W        W20029  15.059   4.988  14.877 -0.4784 -0.0330  0.0345
 2506W        W20030   3.834   0.467   3.654  0.0619 -0.1826  0.5966
 2507W        W20031   6.553  10.018   3.079  0.1125 -0.0242  0.0499
 2508W        W20032   3.187  16.156   5.668 -0.1016  0.0938  0.4093
 2509W        W20033   1.943   1.846   1.236 -0.0262  0.0466  0.0435
 2510W        W20034   2.814   8.010   3.984  0.1921 -0.2048 -0.0554
 2511W        W20035   5.652   4.657   3.488 -0.1369  0.2585  0.2954
 2512W        W20036   5.419  11.697   1.118 -0.0217  0.3197  0.2377
 2513W        W20037   2.913   0.807  15.574  0.0026  0.0471  0.2024
 2514W        W20038   8.753  15.818  14.224 -0.0604 -0.0431 -0.0467
 2515W        W20039  13.094   0.885  14.563  0.2627  0.3202 -0.1700
 2516W        W20040   5.682  16.592   2.759 -0.4186 -0.0649  0.1157
 2517W        W20041   9.662   5.018  13.174  0.0342 -0.0403  0.0256
 2518W        W20042  12.774   4.772  12.513  0.0960  0.0972 -0.2350
 2519W        W20043   2.419   8.584  12.326  0.0591  0.5227 -0.0929
 2520W        W20044  16.912  11.713  11.629  0.1901  0.2325  0.2251
 2521W        W20045   1.889   2.772   0.838 -0.1864  0.6073  0.1988
 2522W        W20046  14.419   9.540   4.468 -0.0174  0.0240  0.2364
 2523W        W20047  15.297   4.052  14.045 -0.2057 -0.0976  0.1084
 2524W        W20048   4.335   6.771  12.695  0.0550 -0.0661  0.2860
 2525W        W20049   3.685  16.851  15.149  0.2195  0.0654  0.0249
 2526W        W20050  11.499   6.159   5.083 -0.0611 -0.0313 -0.1980
 2527W        W20051  14.318  12.021  15.811  0.1452  0.0325  0.0037
 2528W        W20052  15.312   8.549   4.402  0.0044  0.1372  0.1480
 2529W        W20053   2.915  15.284   4.843 -0.0531  0.0450 -0.0793
 2530W        W20054   3.989  14.842   3.615 -0.0027  0.0757  0.3875
 2531W        W20055   5.043   7.503  13.609  0.0068 -0.0927 -0.1450
 2532W        W20056   8.422  13.318   1.940  0.0008  0.3325 -0.1302
 2533W        W20057  10.569   4.701  14.066 -0.1590  0.0614 -0.0038
 2534W        W20058  14.292  11.387  15.554  0.1992 -0.1753 -0.0299
 2535W        W20059   0.431  15.494   3.077  0.1008 -0.1351 -0.3523
 2536W        W20060  13.479   6.147  15.834  0.2123  0.1264 -0.2642
 2537W        W20061  15.530  16.971  15.994 -0.0180 -0.1181  0.1103
 2538W        W20062  11.973  11.999   3.392  0.0037 -0.3324  0.0541
 2539W        W20063   1.006   3.920   3.553  0.1738 -0.2294 -0.1425
 2540W        W20064   8.817  12.678   0.549  0.0064  0.4480  0.0241
 2541W        W20065   0.177   8.039  17.402 -0.1412 -0.0036  0.2757
 2542W        W20066   6.353  14.065  13.391 -0.2113  0.0587 -0.0329
 2543W        W20067  12.299   9.356  12.297  0.0842  0.0247 -0.0548
 2544W        W20068   6.959   1.587  12.478  0.3231  0.1120  0.2353
 2545W        W20069   6.490   7.270   2.060  0.2775  0.1046 -0.0784
 2546W        W20070   3.189   6.780  16.525  0.0451 -0.2275  0.0779
 2547W        W20071   3.978   0.369   5.895 -0.0812 -0.0692  0.0540
 2548W        W20072   4.698  15.986   6.850 -0.1688 -0.1514 -0.1253
 2549W        W20073  14.639   1.247  15.796 -0.0698 -0.0740 -0.0742
 2550W        W20074  11.932   3.176  13.919  0.3047  0.2270 -0.0819
 2551W        W20075   9.079   3.677  15.250  0.2877  0.2377 -0.1773
 2552W        W20076  13.151   3.284   1.344 -0.0512  0.2315 -0.3833
 2553W        W20077  11.433  14.596   0.376  0.0828 -0.1772  0.2207
 2554W        W20078  12.221   0.279   3.713  0.2706  0.0876 -0.1423
 2555W        W20079   2.747  11.920   3.739  0.1975 -0.0447 -0.2887
 2556W        W20080   5.155   3.364  17.279  0.3689 -0.2010 -0.0835
 2557W        W20081  17.091   7.197  16.073 -0.0847  0.2283 -0.0977
 2558W        W20082  15.248   6.022  12.551 -0.2380 -0.1648 -0.1228
 2559W        W20083  15.833   6.194   2.860  0.0295  0.1156  0.1499
 2560W        W20084   0.219   2.108   2.186  0.0526  0.0857 -0.0731
 2561W        W20085   2.392   6.864   5.406  0.0176 -0.2227 -0.0614
 2562W        W20086   7.043   3.240   0.992  0.2397 -0.2121  0.1346
 2563W        W20087  12.223   1.851  16.019  0.0324 -0.1257  0.0620
 2564W        W20088   1.197   8.124  11.420 -0.1722 -0.3284 -0.0174
 2565W        W20089   4.376  16.606   4.409 -0.3313 -0.2219  0.1253
 2566W        W20090  15.802   5.328  13.095 -0.2897 -0.1107  0.4549
 2567W        W20091  10.811  11.719  14.999  0.0112  0.1808 -0.0088
 2568W        W20092  10.941  13.028   2.258  0.0067  0.1349 -0.2394
 2569W        W20093   2.888   5.841  14.097  0.3876 -0.0906 -0.0170
 2570W        W20094   7.450  15.911  17.023  0.2594 -0.0657  0.0295
 2571W        W20095  15.918  11.995   5.168 -0.0484  0.3133  0.1962
 2572W        W20096   1.413  14.501   0.676  0.3689  0.0053 -0.0215
 2573W        W20097   3.063   5.234   1.962  0.0563 -0.0925 -0.2514
 2574W        W20098   1.694   8.172   1.894  0.0033 -0.1489  0.2261
 2575W        W20099   8.196   4.828   0.109  0.0315 -0.1227  0.0451
 2576W        W20100   1.406   4.894  16.109 -0.1990  0.2287 -0.2707
 2577W        W20101   5.764   9.157   3.982 -0.0857 -0.1209 -0.1143
 2578W        W20102   9.494   0.846   4.281 -0.0133 -0.1809 -0.2357
 2579W        W20103   0.838   2.011   1.442  0.1374  0.0811  0.3415
 2580W        W20104  16.791  12.208  15.621 -0.0579 -0.0050 -0.0359
 2581W        W20105   2.668   2.714  16.967  0.0072 -0.0903 -0.0670
 2582W        W20106  12.689  13.382  13.156  0.1419 -0.1884  0.1435
 2583W        W20107   1.103  13.638   1.439 -0.2301 -0.2384  0.1073
 2584W        W20108   7.934  12.986   0.221 -0.1087 -0.0291 -0.1796
 2585W        W20109  10.586   4.162  14.055 -0.2606 -0.2774  0.0298
 2586W        W20110   0.441   6.755  12.624 -0.3511 -0.0713 -0.2385
 2587W        W20111   0.597   5.498   3.810  0.0743  0.0986  0.3215
 2588W        W20112  12.032  14.938  17.655 -0.0162 -0.1576  0.1668
 2589W        W20113   1.341   6.153  14.101 -0.1880 -0.3947 -0.1514
 2590W        W20114  15.744  10.353  11.441 -0.1937  0.2235 -0.1273
 2591W        W20115  12.937  15.333   3.956 -0.0787 -0.1090  0.2807
 2592W        W20116  12.489   9.364  13.992  0.1568  0.0843  0.2637
 2593W        W20117   2.871  11.141   4.449  0.1163 -0.0374  0.2237
 2594W        W20118   7.301   6.890  12.653  0.0200 -0.1354  0.2603
 2595W        W20119   6.909   3.112   6.195 -0.0980  0.1358 -0.0509
 2596W        W20120   0.174   6.582   2.079  0.2398  0.0351  0.2215
 2597W        W20121  14.621   1.182  14.273 -0.0754  0.1120  0.0789
 2598W        W20122  11.295  12.473  11.790 -0.1898  0.1906 -0.0004
 2599W        W20123  12.024   9.552  17.131 -0.4680  0.0806 -0.0299
 2600W        W20124   7.839  14.395  16.152 -0.1007  0.2725  0.1790
 2601W        W20125   6.412  11.633  13.298 -0.3391 -0.1137 -0.0553
 2602W        W20126   3.111   7.909   2.954  0.0256 -0.0251  0.2279
 2603W        W20127  14.593  12.701   0.568 -0.1974 -0.0474  0.0004
 2604W        W20128  16.114   1.971   4.227 -0.0091 -0.0438  0.1920
 2605W        W20129   8.264   2.173   4.059 -0.1156 -0.2200  0.3025
 2606W        W20130  15.524   6.973  15.873 -0.2546 -0.1121  0.1793
 2607W        W20131   4.166   5.530   0.035 -0.2599  0.3524 -0.0018
 2608W        W20132   5.423  12.610   1.242  0.2390  0.0720 -0.1557
 2609W        W20133  14.962  16.927   2.005  0.1050  0.1990  0.2586
 2610W        W20134   9.453  16.677   0.312  0.0296  0.2300 -0.0214
 2611W        W20135   8.201   7.748   1.232 -0.2022 -0.0776  0.1251
 2612W        W20136   7.767   4.210   3.276  0.1428 -0.0528  0.0284
 2613W        W20137   1.269  13.946  14.055 -0.1194  0.1289 -0.0351
 2614W        W20138  13.747  11.618  14.226  0.0549 -0.3957  0.4817
 2615W        W20139   3.823  11.890  11.365 -0.0917 -0.1637  0.0683
 2616W        W20140   3.800   7.418  12.900 -0.0795  0.1454  0.1870
 2617W        W20141   7.339   6.156   3.693 -0.1415 -0.2385 -0.0650
 2618W        W20142  10.156   6.415   3.892 -0.1432 -0.2401 -0.3721
 2619W        W20143   1.637   5.987   4.586 -0.3017  0.0076 -0.1486
 2620W        W20144   8.871   4.759  15.201  0.0533  0.0509  0.0519
 2621W        W20145   1.401  16.276  14.585 -0.1141 -0.0692  0.2199
 2622W        W20146   5.216   5.273  13.293 -0.3885 -0.0152 -0.0322
 2623W        W20147  14.563   3.484  17.043 -0.2285  0.0690 -0.3899
 2624W        W20148  13.119  13.520  12.380  0.1134  0.1220 -0.1346
 2625W        W20149   9.922  10.524  14.769  0.0580 -0.2287  0.1257
 2626W        W20150   9.853  13.127  12.157 -0.0399  0.0052 -0.0490
 2627W        W20151   2.907   6.411  17.072 -0.0765 -0.2907 -0.1249
 2628W        W20152   5.283   4.252  14.758 -0.0410  0.1971  0.0166
 2629W        W20153   8.259   7.724  15.322  0.2659 -0.2425  0.0770
 2630W        W20154   0.599   2.175   6.048 -0.0936  0.1323  0.0886
 2631W        W20155  11.029  10.045  16.144 -0.1753  0.2838  0.0774
 2632W        W20156  11.743  10.120   1.998  0.2405 -0.2472 -0.3203
 2633W        W20157  11.655  14.262  13.559  0.1493 -0.1918 -0.0287
 2634W        W20158  12.377  10.378   4.236 -0.1204 -0.1876 -0.0724
 2635W        W20159   8.265   5.369  14.871  0.0137  0.1772 -0.1577
 2636W        W20160  11.814   0.185  16.434 -0.3438 -0.1943  0.1721
 2637W        W20161   6.436  17.045   0.017 -0.0689 -0.0274  0.2855
 2638W        W20162  14.855  17.103   5.196 -0.1516 -0.0799  0.1467
 2639W        W20163   7.077  16.521  14.604 -0.3088  0.0164  0.0132
 2640W        W20164   7.732  14.044  12.746  0.1465 -0.0536  0.1128
 2641W        W20165  17.098   1.143   5.230 -0.0912  0.1538  0.2982
 2642W        W20166  15.772  15.265   4.906 -0.1184 -0.1385 -0.0013
 2643W        W20167  14.975   0.556  13.747 -0.0969  0.0127  0.1104
 2644W        W20168   5.256   1.924   2.612  0.2147 -0.2207 -0.1896
 2645W        W20169   3.188   6.905   0.568 -0.1104 -0.2880  0.3369
 2646W        W20170  15.837  11.642   3.791  0.2572  0.0582 -0.1577
 2647W        W20171  13.790  11.237   1.889  0.1584  0.0480  0.1605
 2648W        W20172  15.459  13.059  16.777  0.0959 -0.2056 -0.0674
 2649W        W20173  14.853   8.515  16.061 -0.2984 -0.1455  0.0593
 2650W        W20174   2.807   4.491  13.061 -0.0603  0.0966  0.2842
 2651W        W20175  16.725   7.413   1.373 -0.1542 -0.1433  0.1763
 2652W        W20176  15.570  15.987   1.900 -0.1849 -0.0422  0.0373
 2653W        W20177   2.896   6.588   0.314 -0.4356  0.1836 -0.1230
 2654W        W20178  12.923  12.160   2.182  0.4292 -0.0290 -0.1918
 2655W        W20179   3.797  14.740   2.852  0.1416 -0.0955 -0.0203
 2656W        W20180  16.379  12.118   4.502 -0.3727  0.2524  0.1558
 2657W        W20181   5.255   4.662   1.288  0.1904  0.0333  0.5184
 2658W        W20182   1.003   3.978  14.604 -0.2017 -0.0068  0.1650
 2659W        W20183   4.772  16.405   3.497 -0.0253  0.4768  0.0408
 2660W        W20184  12.451  15.735   2.643  0.2078 -0.0325 -0.1138
 2661W        W20185  15.299   2.014   5.690 -0.0872 -0.0470  0.2581
 2662W        W20186   0.604   8.301   1.585  0.0250 -0.0402 -0.1912
 2663W        W20187   6.633  10.150  14.234 -0.2306  0.0568 -0.1772
 2664W        W20188  10.248   3.246   5.239 -0.1356  0.2979  0.0601
 2665W        W20189  15.101   6.607   2.486  0.0473  0.0520  0.0935
 2666W        W20190   0.668   4.733   3.065 -0.0154 -0.3858 -0.0222
 2667W        W20191  10.789  17.017  15.058  0.1736  0.1906 -0.0861
 2668W        W20192  14.997  11.661  14.544 -0.0151 -0.1459 -0.0122
 2669W        W20193  14.433  17.065  16.283 -0.0570  0.1246  0.1616
 2670W        W20194   4.653  11.096  12.093 -0.0117 -0.2178  0.0842
 2671W        W20195   1.125  11.384  15.818 -0.1065  0.0809  0.0061
 2672W        W20196   8.946  10.361  14.480 -0.0685  0.0794  0.0959
 2673W        W20197   3.149   3.969  15.135 -0.1771 -0.0306 -0.0259
 2674W        W20198   4.060   2.860  16.890  0.1433  0.2074 -0.0644
 2675W        W20199   1.666   9.442  13.718  0.0477  0.0863  0.1206
 2676W        W20200   8.153   5.118  12.865 -0.0359 -0.0736 -0.0751
 2677W        W20201   1.340   6.623  12.699  0.0514 -0.0740  0.0119
 2678W        W20202   4.810  13.451  16.405 -0.0680 -0.0109  0.0372
 2679W        W20203   8.216   8.713  16.359 -0.0442  0.1752  0.2103
 2680W        W20204   9.808  16.819  13.131 -0.0920  0.2044  0.2995
 2681W        W20205   0.695   3.192   0.662 -0.1863  0.2725 -0.1040
 2682W        W20206  10.887  16.872  16.555 -0.0875  0.0118  0.1682
 2683W        W20207   7.004  11.253   1.524  0.0881 -0.2948  0.0104
 2684W        W20208   3.553  16.449   1.489  0.0870  0.1305  0.0469
 2685W        W20209  11.747  14.988   0.364 -0.0340  0.0498 -0.1442
 2686W        W20210   1.590   4.658   4.983 -0.2111 -0.0462  0.2996
 2687W        W20211   6.929  10.067  16.218  0.1627  0.0043  0.0965
 2688W        W20212  13.758   0.751  15.396  0.0237  0.0272 -0.1047
 2689W        W20213  15.616   8.180   1.532  0.0533 -0.0879 -0.1304
 2690W        W20214   0.969  15.154  13.235  0.0403  0.1712 -0.1143
 2691W        W20215   0.395   1.539  14.635 -0.2076 -0.0988 -0.0551
 2692W        W20216   7.266   3.394   4.398 -0.0562 -0.1728 -0.0914
 2693W        W20217   9.935  14.136  17.290 -0.1278 -0.1056 -0.1338
 2694W        W20218  15.075   5.901  14.141 -0.3315  0.0287  0.0201
 2695W        W20219   0.046   3.465   3.097  0.1218  0.0312  0.1000
 2696W        W20220  12.765   3.726  14.462  0.1552 -0.1079 -0.4538
 2697W        W20221  15.421   2.431  16.014 -0.0657  0.2051 -0.0133
 2698W        W20222  14.424   2.394   4.664 -0.1611 -0.2928  0.0184
 2699W        W20223   3.048   3.239   6.649 -0.0922  0.1186  0.2352
 2700W        W20224  12.778   9.407  16.483 -0.2303 -0.0805  0.1091
 2701W        W20225   4.355   2.957  15.936  0.0278 -0.0340 -0.1876
 2702W        W20226  17.026  15.314  12.387  0.3787  0.1043 -0.0259
 2703W        W20227  12.391   5.544   1.656 -0.0943 -0.1009 -0.2813
 2704W        W20228   4.549  10.517  17.735  0.2740 -0.0054  0.1278
 2705W        W20229   7.401  10.171  17.004 -0.0462 -0.0677 -0.0980
 2706W        W20230   2.425   1.711   4.509  0.4065  0.1432 -0.0697
 2707W        W20231  16.697  15.429  17.458 -0.1705 -0.0023  0.0403
 2708W        W20232   8.198  10.461   2.915  0.2801  0.3387  0.0366
 2709W        W20233   0.160   1.169   2.674 -0.1296 -0.1609 -0.2008
 2710W        W20234   3.533  12.374   4.502  0.0227 -0.2295 -0.0462
 2711W        W20235  14.763   8.052  14.846 -0.1070  0.1833  0.2402
 2712W        W20236  11.564   8.653   5.315  0.0272 -0.2073 -0.2286
 2713W        W20237  11.780  14.502  12.736  0.2594 -0.1936 -0.1653
 2714W        W20238   7.575   3.002   4.367  0.0294  0.2009 -0.0454
 2715W        W20239  14.754  12.255  15.190 -0.0358 -0.0521  0.0336
 2716W        W20240   0.654  13.889  17.393 -0.4484 -0.1083 -0.1194
 2717W        W20241  16.763   8.015  16.649  0.0045 -0.1495  0.0571
 2718W        W20242   3.325   5.216   2.879  0.0401 -0.2059 -0.0020
 2719W        W20243   4.364  11.818  14.802 -0.2349  0.0951 -0.3293
 2720W        W20244  10.153  12.981   4.610 -0.1724 -0.1643 -0.0597
 2721W        W20245   7.094   4.509  16.198 -0.4121 -0.0365 -0.1708
 2722W        W20246  13.289   7.231   1.002  0.0572  0.3213 -0.1588
 2723W        W20247   5.173   1.068  16.255  0.3117  0.0607 -0.1788
 2724W        W20248   9.397  12.885   1.952  0.1228 -0.0815  0.0749
 2725W        W20249   8.229   7.272  17.550 -0.0157 -0.0455 -0.1775
 2726W        W20250  13.536  11.868   0.693  0.0240 -0.0019 -0.2237
 2727W        W20251   0.235  16.782   3.641 -0.0460 -0.0948  0.1650
 2728W        W20252   9.926   2.040  13.778 -0.0348  0.1506 -0.1097
 2729W        W20253  16.700   6.092  13.997 -0.2263 -0.1106  0.1843
 2730W        W20254   2.612  16.033   0.789 -0.1623  0.1361 -0.1418
 2731W        W20255  11.829   3.216   0.766  0.3135  0.1223  0.2479
 2732W        W20256   3.783   5.011   5.587  0.0940 -0.2193 -0.0324
 2733W        W20257  16.339  16.380   2.677  0.1272  0.0331 -0.0222
 2734W        W20258   6.826   5.278   0.992 -0.2629  0.0608  0.0349
 2735W        W20259  15.897  11.788   3.207  0.0559  0.0225  0.0459
 2736W        W20260  16.854   8.386   5.887  0.4555 -0.4218  0.0032
 2737W        W20261   8.724  14.642   4.035 -0.0310  0.0754  0.2865
 2738W        W20262   8.368   9.122  13.527 -0.3117  0.1493  0.2528
 2739W        W20263   3.336   9.231   4.694 -0.1776  0.1639  0.2821
 2740W        W20264   0.632  15.502  12.378 -0.0742  0.2139 -0.0751
 2741W        W20265  12.148   6.194   0.953  0.2602  0.1120 -0.3341
 2742W        W20266  16.545   0.942   0.928 -0.0222 -0.1602 -0.2192
 2743W        W20267   6.286  12.079  16.505  0.0037  0.0494  0.0923
 2744W        W20268   3.399  10.646   2.826  0.1681  0.1265  0.0242
 2745W        W20269  16.258  14.634   3.690 -0.0436 -0.2062 -0.1558
 2746W        W20270  14.468   2.840  15.812  0.2570  0.0234 -0.0812
 2747W        W20271   7.307   8.919   2.948 -0.1106 -0.0680 -0.0432
 2748W        W20272  14.334   0.176   2.538  0.1408  0.0564  0.1280
 2749W        W20273  12.500  12.429  13.026 -0.6195  0.0979 -0.2543
 2750W        W20274   6.051   6.291   4.361 -0.0177  0.0237 -0.0268
 2751W        W20275   6.781   2.254  13.885  0.2553 -0.1158 -0.0690
 2752W        W20276   7.689   6.159   1.776 -0.3379  0.2771  0.0719
 2753W        W20277   9.608   1.966  11.675  0.2918  0.0477 -0.0975
 2754W        W20278   8.219   1.346  12.375  0.2491 -0.2253  0.0034
 2755W        W20279   6.060   9.749   2.959 -0.3009  0.2821 -0.1090
 2756W        W20280   7.811   0.419  13.398  0.4631 -0.2854  0.0856
 2757W        W20281   1.338  16.068  12.372 -0.1076 -0.1250  0.1689
 2758W        W20282  10.688  14.585   0.043 -0.4330 -0.1480 -0.2605
 2759W        W20283  10.881   2.627  12.696 -0.0503 -0.0609 -0.3237
 2760W        W20284  10.455  15.433  17.459  0.1641  0.0484 -0.1987
 2761W        W20285   9.450  10.987   3.079 -0.1244 -0.1146 -0.3889
 2762W        W20286   9.939   7.698  16.818 -0.0268 -0.2015  0.3082
 2763W        W20287  15.928   6.798   3.435  0.1043  0.0753  0.0121
 2764W        W20288  10.786   4.436  13.607  0.1147 -0.0919  0.0654
 2765W        W20289   3.281  17.140  14.273 -0.2482 -0.0879 -0.0706
 2766W        W20290   0.282   4.901  13.096 -0.1229 -0.1215 -0.0268
 2767W        W20291  15.581   3.340  13.048  0.0007 -0.0244 -0.0767
 2768W        W20292  11.387  13.671   0.556 -0.1416  0.2628 -0.0685
 2769W        W20293   2.233   5.031  16.166  0.0205  0.2528 -0.0782
 2770W        W20294   5.022   9.403  13.182  0.0980  0.2262 -0.0220
 2771W        W20295   2.371   9.568  17.536  0.0184  0.1036 -0.1417
 2772W        W20296   3.463   7.429  14.927 -0.0178  0.3137  0.1711
 2773W        W20297  10.020   1.517  13.347  0.0329  0.0554 -0.2242
 2774W        W20298   2.176   9.853   2.167 -0.2617 -0.2879 -0.0408
 2775W        W20299   9.523   0.972   2.613  0.2777  0.4299  0.1865
 2776W        W20300  14.633   8.975  13.950 -0.2840 -0.2366  0.3071
 2777W        W20301   2.198  15.829   2.229 -0.2274  0.0838 -0.0940
 2778W        W20302   3.989   7.713  12.407 -0.1078 -0.0770  0.3351
 2779W        W20303  10.535   6.015   4.518 -0.2016  0.0577  0.0592
 2780W        W20304  15.260  14.946  15.736 -0.3638 -0.4097 -0.2238
 2781W        W20305   5.255   5.045   2.070  0.2024 -0.0495 -0.0247
 2782W        W20306   3.557   6.154  13.003  0.0587 -0.1764  0.0514
 2783W        W20307   6.622   1.836   1.245 -0.2162 -0.0234 -0.1382
 2784W        W20308   3.327  16.948  13.171  0.1456  0.1632  0.0132
 2785W        W20309   0.711  15.606   3.890  0.3327 -0.1230 -0.1615
 2786W        W20310   0.279   9.723  16.133  0.0166 -0.0680  0.3356
 2787W        W20311  15.974  12.895  14.506  0.2083 -0.0979 -0.3785
 2788W        W20312  10.335   2.949  13.892 -0.1186 -0.1130  0.1167
 2789W        W20313   6.272   6.237   3.302 -0.0180 -0.1397 -0.0703
 2790W        W20314  12.132  14.411   2.442  0.1355  0.1324  0.1523
 2791W        W20315  13.969   8.938  16.152  0.0769  0.0600  0.0511
 2792W        W20316   9.071   9.116   2.090  0.0339  0.1139 -0.0420
 2793W        W20317  11.110   0.745  15.157  0.1278  0.0091 -0.2587
 2794W        W20318   0.543  13.936  15.211  0.1125 -0.0090  0.2086
 2795W        W20319   0.296   3.910   2.514  0.1336  0.2463 -0.0140
 2796W        W20320   5.274  14.628   1.432  0.1874  0.0428  0.0463
 2797W        W20321   6.656   7.212   6.083 -0.0703 -0.1420  0.2421
 2798W        W20322   0.624   6.568  14.871 -0.1735 -0.0265 -0.1804
 2799W        W20323  11.360   8.528   4.749 -0.1106  0.1866 -0.1857
 2800W        W20324  11.510  14.094   3.959  0.2464  0.0005 -0.0600
 2801W        W20325  12.129   4.832   0.495  0.1616 -0.2833  0.0199
 2802W        W20326  16.840   6.997  17.439 -0.1389 -0.0790  0.0429
 2803W        W20327   4.978   4.903  14.176  0.0020  0.2431  0.2524
 2804W        W20328   2.760   2.028   4.730 -0.2065  0.3144  0.1641
 2805W        W20329  16.396   9.508   0.997  0.2233  0.0928 -0.0065
 2806W        W20330  14.414   0.080  12.648  0.2200 -0.1047  0.4858
 2807W        W20331  14.150   6.326   5.668 -0.1101  0.1670  0.0815
 2808W        W20332   0.161   1.710   1.926 -0.0328 -0.3445  0.0549
 2809W        W20333  17.124   9.638  13.363 -0.2539  0.1638 -0.1986
 2810W        W20334   8.951   4.675   0.411  0.2790 -0.2983  0.1358
 2811W        W20335   5.841   9.359  17.051 -0.1675 -0.1155  0.2335
 2812W        W20336   0.396  15.896   1.080 -0.2020  0.2417  0.0050
 2813W        W20337   2.945  15.472  15.105  0.2215  0.3243  0.0310
 2814W        W20338   5.281   5.793   0.645 -0.3170  0.1086 -0.0680
 2815W        W20339  12.567  17.107  16.426  0.0232 -0.2216 -0.0063
 2816W        W20340   8.332   9.150   4.475  0.2140  0.1370 -0.0821
 2817W        W20341   8.485   5.398  14.434  0.3115  0.2068  0.0996
 2818W        W20342   3.010   8.361   2.098 -0.1157  0.0992  0.0214
 2819W        W20343   8.772  13.445   3.189 -0.1998  0.3275 -0.1293
 2820W        W20344  10.080   1.347  16.081  0.2053  0.0840 -0.2000
 2821W        W20345   0.724   3.324  15.065 -0.1666 -0.2317  0.0858
 2822W        W20346  12.731  16.176   2.540 -0.1134 -0.3430  0.1830
 2823W        W20347   7.463  12.390   3.930 -0.1168 -0.0064 -0.0272
 2824W        W20348  12.717   1.097   1.494  0.1969  0.2787  0.1464
 2825W        W20349   1.275   0.484   0.591 -0.1759  0.1504 -0.2630
 2826W        W20350   1.199  13.492   3.173  0.1229 -0.0915 -0.0877
 2827W        W20351   3.103  14.441   2.618  0.0226  0.0045 -0.0293
 2828W        W20352   5.422  13.311   3.542 -0.1778 -0.1775  0.0839
 2829W        W20353   9.686  14.235  15.084  0.1220 -0.0909  0.0650
 2830W        W20354   0.005   5.891  12.982  0.1907  0.0303 -0.1737
 2831W        W20355   0.888   7.574   0.151  0.0332 -0.0583 -0.2034
 2832W        W20356   8.194   6.407   0.470  0.2848  0.2483 -0.1581
 2833W        W20357  14.695   7.312   6.665 -0.1215 -0.0232  0.1018
 2834W        W20358  10.802   7.472   5.441  0.3712  0.1643  0.0211
 2835W        W20359   5.291   1.157  17.074 -0.1304  0.0258 -0.1267
 2836W        W20360  11.851  10.547  14.653 -0.0424  0.1487 -0.0449
 2837W        W20361   5.931   1.069  15.655 -0.0643 -0.1575  0.1076
 2838W        W20362  12.382   5.032  16.538 -0.1639  0.0293  0.2731
 2839W        W20363  13.677   7.522   2.749 -0.1621  0.3983  0.1658
 2840W        W20364   9.671   9.671  14.286 -0.0336  0.0355  0.1158
 2841W        W20365  15.145   4.081   1.103  0.1683 -0.1270  0.0155
 2842W        W20366  12.468  12.003  15.564 -0.1663  0.2484  0.0309
 2843W        W20367   6.464  14.683  17.701  0.3160 -0.4136  0.2298
 2844W        W20368   4.733  11.405  12.635  0.0941 -0.3775 -0.1378
 2845W        W20369  15.712   5.549   4.070  0.0900  0.0113 -0.0510
 2846W        W20370  15.799   0.633  15.586 -0.0509  0.4299 -0.1815
 2847W        W20371   0.773  14.190   1.994  0.1263 -0.0234 -0.3227
 2848W        W20372  12.273   0.645   4.990 -0.0865 -0.2370  0.1798
 2849W        W20373   4.151  16.357  14.786  0.2529 -0.0221  0.2232
 2850W        W20374  14.589   0.222  17.184  0.0223 -0.0802  0.1846
 2851W        W20375   5.467  14.081   2.449 -0.0534  0.0397  0.0057
 2852W        W20376   8.031   2.365  14.068  0.0210  0.1581 -0.0446
 2853W        W20377   3.500   1.030  16.131 -0.0496 -0.3026 -0.0191
 2854W        W20378  10.457  12.976  12.947  0.1076 -0.3801  0.0405
 2855W        W20379   1.532  14.260  14.844  0.0208 -0.0493 -0.0111
 2856W        W20380   6.511   9.315  14.064 -0.2848  0.1326  0.2323
 2857W        W20381   8.641  16.969   2.442 -0.0249  0.1053  0.2574
 2858W        W20382   3.950  11.617   1.787  0.0665 -0.0908  0.1355
 2859W        W20383   6.862   2.214   2.846 -0.0039  0.0460 -0.0523
 2860W        W20384  14.381   7.474   2.266  0.0628 -0.1521 -0.1426
 2861W        W20385   8.728  11.604   1.193  0.0636  0.1984  0.1278
 2862W        W20386   8.820   0.629  15.852  0.2115 -0.0883 -0.1283
 2863W        W20387   2.934   8.034  16.405  0.0585  0.2016 -0.3643
 2864W        W20388  14.710  13.774   0.287 -0.2146  0.1143 -0.2421
 2865W        W20389  16.788   4.177  16.082 -0.0345  0.0050 -0.3023
 2866W        W20390  16.749   4.372   0.081  0.0080 -0.2420  0.2371
 2867W        W20391   5.882   0.878   3.040  0.2706  0.1788 -0.0789
 2868W        W20392   1.585  16.412  15.944  0.0451 -0.1943 -0.0651
 2869W        W20393   4.436  14.619  17.552 -0.3145 -0.0616  0.1699
 2870W        W20394   1.140   7.458   1.683  0.0008 -0.0666  0.0999
 2871W        W20395  10.910   2.906  12.264  0.0889 -0.0272 -0.2608
 2872W        W20396   3.389   7.211   1.501 -0.3708 -0.1842 -0.0129
 2873W        W20397  14.902   4.377   0.744 -0.3357  0.1987 -0.0585
 2874W        W20398  14.249  11.259   3.770 -0.1522  0.0606  0.1235
 2875W        W20399  12.053   5.308   1.361 -0.4050 -0.2010 -0.2077
 2876W        W20400   6.596   1.886   2.428 -0.3747 -0.1939  0.2203
 2877W        W20401   9.502   0.381   2.524  0.3786  0.1922 -0.1649
 2878W        W20402   8.655  13.996   1.898  0.0489 -0.1713  0.2196
 2879W        W20403  12.969   7.310   2.841 -0.0152  0.1038  0.0305
 2880W        W20404  14.455   9.337   3.548  0.1647  0.0674  0.1736
 2881W        W20405  13.922  10.109   5.225 -0.1980 -0.0225 -0.0507
 2882W        W20406   4.220  13.428   0.013  0.2838  0.1968  0.1353
 2883W        W20407   4.709   9.253   2.225  0.1130 -0.0819  0.1012
 2884W        W20408   2.055   4.450   0.480  0.0077  0.3478  0.1178
 2885W        W20409   1.479   7.039   0.014  0.0240 -0.2925 -0.0919
 2886W        W20410  15.610  13.584  16.691  0.3775 -0.1141  0.0918
 2887W        W20411  10.275   9.875  15.414 -0.2171 -0.2109  0.2563
 2888W        W20412  14.988   6.811  13.915 -0.1580  0.1452 -0.3421
 2889W        W20413   5.784  14.197  13.522 -0.0237 -0.0507  0.1691
 2890W        W20414   7.895  16.347   5.956  0.1643  0.0174  0.3662
 2891W        W20415   2.026  16.767  15.171 -0.3324  0.0550  0.0076
 2892W        W20416  15.487  16.111   1.439 -0.1366 -0.0876  0.1933
 2893W        W20417   6.904   1.373   1.317  0.2063  0.1299 -0.2296
 2894W        W20418   7.317   7.662   1.739 -0.1117  0.0940  0.1681
 2895W        W20419   4.443   7.426  14.511 -0.1139  0.0059  0.0316
 2896W        W20420   0.188  16.433   1.084  0.1974 -0.1288  0.1111
 2897W        W20421  13.795   1.491   4.454 -0.0088  0.0049 -0.2557
 2898W        W20422   5.584   5.427  14.550  0.0856 -0.0675 -0.3252
 2899W        W20423   7.050   5.170  11.863 -0.1062 -0.0326  0.3863
 2900W        W20424   5.530  10.660   1.355 -0.0840  0.3098 -0.1105
 2901W        W20425   5.502   2.594   3.234  0.0995 -0.2982  0.2091
 2902W        W20426  16.597   0.543   2.978  0.2002 -0.0359  0.4173
 2903W        W20427   9.280   6.511   1.835 -0.1249 -0.1790  0.0815
 2904W        W20428  16.873   4.103  11.659  0.1210  0.0661  0.1173
 2905W        W20429  14.492  14.677   5.146  0.1136  0.4100  0.0339
 2906W        W20430  15.519   5.357   1.400  0.1109  0.1221  0.0919
 2907W        W20431  12.382  10.691  13.129 -0.0192 -0.0162 -0.3231
 2908W        W20432  11.987   0.789  17.268 -0.3638 -0.2370 -0.0682
 2909W        W20433   2.055  13.196  12.741  0.0998  0.3151  0.0079
 2910W        W20434  13.912   2.392  12.677 -0.1566  0.0176  0.1117
 2911W        W20435   1.451   3.201   5.101 -0.3451 -0.0533  0.0905
 2912W        W20436  11.216  14.186  17.149  0.0619 -0.3819 -0.1191
 2913W        W20437   0.211   1.349   1.189  0.2988  0.1140 -0.2514
 2914W        W20438  11.310   7.300  17.073  0.0005 -0.3982  0.0834
 2915W        W20439   8.209   5.556   3.515 -0.0347 -0.0735 -0.1637
 2916W        W20440   9.401   9.923   2.148 -0.0620 -0.0407  0.0658
 2917W        W20441   1.344   7.540   0.910  0.2233  0.0171  0.1299
 2918W        W20442   2.223  10.187   5.264  0.4385  0.1131 -0.1879
 2919W        W20443   8.194   5.722   0.632  0.1647 -0.0604 -0.0079
 2920W        W20444  10.277  11.439   3.429 -0.2353  0.0449  0.0078
 2921W        W20445   6.215   4.632  17.690  0.1081  0.0351 -0.0184
 2922W        W20446   6.107   5.842   0.816  0.0380  0.0435  0.1649
 2923W        W20447   3.829   6.890   2.424 -0.0491 -0.0513 -0.3564
 2924W        W20448   3.207  11.005   5.081 -0.0803  0.0286 -0.1513
 2925W        W20449  12.914   7.433   0.319 -0.3713 -0.0031 -0.1360
 2926W        W20450   4.252  11.998   4.800 -0.1429 -0.2051  0.0156
 2927W        W20451   6.054  12.925  14.036 -0.0263  0.0399  0.2434
 2928W        W20452   5.641  15.918   4.910  0.0992  0.0254 -0.0033
 2929W        W20453  16.030  12.132  15.323  0.2793 -0.1533  0.2292
 2930W        W20454  13.224  12.763   3.511 -0.0094 -0.3055  0.2620
 2931W        W20455  13.577  13.743   0.327 -0.0248  0.1915 -0.2314
 2932W        W20456  11.032  10.508  17.015  0.1897 -0.0960 -0.2456
 2933W        W20457  14.980   6.432  13.488 -0.1764 -0.0288 -0.1782
 2934W        W20458   0.317  13.025  15.427  0.2001  0.0021 -0.2003
 2935W        W20459   2.457  16.951   5.500 -0.0509 -0.0521  0.0987
 2936W        W20460   3.260   0.217   4.157  0.0334  0.1317 -0.0426
 2937W        W20461   5.379  13.380   5.336 -0.1169  0.3412 -0.0607
 2938W        W20462   0.285   5.881  13.364  0.1109 -0.1389 -0.5496
 2939W        W20463   2.266   8.543   2.689 -0.1256  0.3285 -0.1955
 2940W        W20464  13.895  16.623   4.663 -0.1713 -0.0998  0.0192
 2941W        W20465  16.275  13.345  15.116  0.0069 -0.0107 -0.0521
 2942W        W20466   8.384   6.822   2.692 -0.2541 -0.0196  0.0255
 2943W        W20467   9.171   6.921   2.862 -0.0699 -0.2832 -0.1854
 2944W        W20468   5.111   2.432   3.483  0.3214 -0.0055  0.0235
 2945W        W20469   9.678   2.884  15.447 -0.3958  0.0675 -0.0600
 2946W        W20470   7.712   0.409   0.899 -0.2538 -0.0702  0.0586
 2947W        W20471  12.485   6.145   0.143  0.2594  0.1405 -0.1351
 2948W        W20472  16.815  11.166  13.021 -0.1399  0.0719 -0.1147
 2949W        W20473   8.047  14.505   5.291 -0.0527  0.0078  0.1068
 2950W        W20474  10.397   7.719  17.087  0.4906  0.1505 -0.0689
 2951W        W20475  11.299  10.438  14.746  0.1518  0.0137 -0.1915
 2952W        W20476   3.576   2.396   4.388 -0.0345  0.0913 -0.3814
 2953W        W20477   7.736  17.119  15.205  0.2269  0.1217 -0.0273
 2954W        W20478  16.321   0.491   4.958  0.1001  0.1006  0.1981
 2955W        W20479   6.823   4.317   2.219 -0.3595 -0.1755  0.0495
 2956W        W20480  16.675   9.329  14.418 -0.1489 -0.1790  0.1323
 2957W        W20481  16.840   6.795  13.279 -0.0937  0.0123  0.2039
 2958W        W20482   7.844   9.374  12.593 -0.0243  0.3266  0.1262
 2959W        W20483   6.740  13.592   2.362 -0.0298 -0.0894  0.0226
 2960W        W20484   6.073   8.642  12.108 -0.0965 -0.1638  0.0097
 2961W        W20485  16.102   1.010   3.453  0.0297  0.4134  0.2533
 2962W        W20486   4.272  15.321   0.465 -0.1918 -0.0362  0.0089
 2963W        W20487   4.068  13.735  17.333 -0.2291 -0.3305 -0.1363
 2964W        W20488   5.982   3.265   3.398  0.0690 -0.3812  0.0701
 2965W        W20489   8.884   3.237  15.431  0.0736 -0.1013  0.2218
 2966W        W20490  10.200  16.335   0.944 -0.2121  0.1221 -0.2575
 2967W        W20491  13.807   6.603   2.705 -0.0830 -0.0668 -0.0442
 2968W        W20492   9.112   4.528  17.665  0.0113 -0.1032  0.4125
 2969W        W20493  10.828   2.391   4.858  0.1151 -0.1161 -0.1217
 2970W        W20494  15.981   7.475   1.789 -0.1221 -0.0690  0.1208
 2971W        W20495   1.588  16.472   3.694  0.0941  0.3141 -0.1380
 2972W        W20496   3.893   9.271   1.765  0.2579  0.0112 -0.0844
 2973W        W20497  11.795   1.051   0.374  0.0042  0.1207 -0.2897
 2974W        W20498   0.169   3.285  17.200 -0.1611  0.1068 -0.1674
 2975W        W20499  10.200   1.921   4.335 -0.0258 -0.1475 -0.1027
 2976W        W20500  14.239   3.620   1.629 -0.1425  0.0647  0.2871
 2977W        W20501   2.581  15.550   0.809 -0.2792 -0.2804  0.2846
 2978W        W20502  13.550   3.157   3.947  0.2361 -0.0720 -0.3121
 2979W        W20503   6.700  10.804  16.745 -0.5271  0.1267 -0.0447
 2980W        W20504   2.471   0.619  15.763  0.0632 -0.2642  0.1199
 2981W        W20505  15.859   3.896   5.719 -0.2730  0.0425  0.0633
 2982W        W20506  15.412  10.976  14.842  0.0940  0.2681 -0.1474
 2983W        W20507   2.242   6.234  16.003 -0.2564 -0.1604 -0.0865
 2984W        W20508  11.816   2.622  14.831  0.1152  0.0763  0.0111
 2985W        W20509   8.953   0.208  16.077 -0.0222 -0.3653 -0.1415
 2986W        W20510  13.154   2.636   5.087 -0.1545  0.1996 -0.0051
 2987W        W20511  10.028   1.061   2.763  0.0103 -0.1062  0.1145
 2988W        W20512  15.857   9.291  12.829  0.4514  0.0129 -0.1883
 2989W        W20513   5.642   8.607  12.339 -0.1437  0.1048  0.0214
 2990W        W20514   7.501   0.054  12.392 -0.0601 -0.1833  0.0185
 2991W        W20515   0.757  12.160  14.010 -0.1624  0.0609  0.2783
 2992W        W20516   4.922   4.286  16.892  0.0938  0.0299  0.0521
 2993W        W20517   1.009  16.156   5.156  0.1783  0.1312 -0.0605
 2994W        W20518   8.069  13.765   0.299 -0.0806 -0.1495 -0.1704
 2995W        W20519  11.708  16.216   2.489 -0.3193 -0.1620  0.2791
 2996W        W20520   7.325   1.615   5.511  0.1426 -0.3042 -0.4036
 2997W        W20521  13.161  11.503  13.161 -0.2780  0.1624 -0.0342
 2998W        W20522   8.893  15.737   1.475 -0.2378  0.0521 -0.0085
 2999W        W20523   6.751   0.551  16.058  0.2250  0.1382 -0.0409
 3000W        W20524  12.296  14.313   1.488  0.1622 -0.1831 -0.2440
 3001W        W20525   2.426   8.257   3.797  0.1087  0.1069 -0.2810
 3002W        W20526  13.276  11.164  17.478 -0.2674 -0.1779  0.1007
 3003W        W20527   8.941   7.118   2.473 -0.2093 -0.1726 -0.1669
 3004W        W20528   3.848  10.103   4.572  0.3878 -0.0936  0.2293
 3005W        W20529  10.666   8.532  16.379 -0.2635 -0.0101 -0.0666
 3006W        W20530   3.550   4.628  16.622  0.0646 -0.0509  0.0003
 3007W        W20531  16.352   1.959   0.628 -0.2709  0.0024  0.0411
 3008W        W20532  11.241   0.613   3.917  0.0890  0.0070 -0.2013
 3009W        W20533   2.800   5.061  17.654 -0.0561  0.1239 -0.0540
 3010W        W20534   8.773  11.784  17.442  0.2994 -0.0699  0.0507
 3011W        W20535   6.135   3.471   0.581 -0.1463  0.0591 -0.0445
 3012W        W20536   3.399  14.333  14.007  0.0819  0.0345  0.0289
 3013W        W20537   8.748  15.051  12.338  0.0470  0.2718  0.1902
 3014W        W20538   2.729  13.450  13.305  0.2049  0.3360  0.1688
 3015W        W20539   8.821  14.168  15.012  0.0412 -0.0345 -0.1166
 3016W        W20540   5.763   3.033  12.972  0.1706 -0.1400  0.1574
 3017W        W20541  15.610  11.778  12.854 -0.0667  0.1467  0.0143
 3018W        W20542  11.522  11.718   0.275  0.1559 -0.0728  0.0090
 3019W        W20543  15.465   1.796   3.708 -0.0971  0.1654 -0.0768
 3020W        W20544  13.339  16.397  14.754  0.1488 -0.0688 -0.0201
 3021W        W20545  16.470   0.277  17.043 -0.2394  0.0365 -0.2259
 3022W        W20546  12.673  12.188  14.907  0.1909 -0.1483  0.0382
 3023W        W20547  14.080  15.056  14.160  0.2244  0.1360 -0.0603
 3024W        W20548  16.850  12.768  16.330 -0.1614 -0.0572  0.1553
 3025W        W20549  10.167  10.538  13.975 -0.2818 -0.0026 -0.0196
 3026W        W20550   6.338   5.379  15.547  0.2196 -0.3179  0.1328
 3027W        W20551   3.017   2.246   0.412 -0.0333 -0.3319  0.1303
 3028W        W20552  14.209  13.800  12.260 -0.1031 -0.1428 -0.2267
 3029W        W20553   6.821   3.123   2.803 -0.1221 -0.1255 -0.1690
 3030W        W20554  13.298   0.324  14.804 -0.1151  0.0952  0.0221
 3031W        W20555   4.651   3.753  13.402  0.3445 -0.0362  0.1429
 3032W        W20556  11.450   4.040  17.113 -0.1498  0.1333 -0.1172
 3033W        W20557  14.945  13.352  15.038  0.0724 -0.1704 -0.0295
 3034W        W20558   6.162   1.456  15.299 -0.1011 -0.1352 -0.1551
 3035W        W20559  13.194   0.827  16.794 -0.0927  0.1412 -0.0707
 3036W        W20560   1.865   8.887  16.388 -0.0027 -0.1109  0.2441
 3037W        W20561   0.479  14.075   0.713 -0.2281 -0.2483  0.1354
 3038W        W20562   1.181  16.634   4.990 -0.2326  0.0734  0.1372
 3039W        W20563   0.059   6.965   4.585  0.1549  0.2685  0.0572
 3040W        W20564  16.755  15.852   3.312 -0.0177 -0.1532  0.0611
 3041W        W20565  12.434   6.421  13.277  0.1177  0.0397 -0.0564
 3042W        W20566   0.596  14.449  16.709 -0.0416 -0.1331 -0.0801
 3043W        W20567  12.119  10.951   1.079 -0.1128 -0.1029  0.1884
 3044W        W20568   0.696  16.104   4.797 -0.0790  0.0468  0.1391
 3045W        W20569  14.190  10.169  15.518 -0.2729 -0.3097  0.0924
 3046W        W20570   8.947  12.980  16.099 -0.0019 -0.1757  0.1546
 3047W        W20571   3.603  12.626   3.608 -0.0201  0.0458 -0.0170
 3048W        W20572   2.451   4.769  15.662  0.1356  0.0460  0.0363
 3049W        W20573   8.553   6.638   0.732  0.1643 -0.1462 -0.1500
 3050W        W20574   0.244   0.862  17.060 -0.0494 -0.1207 -0.0991
 3051W        W20575   4.465  15.001  13.545 -0.1675 -0.0394  0.1820
 3052W        W20576   0.835   5.208   0.911  0.0608 -0.1001 -0.2256
 3053W        W20577   5.364   0.697  17.179  0.3638 -0.1349 -0.2929
 3054W        W20578   6.098   3.829   0.218 -0.0831 -0.2740  0.0549
 3055W        W20579   7.766   1.214   4.211  0.4299 -0.3325  0.1091
 3056W        W20580   3.947  12.302   3.764 -0.2407 -0.0735  0.1281
 3057W        W20581  11.504   0.904   2.466 -0.0078 -0.1545  0.2376
 3058W        W20582   6.826  10.731   0.284 -0.0918  0.1389 -0.1337
 3059W        W20583  14.735   7.961   4.188 -0.0538 -0.1176  0.0852
 3060W        W20584   8.395  10.435   1.923  0.3066 -0.1634 -0.1458
 3061W        W20585  11.631  11.819   0.805  0.0071 -0.1628  0.2087
 3062W        W20586   0.158   1.018   4.203 -0.1648  0.0795 -0.2312
 3063W        W20587   1.597   4.447  13.076  0.0112  0.1052 -0.1323
 3064W        W20588   7.242   3.723   3.959 -0.0878  0.1984 -0.2307
 3065W        W20589   1.272   8.119  12.356 -0.0780 -0.0861  0.1547
 3066W        W20590  14.535   9.699   0.426  0.0441  0.1589  0.0194
 3067W        W20591   8.140   8.168  15.542 -0.3231 -0.0714 -0.1644
 3068W        W20592  14.587   9.507  12.428 -0.1595 -0.2262 -0.2437
 3069W        W20593  15.328  11.992  17.129 -0.0783  0.0291 -0.0474
 3070W        W20594  13.831   8.525   4.225  0.2858  0.1285 -0.0705
 3071W        W20595  10.969   0.618   0.605  0.0047  0.0916 -0.1254
 3072W        W20596   8.342   3.871  13.170  0.1827  0.1303 -0.2702
 3073W        W20597  14.231   7.664   1.009  0.3650  0.1644  0.0228
 3074W        W20598   1.709   5.261   0.789  0.1402  0.0233 -0.0886
 3075W        W20599  10.556   8.448   4.223 -0.2000 -0.0826 -0.1162
 3076W        W20600   2.881  16.668   5.147 -0.0991  0.1622  0.1750
 3077W        W20601   1.590   7.440  14.407 -0.2450 -0.1617  0.0004
 3078W        W20602  15.748  12.617   0.359  0.1855 -0.0319 -0.1890
 3079W        W20603  16.942  16.221   0.363  0.3092  0.0041 -0.1371
 3080W        W20604  10.200  11.532   0.085  0.3031  0.1224 -0.1021
 3081W        W20605   5.122   9.584  14.329  0.2287  0.0849 -0.1127
 3082W        W20606   6.049   8.853  12.587 -0.0293 -0.2465  0.2012
 3083W        W20607   0.327   2.935   0.439  0.1081 -0.0032 -0.0141
 3084W        W20608   1.753   9.890  14.890 -0.0115  0.1547 -0.0890
 3085W        W20609  12.061  13.508   2.503  0.2154  0.0547 -0.0508
 3086W        W20610   5.889   5.618   4.741 -0.2692 -0.2140  0.0726
 3087W        W20611   3.608  14.102   3.071 -0.2506 -0.1187  0.0680
 3088W        W20612   6.573  11.617   3.357 -0.1370  0.2158  0.3485
 3089W        W20613   7.608   9.627  11.774  0.2584  0.1677  0.1181
 3090W        W20614  13.370  15.117  15.880 -0.0952  0.2490  0.0072
 3091W        W20615  14.415  15.235  11.803 -0.0216 -0.1938  0.2503
 3092W        W20616   1.923  12.202  14.564  0.0106 -0.1293 -0.0123
 3093W        W20617  10.635   4.949   0.477  0.2280 -0.0355  0.2393
 3094W        W20618  12.342   1.603   4.072  0.1721 -0.2485 -0.0768
 3095W        W20619   4.417  16.676   3.813  0.2698 -0.0785 -0.2368
 3096W        W20620  10.770   4.302  14.974  0.0065  0.1879 -0.2231
 3097W        W20621   4.576  10.809   4.255 -0.2619 -0.0724 -0.1799
 3098W        W20622   0.137   2.793  13.701 -0.1436 -0.1409  0.0491
 3099W        W20623   1.205  16.500   5.487  0.2899 -0.0474  0.3564
 3100W        W20624  13.178  10.565  14.251 -0.0890  0.1061  0.0470
 3101W        W20625  12.531  11.546   0.014 -0.0047 -0.1484 -0.2924
 3102W        W20626  13.325   7.455   3.141 -0.5148  0.1181 -0.0701
 3103W        W20627  14.330  13.275  12.129 -0.1024 -0.2892 -0.1202
 3104W        W20628   5.072   7.079  15.817 -0.2718  0.0033 -0.0692
 3105W        W20629  15.643   1.099   4.386 -0.1389  0.0364 -0.0753
 3106W        W20630  12.371   9.400   0.718  0.2616 -0.2067  0.2357
 3107W        W20631  16.929   3.489   4.321  0.1303  0.0597  0.1314
 3108W        W20632   9.166   6.933  14.429 -0.3019  0.2246 -0.0147
 3109W        W20633  17.126   3.769   6.071 -0.0266 -0.0545 -0.0800
 3110W        W20634  10.508  12.617   0.867 -0.0594 -0.0036 -0.1897
 3111W        W20635  11.271  16.584   2.164  0.3054  0.0258  0.0794
 3112W        W20636  12.219   6.106   4.767  0.2226  0.1871 -0.0995
 3113W        W20637   3.713  10.575  16.842  0.0856  0.0614 -0.2848
 3114W        W20638  13.799  15.018   4.281 -0.2160  0.1183 -0.5215
 3115W        W20639   5.809  13.180   4.520 -0.0023 -0.1495  0.3468
 3116W        W20640  11.186  11.420   2.158  0.1468 -0.0164  0.1056
 3117W        W20641   8.174  11.622   3.601  0.1097  0.0294 -0.0228
 3118W        W20642   4.109  15.889  13.881 -0.1047  0.0583 -0.0267
 3119W        W20643   3.111   6.296  13.676 -0.0455 -0.0874  0.1438
 3120W        W20644   5.845  12.435   1.102 -0.0676 -0.0134  0.0035
 3121W        W20645   6.501  12.844  16.980 -0.1921  0.1437 -0.2193
 3122W        W20646   1.089  11.876  17.591 -0.3018  0.0756  0.1273
 3123W        W20647  15.481   7.731  13.628  0.1118 -0.0182  0.0411
 3124W        W20648  13.458   6.582   3.767  0.2290 -0.1555  0.0008
 3125W        W20649  13.891  14.769  17.392  0.0697 -0.0770 -0.4247
 3126W        W20650   7.309  11.946  15.111 -0.2999  0.2577 -0.2497
 3127W        W20651  16.777   6.200   2.712  0.0778  0.2157  0.0708
 3128W        W20652   5.556  12.917  14.968  0.1261  0.2066  0.2123
 3129W        W20653  12.610   1.789  17.013 -0.2437 -0.0972  0.1594
 3130W        W20654   9.837   6.303   3.514 -0.0048 -0.1147 -0.0666
 3131W        W20655   1.177  13.771  12.648 -0.0559  0.0899 -0.1691
 3132W        W20656   2.782   7.253  13.322  0.2686 -0.1198  0.0592
 3133W        W20657  14.383   3.557  14.000  0.0200  0.0855  0.2554
 3134W        W20658   4.973   9.607   2.839  0.2352  0.0029  0.0752
 3135W        W20659   1.371  16.334  17.609 -0.1698 -0.0061 -0.0123
 3136W        W20660   0.575   5.799  16.744  0.2122  0.0255  0.0159
 3137W        W20661  14.039   2.644  15.970  0.2801 -0.0726  0.2163
 3138W        W20662   5.114  12.571  12.987  0.0148  0.1572 -0.1925
 3139W        W20663   6.326   3.278  16.055 -0.0846 -0.0234 -0.0945
 3140W        W20664   4.514   6.648   5.165  0.0337  0.3852  0.2618
 3141W        W20665  10.559   7.131  13.021  0.2201  0.0643  0.0765
 3142W        W20666  11.169   7.657  16.537  0.1085  0.0530 -0.1392
 3143W        W20667   6.336   4.727  15.611 -0.1985 -0.1921 -0.1407
 3144W        W20668   6.831   7.860   5.295  0.1818 -0.1123  0.2014
 3145W        W20669   0.621  11.331  15.967  0.0647 -0.0293  0.1348
 3146W        W20670   7.841   1.244   0.250 -0.0610  0.0617 -0.2125
 3147W        W20671   4.083  14.655   4.942 -0.0248 -0.0402  0.1874
 3148W        W20672   9.420   1.322   4.119  0.1904 -0.1063  0.1489
 3149W        W20673  11.976  13.502   4.806 -0.0619  0.0359  0.1831
 3150W        W20674   3.629  14.966  11.480 -0.2085 -0.0266 -0.2470
 3151W        W20675   3.012  13.592   1.800 -0.0605  0.2720  0.0005
 3152W        W20676  13.533   0.953  13.638 -0.1235  0.1661 -0.0420
 3153W        W20677   3.004  12.050  14.912 -0.1352 -0.0959  0.0664
 3154W        W20678  12.679  15.628   0.783 -0.2044  0.1089  0.1974
 3155W        W20679  10.561   4.395   6.272  0.1611  0.1332  0.2181
 3156W        W20680   5.890  11.457   3.949  0.0781  0.0203  0.2289
 3157W        W20681  15.862   1.704  16.310  0.2476 -0.1992  0.0746
 3158W        W20682   7.701   9.381  17.084 -0.1112 -0.0928 -0.2337
 3159W        W20683   2.572   6.692  16.813  0.0803  0.0291  0.2763
 3160W        W20684   7.414   4.344   0.168 -0.0673  0.2131  0.1204
 3161W        W20685   1.918   1.243  14.344 -0.3111 -0.0166 -0.0362
 3162W        W20686  13.700  12.714   5.017 -0.0207  0.1034 -0.3361
 3163W        W20687   5.652  11.446  15.054 -0.2152  0.0109 -0.0621
 3164W        W20688  15.920   2.236   0.418  0.3992  0.3259  0.5664
 3165W        W20689  15.918   8.342   2.410 -0.0736  0.2180  0.0934
 3166W        W20690  14.533   4.821   4.956 -0.0244 -0.1991  0.1204
 3167W        W20691   8.398  13.780   3.217 -0.4154  0.1123 -0.1575
 3168W        W20692   7.325   4.512   2.250  0.1647 -0.0825  0.0891
 3169W        W20693   1.470   1.789  13.215  0.0894  0.2247 -0.5036
 3170W        W20694   4.664   9.290  15.671 -0.1388  0.1005  0.1410
 3171W        W20695  11.203  14.087  16.323 -0.2817  0.0029  0.0232
 3172W        W20696   0.797  12.282  16.470  0.2765  0.1296 -0.0145
 3173W        W20697   4.696   5.150   0.863 -0.1295 -0.3626  0.0930
 3174W        W20698  10.042  16.278   2.862 -0.0988  0.0271  0.0000
 3175W        W20699  13.302  12.753   0.023 -0.2198 -0.0304 -0.0212
 3176W        W20700  13.649  14.741  14.357 -0.2980  0.2378  0.1453
 3177W        W20701  16.565   8.360   0.102 -0.0562 -0.0132  0.0739
 3178W        W20702  16.435  10.363   1.419  0.1277  0.0019  0.1788
 3179W        W20703  10.910   4.770   1.828  0.0996  0.3049 -0.0416
 3180W        W20704   7.406  14.480   2.265 -0.0142 -0.0411  0.3147
 3181W        W20705   5.998  15.448   0.929 -0.0443  0.0915  0.1294
 3182W        W20706  12.323  15.870   4.037 -0.1632  0.0650 -0.2044
 3183W        W20707  13.904   5.274   3.071  0.1166  0.1574 -0.0655
 3184W        W20708  16.418   6.383  14.352 -0.1072  0.2259 -0.3746
 3185W        W20709   8.719   3.662   3.025 -0.2252  0.2901  0.0731
 3186W        W20710  14.351  15.317   3.042 -0.1393  0.0976 -0.0247
 3187W        W20711  15.450   7.648  12.353  0.0856 -0.0882 -0.1397
 3188W        W20712   0.186   6.709  15.079 -0.3404 -0.4215  0.0556
 3189W        W20713   9.789  13.249  16.038  0.0170  0.2317 -0.2637
 3190W        W20714   4.462  16.653   0.343 -0.2037 -0.0446 -0.1835
 3191W        W20715  10.655  14.959  16.611  0.0934  0.4076  0.1268
 3192W        W20716  15.808  11.382   0.640 -0.2100 -0.1349 -0.1352
 3193W        W20717   2.031   9.915  16.580 -0.1163  0.2165  0.1660
 3194W        W20718  16.324  10.242  13.579 -0.1412  0.0292  0.1903
 3195W        W20719  13.364  13.607   5.323  0.0294 -0.0254  0.0182
 3196W        W20720   0.938   0.161  15.735  0.1740 -0.3548  0.1388
 3197W        W20721   0.755   5.960   2.493  0.1509 -0.3740  0.0444
 3198W        W20722   1.393   1.403  14.547  0.3042 -0.2245  0.2683
 3199W        W20723  14.655  11.235  14.356 -0.3001 -0.1753 -0.2138
 3200W        W20724   3.592   0.686  13.069 -0.1345 -0.1654 -0.0229
 3201W        W20725   9.238  16.400   3.281 -0.0214  0.1796 -0.0909
 3202W        W20726  11.726   2.749  12.474 -0.0161  0.0690 -0.0793
 3203W        W20727  11.094   0.202   1.801  0.3680 -0.0467 -0.0978
 3204W        W20728   5.166   3.855   2.673  0.3878 -0.0375 -0.2906
 3205W        W20729  16.702  14.002  15.523  0.0751  0.0306 -0.2506
 3206W        W20730  13.006   1.027  17.506  0.0763 -0.1415  0.1626
 3207W        W20731  15.666  13.745  17.153 -0.1047  0.0257  0.1717
 3208W        W20732   8.069   8.354   1.808  0.1036 -0.0860 -0.0328
 3209W        W20733  13.652  11.173  13.542 -0.0878  0.0812  0.0195
 3210W        W20734  12.364   9.200  17.104 -0.0413 -0.1318  0.0939
 3211W        W20735  14.263   3.175  16.150  0.0620  0.2174 -0.0766
 3212W        W20736   1.208   8.142   3.452 -0.0881  0.0569 -0.0997
 3213W        W20737   0.046   6.552   4.308 -0.0919  0.0083  0.0757
 3214W        W20738   5.622   8.297  13.701  0.1133 -0.3044 -0.0575
 3215W        W20739  14.375  15.234  15.414  0.0390 -0.1413 -0.0448
 3216W        W20740  15.779  10.389   3.391 -0.2141 -0.0369 -0.1562
 3217W        W20741  16.130   1.963  16.625  0.0975 -0.4172  0.1953
 3218W        W20742  15.125   7.838   0.498  0.1169 -0.4219 -0.0072
 3219W        W20743   9.297  13.833   1.979 -0.1718  0.0153 -0.2926
 3220W        W20744   2.095   4.392   4.381 -0.1567  0.0966  0.0697
 3221W        W20745  10.283  13.571   2.016  0.0486  0.0834 -0.3430
 3222W        W20746   1.653   0.102   3.396  0.1538  0.1019  0.1684
 3223W        W20747   3.185  12.436  15.658 -0.0297 -0.2456  0.0241
 3224W        W20748   8.980  14.160  11.977  0.1465 -0.0914 -0.2382
 3225W        W20749  13.385  15.540   1.878  0.5945  0.2471 -0.1820
 3226W        W20750   2.676   4.174   2.584 -0.0003 -0.2645 -0.3164
 3227W        W20751  14.245  10.403  13.145 -0.3501 -0.0093  0.4177
 3228W        W20752   4.088   6.736  16.053 -0.3926  0.1804  0.1379
 3229W        W20753   2.443  15.538   1.797  0.0147  0.2925 -0.3243
 3230W        W20754   6.025   2.930  15.431 -0.1408 -0.0405 -0.0866
 3231W        W20755   9.912   3.603  12.772 -0.0810 -0.1987  0.2824
 3232W        W20756   1.996  11.558  13.851  0.0051  0.0868 -0.1155
 3233W        W20757  10.618   4.442   0.652  0.0281  0.1216  0.3619
 3234W        W20758   4.668   2.182  16.183  0.0600  0.2671  0.1156
 3235W        W20759  13.120  12.923  14.896 -0.0823 -0.2287 -0.1756
 3236W        W20760  10.700   3.414  15.304  0.1316  0.0591 -0.0750
 3237W        W20761  15.079  10.545   1.490  0.0646  0.3971  0.0785
 3238W        W20762   7.902   7.047   2.544  0.3125  0.2368  0.1363
 3239W        W20763   5.491   9.210  11.814 -0.1647 -0.1860  0.1499
 3240W        W20764   2.466   1.004   3.007 -0.1411 -0.0395  0.1554
 3241W        W20765   9.140  14.968   4.197  0.4089 -0.0646 -0.1413
 3242W        W20766  11.051   7.802   5.038 -0.3734  0.0112  0.0456
 3243W        W20767  14.301  16.566  15.503  0.1775  0.0947 -0.1229
 3244W        W20768  11.603  12.101  13.225  0.3153 -0.0899  0.0390
 3245W        W20769  11.645  16.445  16.772 -0.0286 -0.1858 -0.1872
 3246W        W20770  13.826   6.211  13.963 -0.2561 -0.0438  0.0461
 3247W        W20771   9.282  15.987   1.547  0.0761  0.0123  0.2442
 3248W        W20772  12.243   7.010   4.024 -0.1556  0.0006  0.1133
 3249W        W20773  11.629   9.643   5.276  0.1255  0.1908 -0.0172
 3250W        W20774  12.597  10.423  17.316  0.0526  0.4250 -0.2233
 3251W        W20775   8.052   5.884   4.762  0.0235 -0.0982 -0.2519
 3252W        W20776   8.499   2.991   0.616  0.1400 -0.0621 -0.0773
 3253W        W20777   4.143   4.284   3.475 -0.0255 -0.0473 -0.0137
 3254W        W20778   3.258   2.112   4.061  0.2611  0.1334 -0.2149
 3255W        W20779  12.909  13.461  13.602 -0.2061 -0.1453  0.0897
 3256W        W20780   8.770   6.349  16.383  0.1778  0.0736  0.0916
 3257W        W20781  17.013   2.243   1.829  0.2761  0.1364  0.2742
 3258W        W20782  10.404   1.298   0.158 -0.2302  0.0233 -0.1052
 3259W        W20783  15.154  13.409   5.033 -0.0086 -0.0289 -0.0074
 3260W        W20784  14.405  12.385  12.523  0.1079 -0.0407 -0.2537
 3261W        W20785   5.162  12.591   4.219  0.0552 -0.0114 -0.2172
 3262W        W20786   3.817   0.655   5.086  0.1579 -0.2267 -0.0420
 3263W        W20787  15.147   5.551  13.762  0.0485 -0.1330  0.0466
 3264W        W20788  12.408   1.122   2.311  0.0055 -0.2085  0.0721
 3265W        W20789   6.706   6.354  12.952 -0.0594  0.0402  0.1056
 3266W        W20790   1.012   8.463   3.804 -0.0806  0.2449 -0.1817
 3267W        W20791   9.909   1.466   6.621 -0.0027 -0.3167 -0.1263
 3268W        W20792   2.459   1.430   0.034  0.1861  0.1276  0.1863
 3269W        W20793   0.164   1.841   5.057 -0.2467 -0.1864 -0.1035
 3270W        W20794   7.394   1.880  17.158  0.1145 -0.2616  0.0251
 3271W        W20795   7.008   6.461   4.986  0.0168 -0.1753  0.1681
 3272W        W20796  11.458   5.767  15.804 -0.0922 -0.2373 -0.0298
 3273W        W20797  12.336  13.695  15.757 -0.1127  0.3005  0.0039
 3274W        W20798   1.085   7.406  13.182  0.0005  0.1223 -0.2050
 3275W        W20799   0.180   1.327   0.692  0.2802 -0.0421 -0.0997
 3276W        W20800   2.500   0.068  13.033  0.3573 -0.1600 -0.1124
 3277W        W20801  15.517  12.360  15.164  0.1539 -0.3379  0.2896
 3278W        W20802  10.205   9.629   1.294  0.1506  0.2148 -0.0521
 3279W        W20803  13.546  15.051   1.635 -0.0629 -0.0359  0.1261
 3280W        W20804   3.383   3.219   1.672 -0.0561 -0.2450  0.2477
 3281W        W20805   7.169   8.065  14.437  0.1845 -0.1830 -0.1067
 3282W        W20806   9.220  11.472   0.343 -0.2684  0.0060 -0.1827
 3283W        W20807   5.067  15.449  16.333 -0.1890 -0.0267  0.2539
 3284W        W20808   9.269   5.442  17.204 -0.0666 -0.1539  0.1096
 3285W        W20809  13.223   1.437  16.787 -0.0947 -0.0430  0.0740
 3286W        W20810  10.326  10.461   0.004 -0.2829 -0.3290 -0.1493
 3287W        W20811   9.581  16.383  13.300  0.2369  0.0479 -0.1561
 3288W        W20812  13.772   7.148  13.958 -0.0035  0.2769 -0.1878
 3289W        W20813   9.098   3.771   4.836 -0.0100 -0.0771  0.1413
 3290W        W20814   2.623  13.820   0.320 -0.0015 -0.1200 -0.1445
 3291W        W20815   8.663   9.158   4.825 -0.0776  0.1285  0.3683
 3292W        W20816  10.471   1.438  14.285 -0.1425 -0.2058 -0.1985
 3293W        W20817   0.937  15.166  14.663  0.1121  0.1087 -0.0271
 3294W        W20818   4.607  14.011  15.778  0.1021 -0.1060  0.0339
 3295W        W20819   1.533  16.775   3.310 -0.0081  0.1449 -0.0677
 3296W        W20820  11.127  13.762  13.025  0.0040  0.3087  0.1227
 3297W        W20821   1.983   6.752   4.480 -0.0564  0.0625  0.0522
 3298W        W20822   1.235   6.057   3.113 -0.1665 -0.0588 -0.1604
 3299W        W20823   9.514   6.600  17.464  0.0238  0.1792 -0.0569
 3300W        W20824  16.831   5.799   5.560  0.0290  0.0547  0.0440
 3301W        W20825   4.019   2.210   6.093  0.3054  0.0518  0.1370
 3302W        W20826  13.813   4.514  12.145 -0.1490 -0.0509 -0.1671
 3303W        W20827  16.435   1.624   2.201 -0.0624  0.1674 -0.0108
 3304W        W20828   1.039  10.554   2.435  0.1210  0.0748  0.0258
 3305W        W20829  12.526  11.864   2.597  0.1436  0.1805 -0.2498
 3306W        W20830   6.838   6.251  16.583  0.2598 -0.2678  0.2009
 3307W        W20831   6.153   5.724   1.703  0.1693  0.0118 -0.0840
 3308W        W20832   1.936   7.811   5.199  0.0439 -0.0254  0.0059
 3309W        W20833   8.306  15.957  16.593  0.2480 -0.0228 -0.3278
 3310W        W20834  12.947   7.477  15.599  0.0682  0.0472 -0.1568
 3311W        W20835  14.489  14.749  16.622  0.2164  0.1763  0.0058
 3312W        W20836   4.411   0.165  14.179  0.0125  0.0316 -0.0576
 3313W        W20837  14.905   6.410  12.463  0.3600 -0.1320 -0.1904
 3314W        W20838  16.823   7.860   0.840  0.2144 -0.0577 -0.0552
 3315W        W20839  14.619  15.193  14.388  0.1447  0.1059 -0.0174
 3316W        W20840  15.598   3.358  16.720 -0.0115  0.0795 -0.0199
 3317W        W20841   8.763   1.020  17.585 -0.2641 -0.1628 -0.0669
 3318W        W20842  14.085   0.372  13.829 -0.0151  0.0982  0.0730
 3319W        W20843  15.256   5.794   1.500 -0.1494 -0.2464 -0.2123
 3320W        W20844   6.792  10.905  14.351 -0.0228 -0.4638  0.1949
 3321W        W20845  14.780   0.222  15.605  0.0746  0.1798 -0.0638
 3322W        W20846  16.982   6.285  14.964  0.0988  0.2227 -0.0356
 3323W        W20847   5.124  13.117  16.555  0.1605 -0.1411 -0.1009
 3324W        W20848  10.703   9.525   2.559  0.3511 -0.0612 -0.1218
 3325W        W20849   3.615  16.440  14.768  0.1497 -0.1080  0.1913
 3326W        W20850   4.319  11.701   4.449  0.2678 -0.0054  0.1237
 3327W        W20851  15.493   2.344  15.061  0.0162 -0.1611 -0.1064
 3328W        W20852  16.817   1.289  17.199  0.3356  0.2033  0.2612
 3329W        W20853  12.439   5.798  12.151  0.0941 -0.0759 -0.1859
 3330W        W20854  16.105  16.434  13.466  0.3441 -0.0292  0.1705
 3331W        W20855   0.771  13.996   3.008  0.1037  0.0136  0.1306
 3332W        W20856   2.805   9.026   3.233  0.2707 -0.1059  0.3502
 3333W        W20857   6.403  15.369   4.947 -0.2716 -0.0054  0.1193
 3334W        W20858   9.549  11.374   4.068 -0.0093 -0.1703  0.2613
 3335W        W20859  11.894   7.645   6.185 -0.0520 -0.1646  0.0024
 3336W        W20860  14.460   4.714  13.436 -0.0664  0.0177  0.2296
 3337W        W20861   4.921   4.087   5.814  0.1540  0.2658  0.0228
 3338W        W20862   1.935  11.482   4.346 -0.0517 -0.0935 -0.0220
 3339W        W20863  13.746   1.712  12.283  0.1479 -0.1552  0.0042
 3340W        W20864  10.122  15.137  14.334  0.1609  0.1270 -0.0191
 3341W        W20865   1.902   4.078  14.868 -0.2787  0.2205  0.1940
 3342W        W20866   9.597   7.044   3.949  0.0840  0.0307 -0.0774
 3343W        W20867  14.247  16.339   2.262  0.2937  0.3160  0.1569
 3344W        W20868   0.687  10.348  14.277  0.0283  0.1237  0.2349
 3345W        W20869  14.654  16.126  13.305  0.0506 -0.0675 -0.4496
 3346W        W20870   4.665  13.200  13.677  0.0233  0.1420 -0.2433
 3347W        W20871   3.622  16.531  12.428  0.0634 -0.0693 -0.2673
 3348W        W20872  15.742   6.884  16.355 -0.2459  0.0870  0.0398
 3349W        W20873   4.120  10.872   5.298 -0.1462  0.0869 -0.1881
 3350W        W20874  15.017   6.105   2.677 -0.0592 -0.1361 -0.0097
 3351W        W20875   3.450   1.903   1.228 -0.0996 -0.3496 -0.1437
 3352W        W20876  12.337  13.772  13.976 -0.1119 -0.3170 -0.0061
 3353W        W20877   2.662  16.412  15.102  0.1762 -0.2728  0.2159
 3354W        W20878   1.821  10.238  16.113 -0.2700 -0.0712  0.1165
 3355W        W20879  17.133  17.046   1.847  0.1850 -0.4182  0.0375
 3356W        W20880  13.693   3.455   3.569 -0.1797  0.2207  0.0195
 3357W        W20881  12.998  13.980   1.383 -0.0878 -0.1761  0.0951
 3358W        W20882  15.288   1.723   0.101  0.2889 -0.5531 -0.0770
 3359W        W20883   6.129   0.658   1.456  0.1084  0.0760  0.0165
 3360W        W20884   2.228   3.184  11.831 -0.0930 -0.0766 -0.0483
 3361W        W20885   7.019  15.771  12.887  0.0680 -0.0744  0.0630
 3362W        W20886  12.160   3.032   2.220 -0.0536  0.0556 -0.1093
 3363W        W20887  10.648  15.927  14.472  0.0398  0.2179 -0.1694
 3364W        W20888   3.968  10.981   3.567 -0.0492 -0.1289  0.0764
 3365W        W20889   2.306   9.842   2.764 -0.1085 -0.2286  0.0887
 3366W        W20890   1.663  15.455  13.067  0.1588 -0.1296  0.5773
 3367W        W20891   6.675   1.541   1.689  0.1757 -0.3362  0.0255
 3368W        W20892  15.650   3.577   0.365  0.1802 -0.0410 -0.2513
 3369W        W20893   8.867   6.593  13.479 -0.2226 -0.0420 -0.1494
 3370W        W20894   6.036  16.470   6.622  0.1571  0.1762  0.0417
 3371W        W20895   2.087  13.346  17.043 -0.1489 -0.1157 -0.0269
 3372W        W20896   0.888   7.497   5.117 -0.1333 -0.1335  0.0871
 3373W        W20897   6.401   5.000   2.528 -0.1947 -0.1075 -0.3336
 3374W        W20898   7.517  14.548   4.568 -0.0631  0.4522 -0.0911
 3375W        W20899   0.703   3.855  15.188 -0.3399 -0.0056 -0.0747
 3376W        W20900   1.212   5.641  14.179 -0.1783  0.0475  0.0532
 3377W        W20901   1.121  14.702  14.824 -0.4098  0.1061 -0.1517
 3378W        W20902  10.781  12.215   0.963 -0.0197  0.0044 -0.1775
 3379W        W20903   1.797  14.568   0.349 -0.2936 -0.1172  0.3211
 3380W        W20904  14.774   1.555  14.570 -0.1094 -0.1036 -0.1558
 3381W        W20905   0.801  11.639   0.210  0.0275  0.1168  0.0779
 3382W        W20906   7.065   2.592   2.581  0.1027 -0.0528 -0.0291
 3383W        W20907   0.131   8.457   2.823  0.0036  0.1611  0.3559
 3384W        W20908   8.254  15.089   2.616  0.1956 -0.3004  0.3568
 3385W        W20909  16.909  15.242  12.849  0.1467  0.0668 -0.2037
 3386W        W20910   0.357   7.583  17.330 -0.4461 -0.4057 -0.0155
 3387W        W20911   4.848   0.900   1.186 -0.0634 -0.2083 -0.1960
 3388W        W20912  15.424   6.904   0.042 -0.1434 -0.1866  0.1251
 3389W        W20913  13.064   9.876   5.373  0.1563  0.3224 -0.1538
 3390W        W20914   8.474  15.033  14.299  0.0847 -0.1854 -0.0055
 3391W        W20915   2.833   1.519   3.910  0.0883 -0.0726 -0.0058
 3392W        W20916  12.869  15.938  17.201 -0.0851  0.0573 -0.0409
 3393W        W20917  10.315  12.635  16.060 -0.2111 -0.0491  0.1143
 3394W        W20918   3.892  13.731  13.724 -0.0973 -0.0309  0.1354
 3395W        W20919   0.621   2.320  15.904  0.1170 -0.1994  0.0439
 3396W        W20920   6.424   9.614   0.061  0.2939  0.2966 -0.2132
 3397W        W20921  12.207   3.481   5.663  0.4861 -0.2762  0.0901
 3398W        W20922   8.132   0.606   5.363 -0.0799 -0.1251  0.3422
 3399W        W20923  10.007  14.225   2.439 -0.0705 -0.0184  0.1055
 3400W        W20924   2.362  13.287  16.549  0.0276  0.2395 -0.1784
 3401W        W20925   1.929   9.145  11.270 -0.1121 -0.0738  0.2387
 3402W        W20926  11.992  14.901   1.388 -0.1171 -0.3051  0.0019
 3403W        W20927   2.875  11.121  15.476  0.2001  0.1158  0.1179
 3404W        W20928   7.784  10.873  17.031 -0.0805 -0.2794 -0.3165
 3405W        W20929  12.722  14.809   4.632  0.1263 -0.1899 -0.0171
 3406W        W20930   6.054  15.956   0.732  0.2027  0.3160 -0.1092
 3407W        W20931   2.529   3.433   1.973 -0.0117  0.2265  0.2156
 3408W        W20932   7.153  10.710  12.224 -0.2749 -0.1338  0.1439
 3409W        W20933   2.166   6.505   2.145  0.4805  0.2265 -0.1413
 3410W        W20934   6.882   7.638  12.730  0.1837 -0.0239 -0.0381
 3411W        W20935   6.191   5.537  13.171 -0.0809  0.0296  0.4157
 3412W        W20936  13.924  16.395  14.557 -0.0561  0.1271 -0.3971
 3413W        W20937   2.618  12.756   0.772 -0.2229 -0.0836  0.1596
 3414W        W20938   7.396   2.350   4.897  0.1098 -0.2180 -0.1001
 3415W        W20939   0.330  15.033   2.837 -0.2358  0.0467 -0.0401
 3416W        W20940   0.562  13.550   2.320 -0.2224 -0.1265 -0.3334
 3417W        W20941   9.097   7.963  12.196 -0.2075  0.1189 -0.1523
 3418W        W20942  15.894  14.300   0.852  0.2211  0.0769  0.1978
 3419W        W20943  11.202   8.809   3.423  0.0297  0.0319  0.4405
 3420W        W20944   7.722   9.700  11.145 -0.1644  0.0901  0.2248
 3421W        W20945  14.120   6.503  14.702  0.1624  0.0640  0.1125
 3422W        W20946   9.317   0.383  15.196 -0.2924  0.1197  0.2266
 3423W        W20947  16.988   1.231  15.501 -0.2558  0.1264 -0.1018
 3424W        W20948  12.288   0.836   1.369  0.0584 -0.0580  0.2096
 3425W        W20949   5.729   4.107   5.639  0.2032 -0.0107  0.2247
 3426W        W20950   2.400  11.971   5.091  0.3139 -0.1966  0.2851
 3427W        W20951   3.920  15.761  14.367  0.0586  0.1563  0.2565
 3428W        W20952   8.101  14.367  12.056 -0.0987 -0.1878 -0.0662
 3429W        W20953   1.850   3.266   3.286  0.3345  0.1365 -0.1029
 3430W        W20954   0.044   1.044   6.296 -0.2041 -0.0247 -0.2592
 3431W        W20955   7.507  13.792  13.522 -0.1441  0.3543  0.0829
 3432W        W20956   8.706  13.102   3.654 -0.0149  0.0480 -0.1969
 3433W        W20957   1.183  16.790   3.930  0.0592  0.1068 -0.2967
 3434W        W20958  13.165   4.446  12.827 -0.1618  0.3221  0.2726
 3435W        W20959   1.162  15.571   4.764  0.1822  0.0362  0.1502
 3436W        W20960  13.597   2.787   5.668  0.0210 -0.2736  0.1415
 3437W        W20961   5.966   0.633  17.427  0.2460 -0.0331 -0.1197
 3438W        W20962   2.015  12.124  13.075 -0.2638  0.0325 -0.2060
 3439W        W20963   6.089   6.032   4.866  0.3663 -0.0825 -0.0964
 3440W        W20964   9.488   9.774   4.977  0.1763  0.2235  0.3283
 3441W        W20965  15.612   7.100  12.736 -0.2014  0.1397  0.1630
 3442W        W20966   4.129   6.252  16.337 -0.0562  0.0227  0.0600
 3443W        W20967   4.458  15.873  16.908  0.0185  0.0930 -0.2596
 3444W        W20968   7.134   6.201   6.299 -0.1726  0.0403  0.1585
 3445W        W20969  16.605  15.333  15.706 -0.2712 -0.0785 -0.1924
 3446W        W20970   7.840   7.150   0.670 -0.0197  0.0345 -0.1115
 3447W        W20971  11.913   9.432   3.010  0.0223 -0.1192  0.1006
 3448W        W20972   6.249   2.370  17.715  0.0570  0.3715  0.0344
 3449W        W20973  12.151   9.940   0.255  0.2034 -0.0208  0.0271
 3450W        W20974   8.086   1.859  15.484  0.0954  0.0059  0.0021
 3451W        W20975   2.678  16.147   4.718  0.2170  0.1209  0.0475
 3452W        W20976   0.032  15.479   6.615 -0.0082  0.0876  0.0814
 3453W        W20977  16.396   7.284   2.667  0.0606  0.1344  0.1767
 3454W        W20978   8.126   1.500  15.803  0.2308  0.1298  0.0893
 3455W        W20979   3.050  11.617  13.203  0.0924 -0.1422  0.0296
 3456W        W20980  16.792  11.697   3.052 -0.0867  0.1685  0.5127
 3457W        W20981   8.075   6.367   4.745  0.0576 -0.0444 -0.4925
 3458W        W20982  10.295  12.398   3.283 -0.1120 -0.0718 -0.1472
 3459W        W20983  13.461   2.319   1.318 -0.0894 -0.0801  0.1925
 3460W        W20984  15.931   1.149   3.930 -0.0029  0.1951 -0.0076
 3461W        W20985   5.280  15.725   0.550 -0.1037  0.0287  0.0654
 3462W        W20986  13.992   3.203  14.111 -0.0190  0.2205 -0.1627
 3463W        W20987   2.263  13.398   4.793  0.0148 -0.0712  0.4391
 3464W        W20988   9.306   4.982  15.243  0.3286 -0.1443 -0.1428
 3465W        W20989   3.946   2.956   0.940  0.2539  0.1219 -0.0833
 3466W        W20990   1.644   4.765  13.986 -0.1232 -0.0654  0.0616
 3467W        W20991   4.180   3.469   5.724  0.2720  0.1698 -0.1536
 3468W        W20992   3.051   1.150  13.614  0.0020 -0.2827 -0.0055
 3469W        W20993   0.172  12.698   3.187 -0.2839 -0.2078 -0.0732
 3470W        W20994  15.253   5.165  15.705 -0.1867 -0.1772 -0.0922
 3471W        W20995   7.837  14.965  13.394 -0.1670  0.2001 -0.2826
 3472W        W20996   8.232  11.350   5.149  0.0347 -0.1465 -0.1456
 3473W        W20997   6.193   0.297   4.822 -0.1421  0.0051  0.2454
 3474W        W20998  12.692  11.962  13.264  0.0318  0.1290 -0.0928
 3475W        W20999   0.921   2.233   2.789  0.0963 -0.2194 -0.3357
 3476W        W21000  12.774  15.827   4.308  0.4863 -0.0828  0.1548
 3477W        W21001   2.817   2.842   1.113  0.0585  0.0453  0.0023
 3478W        W21002   2.241   6.160  17.706 -0.1333 -0.1567  0.2981
 3479W        W21003   2.784  15.686   0.329  0.1159  0.0880 -0.1109
 3480W        W21004   9.267  13.692   2.511 -0.0067 -0.1102 -0.1447
 3481W        W21005  11.774   1.040   3.403  0.3768  0.3007 -0.3403
 3482W        W21006   9.894   9.569   0.855  0.0841  0.1420 -0.1842
 3483W        W21007   8.538  12.896  15.711 -0.1593  0.0025  0.3111
 3484W        W21008  14.792  10.671  12.942  0.0934 -0.0802  0.0028
 3485W        W21009   1.882  16.901   3.668 -0.1310  0.2761 -0.0278
 3486W        W21010   9.797  10.729  14.190  0.3492 -0.1452 -0.0949
 3487W        W21011   0.393   2.122   1.204  0.0329 -0.1500 -0.0538
 3488W        W21012  13.086   2.405  15.940  0.0295  0.0627  0.0225
 3489W        W21013   3.270  13.060   1.840 -0.1150  0.0661 -0.0154
 3490W        W21014   8.192   6.727  13.867  0.4580 -0.1051 -0.1489
 3491W        W21015  14.225  16.867  11.448 -0.0372 -0.0783 -0.0465
 3492W        W21016  14.247  14.628   2.858 -0.0486 -0.0523  0.1226
 3493W        W21017  14.028   9.872   1.452  0.0952  0.2086 -0.3254
 3494W        W21018   2.580   9.504   0.833 -0.0475  0.1091 -0.0065
 3495W        W21019  11.876  16.100  17.284  0.2960  0.0985 -0.0437
 3496W        W21020   8.063  11.600   2.738  0.1389 -0.0862  0.1023
 3497W        W21021  16.338  14.120  12.298  0.1156 -0.2308  0.1376
 3498W        W21022  16.040   0.726   4.550  0.3541 -0.0421 -0.0292
 3499W        W21023   7.980  16.107   0.935 -0.0744 -0.3479 -0.2577
 3500W        W21024   3.170   0.119   2.620 -0.0791 -0.3205  0.4344
 3501W        W21025   5.750  13.681  16.555 -0.0463 -0.0490 -0.1919
 3502W        W21026   0.387   4.525  15.308  0.1719 -0.3043  0.0706
 3503W        W21027  11.491  15.994   0.669  0.3774 -0.2179  0.0280
 3504W        W21028   3.992   6.813   5.217  0.0659 -0.2139 -0.1088
 3505W        W21029  10.939  15.457   3.453 -0.2833  0.0139 -0.1025
 3506W        W21030  11.089   9.226  16.859 -0.0802  0.0025  0.1303
 3507W        W21031   9.655   3.042  16.136 -0.1033 -0.0910 -0.0821
 3508W        W21032  10.852  10.758   2.877  0.3150 -0.0391  0.1771
 3509W        W21033  10.392   1.193  12.641 -0.1887 -0.0637 -0.1745
 3510W        W21034   6.117  13.968  13.836  0.1781 -0.0394  0.2550
 3511W        W21035   4.119  16.035   0.097  0.2697 -0.0336 -0.0406
 3512W        W21036   8.649   4.640  16.831 -0.0412  0.1404  0.1450
 3513W        W21037   8.609  10.775   4.330 -0.1582  0.1047 -0.0835
 3514W        W21038   3.085   0.547  16.981 -0.1745 -0.1630  0.0934
 3515W        W21039  14.385   6.753   3.966 -0.1537 -0.1351 -0.2403
 3516W        W21040  17.141   6.465  16.503 -0.3096 -0.2001 -0.2310
 3517W        W21041   9.922  15.595  15.159  0.1300  0.0399 -0.0404
 3518W        W21042   7.018   4.964  12.299 -0.1787 -0.1959  0.1957
 3519W        W21043   3.460   6.777   2.716  0.0337 -0.1301 -0.0925
 3520W        W21044   3.499  12.948  12.293  0.0593 -0.0529  0.0385
 3521W        W21045   9.471  17.131   1.780  0.2848 -0.0587 -0.2619
 3522W        W21046  16.956   6.053   1.545 -0.0208 -0.2203 -0.2517
 3523W        W21047   2.605   5.953   1.470 -0.2024  0.0992 -0.1252
 3524W        W21048  10.967   5.472   1.807  0.1008  0.3872  0.0544
 3525W        W21049  16.383   4.469   1.231 -0.1291  0.2558 -0.2982
 3526W        W21050  10.414   7.567   1.936  0.1028 -0.0222 -0.0314
 3527W        W21051   5.040  16.980  16.924  0.1394 -0.0241  0.0132
 3528W        W21052   3.185   7.555  12.498  0.0937 -0.1965  0.2394
 3529W        W21053   8.748   5.478  17.193  0.1782 -0.1451 -0.2562
 3530W        W21054   2.876  15.335   4.330 -0.0345 -0.1789  0.0895
 3531W        W21055   9.619   6.973   1.826  0.0022  0.0541 -0.0683
 3532W        W21056   5.529   7.213  13.554  0.0387 -0.0648 -0.1393
 3533W        W21057   5.632   2.774  15.118  0.2273  0.1202  0.1843
 3534W        W21058  13.986  15.546  16.509 -0.0760  0.1592  0.0798
 3535W        W21059   2.364  11.136   4.896  0.2019  0.0644 -0.0760
 3536W        W21060  15.331   9.781  17.674 -0.2416 -0.1899  0.0213
 3537W        W21061   8.560   6.298  12.679  0.1886 -0.1280  0.1509
 3538W        W21062  14.191   7.006  13.360 -0.0238 -0.0022 -0.0427
 3539W        W21063   0.154   7.557   2.743 -0.0762  0.0404 -0.1729
 3540W        W21064   1.328   0.515  13.948  0.3929  0.0134 -0.0466
 3541W        W21065   9.619  10.009   1.667  0.0002 -0.1781  0.0385
 3542W        W21066  11.866   9.479  13.222 -0.4731 -0.0656  0.1785
 3543W        W21067   1.989  11.578  17.156 -0.0409  0.0110 -0.1868
 3544W        W21068  11.613   7.040  15.438 -0.2712  0.0978  0.0336
 3545W        W21069   7.826   2.265   0.658  0.0143 -0.1877 -0.0182
 3546W        W21070   6.516  13.183   1.518 -0.0111 -0.2071  0.2048
 3547W        W21071   6.972  13.913   1.457  0.0702 -0.0610 -0.0577
 3548W        W21072  14.968  12.026   0.577  0.0091 -0.0055 -0.1019
 3549W        W21073   5.995   5.740  14.013 -0.0659 -0.0260 -0.0782
 3550W        W21074   3.151   4.392  15.498  0.1612 -0.0549 -0.0399
 3551W        W21075   4.246   2.977  13.752  0.3741 -0.0866  0.0374
 3552W        W21076  16.151   9.811   2.207  0.0915  0.2096 -0.0183
 3553W        W21077   6.860   6.711  12.687 -0.0071  0.2898  0.1867
 3554W        W21078  10.323   4.990  12.170  0.0614  0.1027 -0.1878
 3555W        W21079   7.093  12.615  14.871  0.0142  0.1696  0.1747
 3556W        W21080   0.683  12.221  15.978 -0.0114  0.1263 -0.0727
 3557W        W21081  10.217   7.203   3.679 -0.1656  0.2431  0.0402
 3558W        W21082   6.857   2.358  13.395  0.0856 -0.0679  0.3263
 3559W        W21083   8.863   5.799   2.236  0.1048  0.0090  0.0649
 3560W        W21084   5.994  14.815  13.755 -0.1107 -0.1806  0.0109
 3561W        W21085   2.289   2.324  15.685 -0.0223  0.0089  0.0056
 3562W        W21086   7.524  11.607   1.935 -0.0999  0.2315  0.3782
 3563W        W21087   5.071   5.597  15.046  0.2081  0.2635 -0.0798
 3564W        W21088  14.504  14.589   2.381 -0.1432 -0.2258  0.1901
 3565W        W21089   8.231   0.372   4.942  0.0588  0.0951  0.3027
 3566W        W21090   1.467   5.007   3.548 -0.3526 -0.1901 -0.1392
 3567W        W21091  13.762   7.760   3.225  0.2097 -0.2379  0.1650
 3568W        W21092   5.164   0.166  15.212  0.1210 -0.0935  0.0222
 3569W        W21093  12.547  10.082  17.710 -0.2912  0.0076 -0.3480
 3570W        W21094   6.117   6.448   5.209 -0.1877 -0.0758  0.1325
 3571W        W21095  10.570   0.154   2.465 -0.3617  0.0255 -0.3232
 3572W        W21096   2.338   8.962   2.358 -0.0814  0.0816 -0.0005
 3573W        W21097  14.039   3.375   3.962  0.0045 -0.0630  0.0935
 3574W        W21098   2.471   4.640   5.181  0.2489  0.1555 -0.2676
 3575W        W21099  13.300  11.195   1.735  0.0382 -0.1466  0.0024
 3576W        W21100  15.019   6.040  15.422  0.0546  0.1400  0.0025
 3577W        W21101   6.639   6.434   0.333 -0.1731 -0.0464  0.1739
 3578W        W21102   8.518   3.665  15.156  0.1141  0.3102  0.1520
 3579W        W21103   8.162   9.533  12.281 -0.1646 -0.4352 -0.1854
 3580W        W21104  15.633  15.218   2.447  0.2260 -0.1476  0.0334
 3581W        W21105  10.562   8.933  15.682  0.1900  0.0515 -0.3196
 3582W        W21106   7.140   5.866  12.270  0.1271  0.1338 -0.2096
 3583W        W21107  14.632   9.325  15.315  0.1993 -0.0178 -0.2067
 3584W        W21108   3.196   4.452   5.846  0.4075  0.0156 -0.3808
 3585W        W21109  11.192   7.313  14.093  0.0236  0.0969  0.2746
 3586W        W21110  14.026  10.611   5.314 -0.0469 -0.1152  0.2076
 3587W        W21111  13.622  11.989   3.601  0.2219  0.0221 -0.1214
 3588W        W21112  11.011  11.069   3.221 -0.2985 -0.0614  0.1268
 3589W        W21113  14.226  15.013  15.803 -0.1722 -0.0690 -0.0437
 3590W        W21114  16.489   4.992   4.060 -0.2382  0.0492 -0.2059
 3591W        W21115  15.044   1.815   1.438 -0.1479 -0.0661 -0.3334
 3592W        W21116  14.752  13.252  16.093  0.0586 -0.2870 -0.2179
 3593W        W21117   2.546   1.163  17.181  0.1831  0.0583 -0.3227
 3594W        W21118  12.590  14.070  12.651  0.0765  0.0877  0.2163
 3595W        W21119   2.816  13.637  16.592 -0.0935  0.2298 -0.1570
 3596W        W21120   8.118   8.537   3.286 -0.2006 -0.2906 -0.1944
 3597W        W21121   9.770  13.702   4.135 -0.1615  0.0359 -0.0862
 3598W        W21122  13.371   3.219   2.303 -0.1539  0.1835 -0.1312
 3599W        W21123  14.289   7.684  15.602 -0.2490  0.3918  0.0246
 3600W        W21124   5.578   6.972   4.149 -0.1391  0.4298  0.1421
 3601W        W21125  12.021   2.420  14.425  0.0705 -0.1145 -0.0782
 3602W        W21126  16.692  12.285   2.356  0.1948  0.0750 -0.0737
 3603W        W21127  12.199  13.660  11.934 -0.0467 -0.0847 -0.1177
 3604W        W21128  11.435  10.348  13.775 -0.0588  0.2567 -0.2189
 3605W        W21129   8.329   7.885   2.783 -0.6129 -0.0238 -0.0374
 3606W        W21130   0.827  16.849  17.177  0.0296  0.1223 -0.0050
 3607W        W21131   3.676   0.897  14.615  0.1143 -0.1568  0.1475
 3608W        W21132   6.580   2.723  14.076  0.1317  0.1491 -0.3485
 3609W        W21133  17.096   6.161   5.886 -0.0196  0.0187 -0.0898
 3610W        W21134  12.120  14.587   0.991  0.1404 -0.2978  0.0971
 3611W        W21135  12.162   8.746   3.015 -0.1507 -0.0277  0.0517
 3612W        W21136   7.006   8.887  14.083 -0.0640 -0.1050  0.0616
 3613W        W21137  10.637  14.497  15.374  0.1960  0.1390 -0.0664
 3614W        W21138   5.021   7.558   4.564  0.1404 -0.0540 -0.0987
 3615W        W21139  12.002   3.926  17.079  0.1881  0.2942  0.0632
 3616W        W21140  12.305   2.528   2.452  0.1076  0.0744  0.0674
 3617W        W21141   3.484   2.332   2.042 -0.0411  0.0652 -0.3242
 3618W        W21142  12.074  12.069   4.659 -0.1186  0.3260 -0.1026
 3619W        W21143  16.254  10.365  12.108  0.1413 -0.1358 -0.0373
 3620W        W21144  11.505  13.944  14.425 -0.0588  0.1569 -0.0875
 3621W        W21145   1.350   6.257   0.019  0.2675  0.1515 -0.0685
 3622W        W21146   8.379   3.919   0.010  0.5260  0.2302  0.2828
 3623W        W21147   5.678   0.323  15.918 -0.1780  0.1125 -0.3760
 3624W        W21148   3.944   8.435   0.227 -0.3240 -0.0126 -0.0180
 3625W        W21149  14.616  14.973   2.662  0.3909  0.1488  0.2321
 3626W        W21150  14.904   5.611   2.749  0.0905 -0.4303  0.0159
 3627W        W21151  14.401   2.937   2.265 -0.1519 -0.0282 -0.2532
 3628W        W21152   6.878   1.709  17.333 -0.3315  0.0995 -0.1727
 3629W        W21153   6.078  14.396  12.556 -0.3395  0.2069 -0.1229
 3630W        W21154   7.147   2.429   6.520 -0.0550  0.2733 -0.2289
 3631W        W21155  16.162  16.311  12.636 -0.1055 -0.1585  0.0907
 3632W        W21156   8.210   5.317   4.034 -0.1488 -0.0701  0.1492
 3633W        W21157  15.094  15.208   4.826  0.0897  0.1343  0.1004
 3634W        W21158  16.224  15.617   1.823 -0.1107 -0.2066  0.1389
 3635W        W21159   4.508   9.637  17.036  0.2776  0.0438  0.2812
 3636W        W21160   6.034   9.260   4.749  0.1758  0.1248  0.1868
 3637W        W21161  15.888   8.555  13.788  0.1424 -0.0254  0.0934
 3638W        W21162  13.121   9.098   0.124 -0.0731 -0.0269 -0.0805
 3639W        W21163  10.424   6.444  17.503 -0.0487  0.3390  0.0391
 3640W        W21164   1.358  15.941  16.155 -0.1050  0.1077  0.1973
 3641W        W21165  15.791   9.442  17.590  0.2966 -0.0516  0.0507
 3642W        W21166   0.536   2.511   2.106  0.1432  0.0546  0.4310
 3643W        W21167   7.963  13.383  12.282  0.1779 -0.3391  0.0190
 3644W        W21168   2.056  16.730   3.223 -0.5430  0.0206  0.3023
 3645W        W21169  15.822   6.718   2.893  0.2648  0.1853  0.0634
 3646W        W21170  11.832   4.632  13.819 -0.1236 -0.0568  0.2851
 3647W        W21171   7.382  15.431   1.088  0.0244 -0.0963  0.1903
 3648W        W21172  10.779  10.734   4.319 -0.2570 -0.0760  0.1260
 3649W        W21173  10.652   2.294  13.140  0.0631 -0.1239  0.2276
 3650W        W21174  15.865   2.062  15.986  0.1544  0.1878 -0.2591
 3651W        W21175   4.245   0.656   5.384 -0.2770 -0.0262 -0.0298
 3652W        W21176   1.037  12.297   2.695 -0.4004 -0.1511 -0.0831
 3653W        W21177   0.670   3.272   2.239  0.0379 -0.1174 -0.3518
 3654W        W21178  16.314  12.945   3.439 -0.0443 -0.5030 -0.1496
 3655W        W21179   0.272  14.856   1.872 -0.0146  0.2631 -0.1287
 3656W        W21180  13.751  13.475  13.243  0.0193  0.0815  0.1222
 3657W        W21181   1.010   1.022  14.535 -0.0885 -0.2149 -0.0209
 3658W        W21182  10.817   8.347  15.140  0.1105 -0.0973 -0.1236
 3659W        W21183   4.313  11.361  14.964  0.1979 -0.1503 -0.1123
 3660W        W21184   1.408   0.491  14.699  0.1257  0.0214 -0.0396
 3661W        W21185   6.304   0.288  14.410  0.0608 -0.3456 -0.0858
 3662W        W21186  10.526   6.373  14.659 -0.1757 -0.1326 -0.0828
 3663W        W21187  12.215   3.990  14.827 -0.1422 -0.1029  0.1992
 3664W        W21188   9.442  15.986   2.083  0.0350 -0.1447  0.0828
 3665W        W21189  16.168   9.066  13.287  0.0196 -0.1588  0.3538
 3666W        W21190  13.998   7.604   3.737 -0.0543 -0.1106 -0.1019
 3667W        W21191  14.942   1.777   3.884 -0.0894  0.1408 -0.0660
 3668W        W21192  11.378   0.007   1.391  0.1613  0.0539  0.1251
 3669W        W21193   7.308   7.372  16.794 -0.0194  0.0174  0.1756
 3670W        W21194   6.377   5.962   2.231 -0.2262 -0.1614 -0.0443
 3671W        W21195  10.506  11.853  13.493 -0.0987  0.2705 -0.1210
 3672W        W21196   7.940   8.551  17.041  0.1167  0.1103 -0.3840
 3673W        W21197  13.466  17.060   0.003  0.0977 -0.0284  0.1391
 3674W        W21198   5.688  13.670   2.768 -0.0807  0.0902  0.1176
 3675W        W21199  17.053   2.217   1.264 -0.2268 -0.0285 -0.2805
 3676W        W21200   0.912   1.842   0.266  0.0101 -0.2855 -0.1539
 3677W        W21201   4.726   4.614  16.069 -0.0514 -0.1379  0.1420
 3678W        W21202  15.209  16.452  13.506 -0.1095 -0.0911 -0.1188
 3679W        W21203  12.879   8.639  17.705 -0.0899  0.2013  0.0885
 3680W        W21204  15.727  12.856  16.306 -0.1612 -0.4459 -0.0110
 3681W        W21205   2.201   5.608   3.532 -0.3213  0.3035 -0.0629
 3682W        W21206  11.666   5.472  17.626  0.0499 -0.3090 -0.0222
 3683W        W21207  10.872  10.597   5.694  0.1163  0.0425  0.0867
 3684W        W21208   1.569   0.775  12.690 -0.1457  0.0326  0.0073
 3685W        W21209  10.643  12.064   0.507  0.0149 -0.0169 -0.1039
 3686W        W21210   2.239   6.603  13.998 -0.0650 -0.2131 -0.1018
 3687W        W21211  15.392  13.401  17.607  0.1411 -0.0587  0.0854
 3688W        W21212   2.157  14.985  14.922 -0.0684 -0.1018  0.0885
 3689W        W21213  14.476   1.399   3.108 -0.1479  0.2684  0.1914
 3690W        W21214   2.077   9.017  13.117  0.0204 -0.0412 -0.1178
 3691W        W21215  12.101  13.003  16.854  0.2131 -0.1645  0.0490
 3692W        W21216   1.251   5.548  12.404  0.0868  0.1522  0.0853
 3693W        W21217  10.290  13.299   4.982  0.0135 -0.1246 -0.2510
 3694W        W21218   1.299   8.237   4.843  0.1709 -0.1359 -0.0607
 3695W        W21219  13.908   9.024   1.403  0.0501 -0.1933 -0.2043
 3696W        W21220   4.888   3.598   5.184  0.0134 -0.3694 -0.1709
 3697W        W21221  10.822   1.488   0.425  0.0767  0.0020 -0.0973
 3698W        W21222   4.873  10.351  13.574 -0.0339  0.0524  0.3365
 3699W        W21223   2.838   6.386  16.416 -0.2015  0.1751 -0.2215
 3700W        W21224   9.785   7.028  17.343  0.3743 -0.1119 -0.1772
 3701W        W21225  14.528   8.341  14.524 -0.0372  0.1865 -0.2223
 3702W        W21226  11.832  14.699   2.053  0.0120  0.2162  0.0616
 3703W        W21227   3.976   2.909   3.207 -0.3526 -0.0844  0.0269
 3704W        W21228   6.376   3.333   3.698 -0.2300  0.1424 -0.0118
 3705W        W21229  10.108  10.550  13.332  0.3505  0.1536  0.1056
 3706W        W21230   6.811   0.114   5.204  0.2224  0.2023  0.0394
 3707W        W21231  10.519   1.385  13.148  0.0731 -0.0882 -0.2775
 3708W        W21232  13.139  10.661  15.582  0.0051 -0.0661 -0.2848
 3709W        W21233  15.622   8.160   3.766 -0.2627 -0.0172 -0.0369
 3710W        W21234   6.328  11.711  12.744 -0.0833  0.1848 -0.0786
 3711W        W21235  14.733  15.885  16.570  0.1187  0.1635 -0.0790
 3712W        W21236  10.726   8.935  14.422 -0.0483 -0.3251  0.3204
 3713W        W21237   2.996  15.804   4.803 -0.2680  0.0577 -0.5433
 3714W        W21238  16.278   0.422  15.606 -0.4201  0.1511  0.1176
 3715W        W21239   0.033   2.366   3.688  0.2307  0.0046 -0.2471
 3716W        W21240   7.313   8.540   2.585 -0.0578  0.1167  0.0634
 3717W        W21241   9.190   3.374   0.386  0.0858  0.1167  0.0399
 3718W        W21242   9.856   8.789  16.314  0.0055  0.0700  0.2042
 3719W        W21243  12.677   4.954  14.698 -0.4072  0.2712  0.0163
 3720W        W21244   9.289   2.057  15.017 -0.2979 -0.1277 -0.1905
 3721W        W21245   3.089   9.691  14.111 -0.0948 -0.1154  0.0920
 3722W        W21246   5.362   6.657  17.601 -0.2090 -0.0225  0.2234
 3723W        W21247   7.221   5.120   2.270 -0.2782  0.0458  0.1523
 3724W        W21248   4.852  11.201   1.424  0.0245 -0.2334 -0.0724
 3725W        W21249  11.361   7.697  12.248  0.2214  0.0242 -0.0059
 3726W        W21250  10.756   6.324   2.419 -0.1926 -0.0649  0.2560
 3727W        W21251   2.546   1.058  16.370  0.1197 -0.0330  0.0648
 3728W        W21252   5.660   2.591  15.552  0.0355 -0.1923  0.3916
 3729W        W21253  13.105  14.757   0.531 -0.3231  0.0027  0.1119
 3730W        W21254   0.861   5.052  15.916  0.2247 -0.3230 -0.0184
 3731W        W21255  11.656  12.353   0.756  0.0577  0.0348  0.1443
 3732W        W21256   9.044   2.854   0.539  0.0302 -0.0105  0.0041
 3733W        W21257   3.988   2.355   1.567 -0.1702 -0.1426 -0.0593
 3734W        W21258  11.339   1.471  14.053 -0.1173 -0.0059  0.0685
 3735W        W21259   3.402   0.134   5.128  0.0547  0.0012  0.0748
 3736W        W21260   4.331   0.434   3.550 -0.1276 -0.1120  0.0542
 3737W        W21261  16.018  16.325   0.777 -0.0282  0.0924 -0.2644
 3738W        W21262   1.512  12.298  15.991  0.2185 -0.1667  0.2774
 3739W        W21263   0.631   9.001   5.205  0.0035 -0.0196 -0.0168
 3740W        W21264  16.749  15.344  14.641  0.3010  0.2083 -0.0255
 3741W        W21265  11.185   3.791   3.178  0.1031  0.1108  0.0603
 3742W        W21266  13.083   6.249  12.762  0.0719 -0.0744 -0.2130
 3743W        W21267   1.499   4.413   5.774  0.3260  0.2305 -0.0351
 3744W        W21268   2.502  11.372  16.490 -0.1446 -0.1533  0.1401
 3745W        W21269   8.413   8.293  16.217  0.0633  0.0131 -0.1760
 3746W        W21270   4.893   1.864   2.268  0.1756  0.0832 -0.1104
 3747W        W21271  14.426  15.556  14.108  0.0127 -0.2859  0.1090
 3748W        W21272  15.802  16.504   1.940  0.0631  0.1349 -0.3125
 3749W        W21273  10.461  15.766  13.565 -0.0991 -0.1515  0.3397
 3750W        W21274  16.853  12.945   4.716 -0.2504  0.1075 -0.1247
 3751W        W21275   9.523   7.117  16.162 -0.0743 -0.0715  0.1544
 3752W        W21276  13.198   2.140   5.795  0.0827 -0.0408 -0.0116
 3753W        W21277   2.768   8.548   5.104  0.0857 -0.2104  0.1783
 3754W        W21278   5.253   1.516   3.478  0.1320  0.0116 -0.1399
 3755W        W21279   1.525   0.176   5.586 -0.4122 -0.3582 -0.1476
 3756W        W21280   0.147  16.143  12.798  0.0575  0.2866 -0.0396
 3757W        W21281   7.737   7.984   2.572  0.1477 -0.0487 -0.1213
 3758W        W21282  12.243  10.271   1.916 -0.0601 -0.0519 -0.1297
 3759W        W21283   9.067   1.442  12.372 -0.0143 -0.0082 -0.2812
 3760W        W21284  11.418  16.868  16.616 -0.2794  0.1942  0.0212
 3761W        W21285   2.802   8.473   1.231 -0.3303 -0.0754 -0.1318
 3762W        W21286   6.206  13.894  16.566  0.1034  0.1569  0.0017
 3763W        W21287  16.342  10.491   3.455  0.0342 -0.1273  0.0242
 3764W        W21288   3.306   2.031   3.527 -0.1192  0.0817  0.0665
 3765W        W21289   8.029  11.173   1.402 -0.0576  0.2681  0.0062
 3766W        W21290  15.124   9.416  15.446  0.0833 -0.0817  0.1523
 3767W        W21291  11.455  16.429   5.381 -0.0594 -0.2061 -0.0845
 3768W        W21292   6.844  14.590  11.497 -0.1084 -0.1396 -0.0579
 3769W        W21293   6.247   7.710  17.026 -0.1243 -0.1234 -0.0903
 3770W        W21294   9.835   5.852   2.600 -0.2540  0.6799  0.0057
 3771W        W21295   9.545   9.120   0.491 -0.3173  0.1254  0.1237
 3772W        W21296   7.119   5.643  13.692  0.1711 -0.0546 -0.1448
 3773W        W21297  12.451  11.236  15.095  0.1275  0.1816  0.2321
 3774W        W21298   4.102   9.685  17.414  0.0782 -0.0340  0.1548
 3775W        W21299   6.408  13.653  14.723 -0.2165  0.0009  0.5113
 3776W        W21300  13.393   0.077   5.332 -0.2071 -0.2188 -0.6635
 3777W        W21301  13.659  15.997  14.783  0.2613  0.0760 -0.3295
 3778W        W21302   4.273  10.176  13.762 -0.1819  0.0286  0.2302
 3779W        W21303   0.484   2.772  13.284  0.0243  0.1811  0.2998
 3780W        W21304   9.935  16.660  11.862  0.0723 -0.2604 -0.0649
 3781W        W21305  12.569  11.061   0.076 -0.0274 -0.2678 -0.0311
 3782W        W21306  11.169   7.279   3.328 -0.4019  0.1114  0.0907
 3783W        W21307   4.112   9.802  15.068  0.0634  0.3032 -0.0865
 3784W        W21308  15.301  11.558   3.966  0.1790 -0.0369 -0.1039
 3785W        W21309   1.208   4.639  14.128 -0.1320 -0.0066  0.1710
 3786W        W21310  11.587   3.316   5.833  0.0337 -0.1483  0.0088
 3787W        W21311  16.962   6.880   2.098  0.1733  0.1300 -0.1102
 3788W        W21312   8.284   6.015   0.135 -0.0044  0.0545  0.1923
 3789W        W21313   8.416   4.878  15.930  0.0815  0.1921  0.3300
 3790W        W21314  15.287   0.344  13.396  0.0782 -0.2160  0.0343
 3791W        W21315   7.243   2.534  15.783  0.1581 -0.0872 -0.2843
 3792W        W21316   4.646   9.161   5.411 -0.0507 -0.0476  0.2862
 3793W        W21317  12.585   4.801   4.065  0.0141 -0.2691 -0.0489
 3794W        W21318  13.459   6.384   4.297 -0.1812  0.3666  0.1278
 3795W        W21319   9.771  11.277  17.599  0.0318  0.1535 -0.1299
 3796W        W21320   6.943   3.788   1.917  0.0065 -0.0444 -0.3719
 3797W        W21321  15.297   6.715   5.485 -0.1956  0.0413 -0.1168
 3798W        W21322  11.338  13.403  16.946 -0.0019 -0.0082 -0.2679
 3799W        W21323  14.500  14.601  15.792 -0.0659 -0.0239  0.1222
 3800W        W21324  11.909  14.416   0.522 -0.1564 -0.1708  0.0865
 3801W        W21325  14.192  13.760   3.385  0.5435  0.1390 -0.0213
 3802W        W21326   4.360  11.980  16.968 -0.0254  0.0592  0.1181
 3803W        W21327  14.747   7.048   3.614  0.0375  0.3187  0.0847
 3804W        W21328  13.203   3.151   5.561 -0.2728  0.0546 -0.1197
 3805W        W21329   0.139   8.974  15.519 -0.1290  0.3241  0.1327
 3806W        W21330   6.528   8.937  12.487 -0.1192 -0.1516  0.0956
 3807W        W21331  15.982   6.735  13.474 -0.0765 -0.3002  0.0048
 3808W        W21332   6.017   5.833   4.155  0.0488 -0.1147  0.2144
 3809W        W21333   5.597   9.131  11.346 -0.0012  0.0191  0.1620
 3810W        W21334  13.127   8.579  16.554  0.0930 -0.0807  0.1395
 3811W        W21335  15.576   8.686   1.566  0.0444 -0.2319 -0.1372
 3812W        W21336  15.520   5.607   5.328  0.1923 -0.0086 -0.2755
 3813W        W21337   1.889   7.208   2.633  0.0233 -0.2727 -0.3029
 3814W        W21338   3.924   8.817  13.518  0.0683  0.1110 -0.0025
 3815W        W21339   5.729   2.245  15.237  0.2355 -0.1618 -0.0305
 3816W        W21340  11.168   0.708  12.250 -0.0221  0.2627  0.0718
 3817W        W21341   9.109   4.535  16.123  0.0384 -0.0607 -0.4214
 3818W        W21342  16.506   9.366   4.475  0.0363 -0.1210 -0.0575
 3819W        W21343   7.244  10.021   2.238 -0.3835 -0.3237  0.1469
 3820W        W21344   7.909   9.297  13.130 -0.1400  0.1147  0.5345
 3821W        W21345  11.030   6.536  12.171 -0.1603  0.3759  0.2384
 3822W        W21346   3.314  16.733   0.924 -0.0534 -0.0273 -0.3714
 3823W        W21347  10.006   6.080  17.204  0.1585  0.3026 -0.1012
 3824W        W21348  14.226  10.522   0.347  0.2128  0.2389  0.1200
 3825W        W21349   5.166   7.771   0.110  0.1411  0.0653  0.0079
 3826W        W21350   1.748  10.049   4.580  0.0350  0.1149 -0.0334
 3827W        W21351  14.692   3.795   5.870 -0.0470  0.3086  0.0648
 3828W        W21352   8.265   9.009  14.144 -0.0363  0.4209  0.0002
 3829W        W21353   1.145  13.223   5.743 -0.2341  0.3296 -0.3440
 3830W        W21354  11.101  16.940   3.650  0.0300  0.1089 -0.2019
 3831W        W21355  12.165  12.294   3.821 -0.0968 -0.0495  0.3288
 3832W        W21356   1.747  13.378   3.180 -0.1843 -0.2858  0.2167
 3833W        W21357  15.072   8.696   0.031  0.2737  0.0552 -0.1447
 3834W        W21358   9.232  10.054  14.833 -0.1533  0.0915 -0.3445
 3835W        W21359   7.555  10.613   4.335  0.1427 -0.1916  0.0353
 3836W        W21360   7.067  14.953  13.991 -0.1062  0.3244  0.2306
 3837W        W21361   4.536   2.490  15.779  0.0540  0.0910  0.0690
 3838W        W21362   1.341  14.352  14.411 -0.0536  0.1325  0.1175
 3839W        W21363   7.924  11.523  14.630 -0.0474  0.0531  0.2002
 3840W        W21364   6.433   7.027  13.984 -0.0830 -0.0904  0.1088
 3841W        W21365   7.052  13.659  16.917 -0.1438 -0.0802 -0.2889
 3842W        W21366  16.690   9.432   2.296  0.1291 -0.2071 -0.0511
 3843W        W21367  11.949   0.918   0.832 -0.1012  0.1193  0.0111
 3844W        W21368   4.681   8.594  12.859  0.1630 -0.0726  0.1426
 3845W        W21369   2.745   4.525  17.070  0.1287  0.0187 -0.1563
 3846W        W21370  12.403   8.697  16.866  0.1455  0.0422 -0.1421
 3847W        W21371   6.025   8.945  11.735  0.2148 -0.1028 -0.0963
 3848W        W21372   3.064  11.935   1.247 -0.3815  0.2970  0.0120
 3849W        W21373   6.415  10.402  15.157 -0.0989  0.0385  0.2590
 3850W        W21374  14.650  13.364   5.445 -0.0465  0.1454  0.1268
 3851W        W21375  12.657   7.076  15.659 -0.0757 -0.3112  0.2382
 3852W        W21376  10.725   8.952  17.728  0.1671 -0.0022  0.1112
 3853W        W21377  11.702   4.958  15.745  0.2808 -0.1819 -0.2669
 3854W        W21378  15.682   3.712  16.380  0.0165  0.0922  0.0732
 3855W        W21379   6.365   6.244  13.673  0.0149  0.0192  0.0739
 3856W        W21380  10.907  14.778  16.236  0.0282 -0.1922  0.0929
 3857W        W21381   4.494  10.844   1.539  0.2275  0.0790  0.0518
 3858W        W21382   1.135  13.689  16.431  0.0547 -0.3414 -0.1156
 3859W        W21383  11.142   1.009   5.572  0.0045 -0.1409 -0.0937
 3860W        W21384   5.018  10.430   5.088 -0.1315  0.1657 -0.1314
 3861W        W21385   6.458  15.862  12.414 -0.2622 -0.1159 -0.1193
 3862W        W21386  10.916  15.600  14.725 -0.1287  0.0999 -0.0726
 3863W        W21387  13.466  15.442  17.318  0.1367 -0.1717  0.0043
 3864W        W21388   2.511   7.802   4.526 -0.3489  0.1536  0.0941
 3865W        W21389   3.090  12.879  14.028 -0.2262 -0.1345 -0.0955
 3866W        W21390  14.707   3.416  12.571  0.0503  0.1499 -0.0016
 3867W        W21391  11.495   5.324  16.656 -0.0676 -0.1145 -0.0747
 3868W        W21392  15.346  10.097  15.097  0.2023  0.1973 -0.1526
 3869W        W21393   6.437   3.563  13.564  0.2592  0.0648  0.0268
 3870W        W21394   9.400  14.227  15.885  0.1070 -0.1063 -0.0862
 3871W        W21395  16.051  13.685   3.602 -0.0098 -0.0943  0.0388
 3872W        W21396   7.509   3.852   0.401 -0.2698 -0.0436 -0.0687
 3873W        W21397  13.697  12.562   3.604  0.1144 -0.0640 -0.0863
 3874W        W21398  12.175   4.010   2.421  0.2829 -0.1500  0.3161
 3875W        W21399  11.096  16.264  12.797  0.2035  0.3044 -0.1470
 3876W        W21400  14.042   4.128   0.937  0.2119 -0.3624 -0.2332
 3877W        W21401  15.319   9.602  12.708  0.2444 -0.1295  0.3042
 3878W        W21402  13.072   4.786  15.130 -0.0714  0.0876  0.3936
 3879W        W21403  13.670   0.448   5.345 -0.0962 -0.0728  0.0048
 3880W        W21404  11.169   0.375  12.718 -0.5221 -0.1763  0.0507
 3881W        W21405  15.677   4.935   3.536 -0.1148  0.1353 -0.2981
 3882W        W21406  11.160   6.868   1.907 -0.0727 -0.3414  0.1163
 3883W        W21407   7.775   8.761  15.949  0.0359  0.1069  0.2360
 3884W        W21408   1.830  16.233  17.657  0.0104 -0.2905 -0.0873
 3885W        W21409   1.923  12.325   0.133  0.2063 -0.1411 -0.0756
 3886W        W21410   2.273   4.522  16.620 -0.1100  0.2272 -0.1529
 3887W        W21411  14.375   5.605   3.244  0.0139  0.0730 -0.0350
 3888W        W21412  15.853   4.431   3.627  0.3910 -0.0101  0.0686
 3889W        W21413  10.758   9.709  17.463 -0.0572 -0.1304 -0.2424
 3890W        W21414   6.472  15.728  12.924 -0.1351 -0.0246 -0.0724
 3891W        W21415   2.044   6.862  11.665 -0.0267 -0.0943  0.0905
 3892W        W21416   3.184   6.553  11.197 -0.1598 -0.0466 -0.0408
 3893W        W21417  14.255   8.160   3.987 -0.1564 -0.1956 -0.3909
 3894W        W21418   6.053   1.819   5.749 -0.0872  0.1630 -0.2165
 3895W        W21419   3.194  13.892  15.296 -0.0592 -0.4556  0.1240
 3896W        W21420  13.062  15.737  17.697 -0.0251  0.0034 -0.0154
 3897W        W21421  12.684   8.434  15.137 -0.0362  0.1850 -0.0503
 3898W        W21422   7.060   5.880   4.995 -0.2773 -0.0098 -0.3310
 3899W        W21423  13.946   1.422   0.603 -0.2290 -0.1533 -0.2052
 3900W        W21424  10.104   2.183  17.424 -0.1085 -0.0578  0.4662
 3901W        W21425   8.298  12.933   4.365 -0.1885  0.2580 -0.0426
 3902W        W21426   0.071  12.768   0.177 -0.2411  0.1460 -0.3024
 3903W        W21427   2.439   4.383   3.576 -0.0755  0.3075 -0.2483
 3904W        W21428  14.802   9.524   4.934  0.1165 -0.0531  0.1018
 3905W        W21429  10.939  13.454  13.843  0.3068  0.2514 -0.0781
 3906W        W21430  15.108   5.137   4.457 -0.2171 -0.0338  0.0028
 3907W        W21431   4.963  15.793  12.820  0.0186 -0.0876 -0.0000
 3908W        W21432  12.986  13.615  17.727  0.1525 -0.0581 -0.0947
 3909W        W21433  15.249   0.081   2.353  0.0661 -0.0783 -0.0970
 3910W        W21434   1.675   9.453   4.338  0.1236  0.0189  0.2046
 3911W        W21435   8.649  11.645   5.359  0.0175  0.2571 -0.2336
 3912W        W21436   1.328   2.838  13.579 -0.0495  0.0747  0.3557
 3913W        W21437   2.851  16.287   0.298 -0.1174  0.0868 -0.1407
 3914W        W21438  10.353  16.906   4.616  0.0317  0.1799  0.1976
 3915W        W21439   4.529   5.771   2.158  0.0985  0.1857  0.0511
 3916W        W21440   5.679   7.136  17.324 -0.0927  0.1325  0.1766
 3917W        W21441  11.981   7.386  16.941 -0.3005 -0.1503 -0.4298
 3918W        W21442   6.678  16.091  13.320 -0.2261 -0.0578 -0.0507
 3919W        W21443   9.398  12.472   3.673  0.0876  0.1140  0.0344
 3920W        W21444  15.660  11.065  13.502  0.2497 -0.0359 -0.0931
 3921W        W21445  10.144  16.520  16.174  0.2497 -0.0502  0.2471
 3922W        W21446  14.113   3.404   0.120 -0.3257 -0.0274 -0.2477
 3923W        W21447   2.543  13.740  15.467  0.1268 -0.0823 -0.0695
 3924W        W21448  11.283   6.849  17.366 -0.1601  0.1462  0.0502
 3925W        W21449  15.076  16.624  15.014  0.1548  0.2608  0.0315
 3926W        W21450   0.876   9.338   0.630  0.0860  0.0710  0.3421
 3927W        W21451   3.436  13.017   5.811 -0.1313  0.0481  0.0370
 3928W        W21452   9.455  14.250   2.259 -0.0851 -0.3905  0.1562
 3929W        W21453   9.792   5.361   2.292 -0.0115 -0.0408 -0.0688
 3930W        W21454   0.249  14.204  17.637 -0.0040  0.1274 -0.0691
 3931W        W21455  11.000  15.306   2.111  0.2977 -0.1564  0.1947
 3932W        W21456  10.096  14.630  16.085 -0.0035  0.0923 -0.2990
 3933W        W21457   1.962   8.822  15.866 -0.2415  0.4529 -0.2790
 3934W        W21458   8.406   0.649  15.343  0.2905 -0.1522 -0.0133
 3935W        W21459  11.743   1.823  14.287  0.1875 -0.0436  0.0588
 3936W        W21460  15.277  15.193  16.990 -0.0404 -0.0482 -0.0237
 3937W        W21461  15.404   8.818  14.600 -0.1879  0.2821  0.1734
 3938W        W21462  13.659   4.295   5.278  0.0462 -0.1295  0.2433
 3939W        W21463  15.367   1.862   2.538 -0.1355  0.0148  0.0678
 3940W        W21464   1.640   1.642   5.518 -0.2167  0.0554  0.2182
 3941W        W21465   8.282   8.677   4.731 -0.1353 -0.2642 -0.0585
 3942W        W21466  13.472   2.410  12.861  0.1289  0.2110  0.3468
 3943W        W21467  14.685   5.836   5.257  0.2727 -0.1733 -0.1624
 3944W        W21468   4.597  10.954  17.389 -0.0729  0.0704  0.2282
 3945W        W21469  14.144   2.760   1.846  0.1269  0.0622  0.0099
 3946W        W21470   4.466  15.029   1.647 -0.4028 -0.0945  0.0904
 3947W        W21471  11.598   1.421   2.532 -0.0813  0.1762  0.0498
 3948W        W21472   5.134   5.453   2.724 -0.0524 -0.2138 -0.2880
 3949W        W21473   6.886   3.942  15.149 -0.0999 -0.0691 -0.0922
 3950W        W21474   4.970  14.094   2.616  0.2699 -0.0542 -0.0514
 3951W        W21475  15.358   3.419   4.511 -0.1611 -0.1017  0.3646
 3952W        W21476   6.151   8.130  17.283 -0.0392 -0.1369  0.1560
 3953W        W21477  10.291  15.390   1.715  0.1446 -0.3012 -0.1671
 3954W        W21478  12.755   1.222  14.716 -0.0132 -0.2705  0.1163
 3955W        W21479   2.734   1.667  12.889 -0.2668  0.3123  0.1472
 3956W        W21480   1.916  15.287  13.587 -0.1998 -0.0495 -0.4741
 3957W        W21481  10.377   2.750  14.392  0.1482 -0.3586  0.0872
 3958W        W21482  14.778  15.677  17.601 -0.0485 -0.0875  0.0691
 3959W        W21483   7.038   6.275  14.222 -0.3128  0.0845  0.0268
 3960W        W21484   3.150   6.240   4.529 -0.2953 -0.0612  0.3105
 3961W        W21485   1.976   8.365   3.542 -0.1689 -0.1273 -0.0192
 3962W        W21486   1.521  15.588  13.565 -0.2390  0.0946 -0.4176
 3963W        W21487   4.009   4.099  15.207  0.2403 -0.1646  0.0538
 3964W        W21488   4.829   9.102  12.728 -0.3620  0.0726  0.1544
 3965W        W21489   8.937   9.742   2.597 -0.0709  0.0024  0.0018
 3966W        W21490   3.783   8.995   3.780 -0.1191 -0.2301 -0.0269
 3967W        W21491  13.050   9.179   1.322  0.1080  0.0774  0.2780
 3968W        W21492   2.297   0.267   0.274  0.1634 -0.1906  0.2252
 3969W        W21493  16.746   2.997  13.518  0.0841 -0.0263  0.0237
 3970W        W21494   9.581   4.738  14.830 -0.3300  0.0066  0.0075
 3971W        W21495   3.305   8.185  17.736  0.4103  0.0458  0.3094
 3972W        W21496   1.649   3.052   0.478  0.0461 -0.0470 -0.0076
 3973W        W21497   5.995   5.416   0.287  0.0630  0.3117 -0.3050
 3974W        W21498   3.461   6.071  12.480  0.0862  0.2662  0.0326
 3975W        W21499   3.579  10.193  16.138  0.1502 -0.3625  0.0413
 3976W        W21500   7.512   0.252  12.912 -0.0320  0.1791  0.0237
 3977W        W21501  13.782  11.286  14.643 -0.1789  0.0001  0.1016
 3978W        W21502  10.305   9.059   4.186  0.1234  0.0190 -0.0532
 3979W        W21503   7.757  12.458   2.192  0.1884 -0.1052 -0.2392
 3980W        W21504   3.622   7.059   0.862 -0.3602 -0.1887  0.1712
 3981W        W21505  11.788   4.102  13.734 -0.1933 -0.0935 -0.2308
 3982W        W21506   6.650  15.005  16.089  0.1576 -0.0106 -0.0254
 3983W        W21507   8.669  12.143  12.944  0.4200 -0.1415 -0.0340
 3984W        W21508   6.700   9.352  12.773 -0.0855  0.0924 -0.1931
 3985W        W21509  16.128   4.039   1.141 -0.2637  0.1462 -0.0261
 3986W        W21510   2.661   7.698   3.643 -0.1206  0.0988  0.3033
 3987W        W21511   4.308   7.305   5.968 -0.5113 -0.0594 -0.1458
 3988W        W21512  11.939  12.681  14.377  0.0295  0.1520 -0.1142
 3989W        W21513  12.953  15.463  17.251 -0.1019  0.2576 -0.2297
 3990W        W21514   6.153   2.391   4.058 -0.0438  0.5331  0.0803
 3991W        W21515  10.515  16.568   1.366  0.0504 -0.1931 -0.5152
 3992W        W21516   7.684  15.350  12.671  0.1416 -0.1375 -0.0824
 3993W        W21517  12.888  14.941  17.291  0.0151  0.0833 -0.2342
 3994W        W21518  12.313   1.292  17.200  0.3077  0.0441  0.2613
 3995W        W21519  16.212  13.237  17.215 -0.2977 -0.0190 -0.1088
 3996W        W21520   1.426   6.703   0.457 -0.0413  0.0007  0.1578
 3997W        W21521  11.620  12.157  16.090 -0.2720 -0.0271 -0.2714
 3998W        W21522   6.095   6.092  15.114  0.1751 -0.1956 -0.1650
 3999W        W21523   7.724  11.609  13.046  0.0709  0.2576  0.1252
 4000W        W21524   0.973  10.023  15.850 -0.1706  0.1445  0.1999
 4001W        W21525   0.971  13.616  16.874  0.2717 -0.2728  0.0304
 4002W        W21526  10.866  10.840   0.136 -0.1035  0.0955 -0.0079
 4003W        W21527   7.376   8.367   4.493  0.2811 -0.0174 -0.0535
 4004W        W21528   4.430   8.173   0.376  0.4213  0.0167 -0.0555
 4005W        W21529  13.185  16.148   5.425  0.1569 -0.1075  0.0645
 4006W        W21530   7.763   2.088   4.502  0.3411  0.0355 -0.2643
 4007W        W21531  15.326  10.310  16.389 -0.2036  0.1987 -0.1218
 4008W        W21532  12.438  15.323   2.000  0.0908 -0.0373 -0.1943
 4009W        W21533   3.874   9.846  13.804 -0.2077 -0.3494  0.1976
 4010W        W21534  10.367   0.149   2.935  0.2169  0.2657 -0.2352
 4011W        W21535  14.717  13.802   2.684 -0.0728 -0.1152  0.0454
 4012W        W21536  15.407  12.643  12.826 -0.0413 -0.0262 -0.0031
 4013W        W21537  12.557  13.055  16.694 -0.0009 -0.1042 -0.0447
 4014W        W21538  12.496   8.750  13.217 -0.3827  0.1826 -0.2415
 4015W        W21539   8.270   2.040   0.559  0.0221  0.0725  0.2040
 4016W        W21540  13.281  11.788  14.166 -0.0061  0.1466 -0.1913
 4017W        W21541  15.538  15.252  14.821  0.2015 -0.1697  0.3000
 4018W        W21542   3.809   8.487  13.939 -0.1550 -0.0386  0.0070
 4019W        W21543   3.467   3.591  13.645  0.1254  0.0925 -0.0933
 4020W        W21544  15.881   4.506   1.136  0.1055 -0.1763 -0.0273
 4021W        W21545   2.374   5.695  13.962  0.0491 -0.0427 -0.1640
 4022W        W21546  12.055   2.523  12.150 -0.1172  0.1601  0.1763
 4023W        W21547  11.491   9.729   2.954  0.0656 -0.2337  0.0785
 4024W        W21548  15.668  13.884  17.650  0.0442  0.3030  0.2944
 4025W        W21549   6.465   9.113   2.473 -0.0848 -0.0703  0.1469
 4026W        W21550  12.734  16.753  16.127  0.1722 -0.1986 -0.1828
 4027W        W21551   8.536   2.988   2.107 -0.4796 -0.1441 -0.0250
 4028W        W21552   6.872  11.803  15.284  0.0490  0.0045 -0.1776
 4029W        W21553   1.234   9.580  17.244  0.2194 -0.1530 -0.1698
 4030W        W21554  11.013  11.581   0.366 -0.1178 -0.1636 -0.2521
 4031W        W21555  10.012   6.938   0.385 -0.1283  0.0075  0.3222
 4032W        W21556  16.946  10.503   1.538 -0.0816  0.1378  0.3290
 4033W        W21557   3.232   9.346  17.415  0.3051  0.0706  0.2488
 4034W        W21558  12.626   8.381   0.865  0.0902  0.3781  0.0109
 4035W        W21559  15.267   7.465   2.743  0.0078  0.1905  0.0344
 4036W        W21560  10.662  17.079   4.281 -0.0747 -0.0190  0.1587
 4037W        W21561  14.672   0.581   1.570 -0.0114  0.0710 -0.1036
 4038W        W21562   9.498   0.778   4.811  0.0989 -0.0122  0.1164
 4039W        W21563  12.254  15.186  12.119  0.2782  0.1117  0.0264
 4040W        W21564  16.899  13.555   2.574  0.1232  0.2441 -0.0174
 4041W        W21565   2.033   4.939  12.493 -0.1036 -0.0629 -0.0072
 4042W        W21566  11.879  14.726  13.715 -0.0492  0.2455 -0.0039
 4043W        W21567   1.460  14.300  12.522 -0.1269 -0.1129 -0.4116
 4044W        W21568  13.916  13.144  14.970 -0.1496 -0.1753 -0.0871
 4045W        W21569  10.627  13.941  14.089  0.0998  0.2126  0.0095
 4046W        W21570   2.647  15.863  12.694 -0.4577 -0.1816 -0.2248
 4047W        W21571   6.999   9.648   3.466  0.1019 -0.0171 -0.1778
 4048W        W21572  15.953  12.140   0.666 -0.1939  0.1517 -0.0598
 4049W        W21573   8.965   8.917   0.369 -0.0948 -0.1321  0.1978
 4050W        W21574  13.569   1.540   2.629  0.0331  0.0035  0.2578
 4051W        W21575  12.956   7.599   5.376  0.1682 -0.0542 -0.1478
 4052W        W21576  10.992   3.693  11.475  0.1607  0.0757 -0.0165
 4053W        W21577   7.430   1.368  14.726 -0.2842 -0.2039  0.1069
 4054W        W21578   3.062   6.844  12.973 -0.0956 -0.0297 -0.3177
 4055W        W21579  15.685   1.035   2.149 -0.0290 -0.0169  0.2863
 4056W        W21580   8.031   5.202  17.515 -0.0798 -0.2068 -0.2160
 4057W        W21581  14.852  13.531  13.618  0.0277  0.1077 -0.2405
 4058W        W21582  14.202   1.815   7.197  0.0806 -0.2012  0.1988
 4059W        W21583  14.144  12.329  11.415 -0.0134  0.0554  0.3540
 4060W        W21584  11.961   9.048   2.615  0.2415  0.2244 -0.0822
 4061W        W21585   6.089   0.631   3.988  0.0142 -0.2772 -0.1119
 4062W        W21586   4.929  10.457   4.072  0.0230 -0.0633  0.0740
 4063W        W21587   5.420  14.161   2.937 -0.1001 -0.2304  0.0576
 4064W        W21588   2.862  12.941   2.749 -0.0232 -0.0849  0.1061
 4065W        W21589  10.723   9.690  13.554  0.1341  0.2079 -0.1081
 4066W        W21590   5.989   4.365  16.753  0.0042  0.3180 -0.0128
 4067W        W21591  14.176   5.210   4.810 -0.0434 -0.2437 -0.0552
 4068W        W21592   5.419  11.370   3.761  0.0801 -0.0493 -0.0462
 4069W        W21593   4.443   0.084   0.370  0.1076 -0.2292 -0.1695
 4070W        W21594   4.703  14.225  12.415 -0.3146  0.3199 -0.0576
 4071W        W21595  12.912   3.077  11.597  0.1066  0.1692 -0.3049
 4072W        W21596  12.333   3.587   4.743  0.0627  0.0952  0.1051
 4073W        W21597   8.705   8.166   4.872 -0.1527  0.2094  0.1837
 4074W        W21598   6.977   7.989   3.250  0.4091 -0.0946  0.0547
 4075W        W21599   6.051  13.552  16.156  0.0987 -0.2388 -0.1719
 4076W        W21600  17.013  16.231  16.838 -0.2271  0.1219  0.0482
 4077W        W21601  14.459  13.068  14.994 -0.2045  0.3712  0.0670
 4078W        W21602   6.438  11.881  14.719 -0.2302  0.0754  0.1369
 4079W        W21603   3.967  13.885  15.933  0.2270 -0.1409  0.1326
 4080W        W21604   0.925   4.841   0.529 -0.2237  0.1055  0.0476
 4081W        W21605  11.659   9.137   5.338 -0.3405 -0.0733 -0.0430
 4082W        W21606  16.217  16.583   1.594  0.1419  0.1049 -0.0230
 4083W        W21607   7.096  12.547   1.420  0.1596 -0.0431  0.3223
 4084W        W21608   1.000   3.943   5.535 -0.0038  0.0622  0.4000
 4085W        W21609  12.900  13.101   2.274 -0.0646 -0.1417 -0.1777
 4086W        W21610   8.008   4.401  14.060 -0.1933 -0.0207  0.3712
 4087W        W21611   7.723   7.223  15.614  0.1430  0.0234 -0.3316
 4088W        W21612   2.133  11.180   3.323 -0.2445 -0.1721  0.1017
 4089W        W21613   0.654   6.753   5.517 -0.3372 -0.1997  0.0631
 4090W        W21614  11.894  15.435   2.819  0.1928 -0.1186  0.1824
 4091W        W21615  11.203  13.777  17.709  0.1956  0.0299 -0.0019
 4092W        W21616   7.014  10.964   2.023  0.0236  0.0673  0.1792
 4093W        W21617   5.409  10.409   4.111  0.0932 -0.0334 -0.0199
 4094W        W21618   4.695   4.792   1.219 -0.2414 -0.0414  0.0172
 4095W        W21619  11.367   1.478   4.080  0.0313  0.0486  0.2370
 4096W        W21620   6.072  10.858  13.657 -0.2015 -0.0122  0.1208
 4097W        W21621  12.291  13.786  17.451 -0.1976 -0.1042  0.1704
 4098W        W21622  11.142   6.929   5.434 -0.1626  0.2850 -0.2176
 4099W        W21623  13.315  13.177  13.559  0.2878  0.0200  0.0835
 4100W        W21624   7.416   1.592   1.140  0.0613 -0.0480  0.1588
 4101W        W21625  14.671  12.392  17.428 -0.1399 -0.0280  0.2105
 4102W        W21626   5.657  14.108  16.934 -0.0778  0.0158 -0.2190
 4103W        W21627  10.040  15.578  12.194  0.3250  0.0580  0.1353
 4104W        W21628  10.963  10.196  15.466  0.0318  0.0265  0.0063
 4105W        W21629  10.719  16.005   2.631 -0.2888  0.1076  0.0824
 4106W        W21630   4.780   4.232  14.745 -0.1467 -0.0164  0.0755
 4107W        W21631   0.730   2.900   0.128  0.2622 -0.1134 -0.0217
 4108W        W21632   1.736   9.536   0.315  0.2563 -0.0035 -0.0356
 4109W        W21633   1.115  12.261  12.189  0.1499  0.1196 -0.0879
 4110W        W21634   4.853   9.169   4.564 -0.0447 -0.1072  0.1018
 4111W        W21635   1.087  10.979  14.459 -0.0626 -0.0671 -0.2348
 4112W        W21636  16.057   8.950   3.371 -0.3501 -0.2601 -0.0636
 4113W        W21637  15.756   4.077  12.681  0.0087  0.0686 -0.0338
 4114W        W21638   4.239   2.724   2.452 -0.1491  0.2497  0.2043
 4115W        W21639  16.777   0.662  13.998  0.0755 -0.1210  0.0415
 4116W        W21640  12.243   5.045  15.611  0.0000  0.0307  0.0181
 4117W        W21641  13.866  12.840   0.775  0.0083 -0.1541  0.0725
 4118W        W21642  10.487  16.461   5.393  0.0046 -0.0728 -0.0608
 4119W        W21643  12.895  11.392  15.286 -0.2595 -0.0593 -0.1447
 4120W        W21644   4.721  13.823   3.009 -0.0684  0.2668  0.5419
 4121W        W21645  15.868   0.269   4.368 -0.1496 -0.3777 -0.0171
 4122W        W21646   4.162  13.096  14.566 -0.1063  0.0941  0.0756
 4123W        W21647  11.431   2.856   5.885  0.0069  0.1862  0.1463
 4124W        W21648  12.748  14.966   2.986  0.3200 -0.1408  0.4362
 4125W        W21649  13.453  16.541   0.678  0.3452  0.0883  0.2643
 4126W        W21650   8.348   1.726   0.925  0.1138 -0.1729  0.0329
 4127W        W21651  15.879  15.232  11.429 -0.0922  0.0709 -0.0379
 4128W        W21652  14.728   2.195  16.867  0.2360 -0.1921 -0.0548
 4129W        W21653   9.976   8.850  12.293  0.0964  0.1760  0.1374
 4130W        W21654  13.614   9.701   4.310 -0.1650 -0.1979 -0.0730
 4131W        W21655  15.946   6.148  17.103 -0.2072  0.0573  0.0837
 4132W        W21656  15.313  10.478  16.892 -0.3206  0.0636  0.2188
 4133W        W21657   0.849  15.855  14.937 -0.1956  0.1056  0.4310
 4134W        W21658  12.662   6.079  13.002  0.0220  0.1078  0.0931
 4135W        W21659  15.231  16.537  16.113 -0.2242  0.0504 -0.0157
 4136W        W21660   2.176  14.948  13.985  0.1524  0.2556 -0.3589
 4137W        W21661   5.478   6.709  16.408  0.2619 -0.1543 -0.0059
 4138W        W21662   2.234  14.045   1.904  0.0764  0.0850 -0.0113
 4139W        W21663  15.370   0.632  17.037  0.3211 -0.1218  0.1226
 4140W        W21664  15.034   9.560   2.525 -0.0356  0.1876  0.0113
 4141W        W21665   7.568   6.816  12.247 -0.0161 -0.0504  0.4157
 4142W        W21666  10.798   8.496   4.674  0.1741  0.2723  0.0358
 4143W        W21667   7.748   8.638  14.972  0.1442 -0.1584 -0.2446
 4144W        W21668  15.497   2.638  13.953  0.1841 -0.0872 -0.1570
 4145W        W21669  15.101  16.710   5.351  0.0499 -0.1677  0.0197
 4146W        W21670   3.584   7.301  16.259  0.0054 -0.3494  0.2417
 4147W        W21671  11.171   0.565  14.610 -0.2710 -0.1041 -0.2267
 4148W        W21672   9.124   3.627  13.026  0.0069 -0.0618 -0.0704
 4149W        W21673  10.237  14.734  12.558 -0.2337  0.0889  0.0550
 4150W        W21674   2.043  13.969   4.531 -0.1349  0.0427  0.1659
 4151W        W21675   2.259   2.623  14.317 -0.0970  0.0583  0.0734
 4152W        W21676   3.438   4.741  17.078 -0.1354  0.0401 -0.1132
 4153W        W21677  12.507  15.634   5.321 -0.2420 -0.3072  0.0249
 4154W        W21678   6.775   8.021  12.286  0.2090 -0.1323 -0.0848
 4155W        W21679   3.065  12.761   3.776  0.0913  0.1439  0.3306
 4156W        W21680   9.628  15.618   3.787  0.0385 -0.2699 -0.1750
 4157W        W21681   7.329   0.292  13.408  0.0795 -0.1861 -0.0848
 4158W        W21682  10.150   6.595  16.730  0.4195  0.0122 -0.1429
 4159W        W21683   6.024   4.421   2.717  0.1494 -0.2138  0.0849
 4160W        W21684   3.612  11.565   0.425 -0.0850 -0.1782  0.0369
 4161W        W21685  16.159  12.592  16.446  0.0830 -0.3779 -0.2328
 4162W        W21686   1.730   5.542  11.578 -0.0118 -0.4887  0.2175
 4163W        W21687   4.016  11.842  16.206 -0.2546  0.0378  0.1116
 4164W        W21688  10.505   3.495   0.678  0.2533 -0.1315  0.0006
 4165W        W21689   8.084   0.163  16.003 -0.1648  0.2146 -0.0089
 4166W        W21690   5.977   4.703   3.146 -0.0744  0.0320 -0.0475
 4167W        W21691   3.734   6.136  16.610  0.1212  0.1644  0.0551
 4168W        W21692  12.080  11.108  15.417  0.0619  0.0062 -0.2872
 4169W        W21693   6.931   3.243  13.850  0.1022  0.2154 -0.1201
 4170W        W21694  16.251   1.920   2.979 -0.1437  0.1206 -0.0534
 4171W        W21695   5.935  13.111   1.223 -0.1509 -0.2461  0.4067
 4172W        W21696   6.217   9.708  17.293 -0.1023 -0.1222 -0.0855
 4173W        W21697  12.185   7.755  15.735  0.0585 -0.0984 -0.0009
 4174W        W21698   1.916  11.474  17.673 -0.2355  0.1353 -0.0290
 4175W        W21699   2.871   7.781   1.086 -0.1770  0.0907  0.2933
 4176W        W21700  14.796   8.088  12.247 -0.1864  0.2717  0.1722
 4177W        W21701  10.532   2.724  13.383  0.2358  0.0371 -0.0237
 4178W        W21702  11.481   0.912  13.273  0.1162 -0.1063  0.1294
 4179W        W21703   4.356   5.537  15.000 -0.0401 -0.1379 -0.1041
 4180W        W21704   7.089   2.089   2.397  0.2454  0.0893 -0.0483
 4181W        W21705  12.380  15.008   3.314 -0.0653  0.1656  0.1410
 4182W        W21706  12.822  12.491  14.024  0.1524 -0.2398  0.1237
 4183W        W21707  15.542  15.612  13.684  0.1026  0.1748 -0.1391
 4184W        W21708   8.301   3.333   0.014 -0.2590  0.1397  0.0909
 4185W        W21709   9.187  15.535   4.240 -0.0733  0.1768  0.0231
 4186W        W21710   7.931   1.980  14.963  0.0569  0.0387 -0.0151
 4187W        W21711   0.333   1.733  17.284  0.0077  0.2960  0.2417
 4188W        W21712  15.536   8.475   4.872 -0.0216  0.0816 -0.0665
 4189W        W21713  10.152  13.497  12.251  0.0176  0.1431  0.1201
 4190W        W21714   5.036  12.611   2.473 -0.1012  0.2641 -0.0234
 4191W        W21715  15.249  13.113   4.531 -0.0116  0.0882 -0.0191
 4192W        W21716   3.450  12.186   3.553 -0.0427  0.0295 -0.1695
 4193W        W21717  15.621  11.364  16.021 -0.0005  0.2040 -0.1523
 4194W        W21718   9.781   7.724  15.576 -0.0437 -0.1255  0.0311
 4195W        W21719   4.850   2.428  17.160 -0.1615  0.0107 -0.0463
 4196W        W21720  15.484   4.732  13.627  0.3103  0.0896  0.1272
 4197W        W21721  13.674   3.511   2.631 -0.1000  0.0375 -0.0330
 4198W        W21722  15.238   1.075  16.598 -0.0285  0.0491 -0.0605
 4199W        W21723   9.975  10.279   2.483 -0.1947  0.1578  0.1354
 4200W        W21724  15.552   9.531   2.865  0.2129  0.0948 -0.1904
 4201W        W21725   9.795   5.840   0.200 -0.0840  0.1396 -0.0797
 4202W        W21726  11.633  13.500   3.148 -0.1964  0.0941  0.0797
 4203W        W21727  15.378   4.458   3.373  0.1326 -0.1447  0.0539
 4204W        W21728   3.439   1.280  16.703  0.0521  0.3155 -0.0516
 4205W        W21729   7.180  11.565   3.366 -0.3121 -0.0729 -0.3608
 4206W        W21730  11.542   2.278  14.530  0.4640 -0.1212  0.1631
 4207W        W21731  13.309   4.423  16.394  0.1475  0.1515  0.3395
 4208W        W21732   5.155  10.076   2.560 -0.1013 -0.0061 -0.0944
 4209W        W21733  10.276   1.013  14.105  0.4257 -0.1448 -0.2789
 4210W        W21734   0.836  14.452   1.503  0.3052 -0.0779 -0.0532
 4211W        W21735  12.732   6.378   1.783 -0.5252 -0.4298 -0.0387
 4212W        W21736  16.994   8.168   2.427  0.0360  0.0876 -0.2451
 4213W        W21737  13.931  10.714  13.487 -0.0297  0.2979 -0.1622
 4214W        W21738  12.927  12.310   0.050 -0.0577  0.0128 -0.0674
 4215W        W21739  10.458  10.995   3.975 -0.1583  0.0908 -0.1908
 4216W        W21740  11.017   7.615  14.459 -0.0358  0.2685 -0.2861
 4217W        W21741  15.357   0.706   0.333  0.2057 -0.0019 -0.1787
 4218W        W21742   8.279   4.026  15.342  0.1579 -0.0877 -0.2571
 4219W        W21743  11.506  11.455   4.017  0.0016 -0.2282 -0.0080
 4220W        W21744  13.671  10.998  16.696  0.1600  0.0468 -0.1230
 4221W        W21745   3.121  16.893  17.439 -0.2802  0.0664  0.0668
 4222W        W21746  12.402  12.287   3.398  0.0280  0.1478 -0.1747
 4223W        W21747  16.711  10.499   5.906  0.0561 -0.3241  0.3196
 4224W        W21748   5.959   1.644  14.896 -0.0921  0.0223 -0.0382
 4225W        W21749  16.975   5.608   1.897  0.1550 -0.1054 -0.0697
 4226W        W21750  16.339   6.628   1.581  0.2958 -0.2831 -0.0765
 4227W        W21751   3.520  12.330   1.181 -0.1778 -0.1517 -0.1853
 4228W        W21752   9.201   4.293  13.639 -0.1465  0.1505  0.2967
 4229W        W21753   7.378   7.973   5.321  0.0986 -0.0344  0.1015
 4230W        W21754  13.518   5.014   3.915 -0.2559 -0.1033 -0.1487
 4231W        W21755   5.507  16.588  15.110 -0.2957  0.0538 -0.1700
 4232W        W21756   4.369   0.455  16.412  0.1859  0.0290  0.1123
 4233W        W21757   7.055   3.642  16.110  0.0571  0.1037 -0.1946
 4234W        W21758  14.112   6.656  16.450  0.2057  0.2465 -0.0754
 4235W        W21759   2.040   3.901  14.270 -0.0664  0.0174 -0.0686
 4236W        W21760  14.848  11.164   1.907 -0.0195  0.0232  0.2973
 4237W        W21761  14.650  14.262   0.471  0.0759 -0.2691 -0.1866
 4238W        W21762  13.009  11.326   0.135  0.2978 -0.2078 -0.0860
 4239W        W21763  11.690   2.375   2.008 -0.3046  0.1069 -0.4697
 4240W        W21764   7.833   1.909  11.907 -0.0915 -0.1402  0.0128
 4241W        W21765  16.906   5.833  13.492  0.2209  0.3811 -0.1912
 4242W        W21766   2.521   5.727   5.123 -0.1711  0.2282 -0.0922
 4243W        W21767  16.702  10.790   0.599  0.0847  0.0396 -0.1033
 4244W        W21768   9.734   3.541   4.185 -0.3544  0.0700 -0.0990
 4245W        W21769  11.398   3.575  14.408 -0.0217  0.3986 -0.1758
 4246W        W21770   8.935   5.553  13.279  0.1796  0.0079 -0.1655
 4247W        W21771   1.666  13.485  16.499 -0.1819 -0.2287  0.2633
 4248W        W21772  16.357   2.325   0.147 -0.2866  0.1405  0.3698
 4249W        W21773   3.436   0.572   5.417 -0.0444 -0.0914  0.0972
 4250W        W21774  10.729   1.199  16.652 -0.0763  0.1510  0.0745
 4251W        W21775   5.192  10.937   2.649  0.0379 -0.4908  0.0032
 4252W        W21776   8.263  14.578   3.931  0.0087 -0.1809  0.0017
 4253W        W21777  14.287   0.719   4.742 -0.0167  0.2468  0.3261
 4254W        W21778   9.567   7.048  13.166  0.0052  0.1447 -0.3106
 4255W        W21779  12.794  14.280  16.074 -0.0036  0.0536 -0.2328
 4256W        W21780   7.844   6.803   3.493 -0.1227 -0.3834  0.2208
 4257W        W21781  15.115   3.884  16.423 -0.1262 -0.1050  0.1402
 4258W        W21782   5.839   8.003  16.867  0.1081 -0.1444  0.1643
 4259W        W21783   0.522   4.815  12.600  0.1530  0.3213 -0.2299
 4260W        W21784   5.076   2.601   5.627  0.1266 -0.1917 -0.0304
 4261W        W21785   7.811   8.484   0.387 -0.1786 -0.1000 -0.0919
 4262W        W21786   5.257   6.536  15.363 -0.0189 -0.1856  0.1561
 4263W        W21787   8.540   1.706  15.589  0.0464  0.2829 -0.0527
 4264W        W21788   7.154   1.395  14.245  0.1125  0.1560 -0.0303
 4265W        W21789  10.167   3.983  13.798 -0.1343  0.4391 -0.1321
 4266W        W21790   0.578   0.913   3.123 -0.0195  0.3170  0.2763
 4267W        W21791   7.032   5.221  11.335  0.1442  0.1753  0.1210
 4268W        W21792   7.515  11.421  14.918  0.0802 -0.1619 -0.2017
 4269W        W21793  11.546   0.217  14.711 -0.0772 -0.1972  0.4187
 4270W        W21794   1.219   4.936  14.973  0.2097 -0.2090 -0.0179
 4271W        W21795  16.501  16.145  16.163  0.2135 -0.4465  0.1694
 4272W        W21796   9.724   4.855   1.503 -0.1929  0.0139 -0.1515
 4273W        W21797  10.142   5.130  15.868 -0.1861  0.0123  0.1100
 4274W        W21798  10.297   0.576  14.378 -0.1432  0.1085 -0.2965
 4275W        W21799  10.728  16.167   1.624  0.4091 -0.1594  0.1538
 4276W        W21800  15.661   1.109   2.641 -0.0833 -0.0227 -0.2104
 4277W        W21801  17.079   9.588  12.485 -0.1239  0.0042  0.2275
 4278W        W21802  13.967   0.569   0.734  0.3728  0.0467  0.3238
 4279W        W21803   5.539   5.727   2.508  0.2098  0.0160 -0.0477
 4280W        W21804   1.422  17.049   1.268 -0.0368  0.3676  0.1303
 4281W        W21805  13.204   3.763   2.210  0.1172  0.0746 -0.3789
 4282W        W21806  14.355  16.077  11.628  0.3367  0.1659  0.0586
 4283W        W21807   1.654   2.618   1.468 -0.2215 -0.1472  0.0477
 4284W        W21808  15.435   1.418   2.977 -0.2135 -0.4635  0.1093
 4285W        W21809   3.769   3.469  13.248  0.0156  0.1402 -0.2669
 4286W        W21810   9.318   1.761  12.036 -0.0564 -0.0104 -0.0040
 4287W        W21811   9.483   9.367   5.318 -0.2730  0.2498 -0.2110
 4288W        W21812   0.988  13.456  17.427  0.0847  0.1750  0.0048
 4289W        W21813  10.808   9.212  17.301 -0.0804  0.3236  0.1353
 4290W        W21814   9.299   4.113  16.307 -0.0938  0.0426 -0.1486
 4291W        W21815   3.331   9.302  16.414 -0.0812 -0.1460 -0.2281
 4292W        W21816   7.198   0.576   1.029 -0.0265  0.0742 -0.1382
 4293W        W21817   3.414   7.363   0.402 -0.0699  0.2119 -0.0668
 4294W        W21818   1.800   4.207  16.277 -0.2448  0.3443  0.0502
 4295W        W21819  10.698   0.880   5.243  0.0049 -0.1948  0.0826
 4296W        W21820  16.770   6.693   4.677  0.0735 -0.0393 -0.0989
 4297W        W21821   6.621   9.389  13.283  0.1033  0.0439  0.1798
 4298W        W21822   3.334   5.767   1.983 -0.2364  0.0481 -0.2343
 4299W        W21823   3.044   0.141  13.829  0.0511 -0.1325 -0.3872
 4300W        W21824   8.519   3.142  12.566 -0.1976 -0.1824  0.0540
 4301W        W21825   2.583  10.560  17.136 -0.0089  0.0994 -0.0391
 4302W        W21826  12.127  10.297  13.324  0.1298 -0.1002  0.0424
 4303W        W21827   8.618   1.436   2.271 -0.0329  0.1692  0.0740
 4304W        W21828   1.264   1.890  16.024 -0.1103 -0.0633  0.2325
 4305W        W21829   0.016   4.163   5.121 -0.2095  0.1825 -0.2911
 4306W        W21830   7.890  10.399  17.126 -0.0154  0.0429  0.1236
 4307W        W21831  13.380  16.935  14.807 -0.0500  0.3307  0.0118
 4308W        W21832  15.322   6.053   4.753  0.1575 -0.1775  0.0005
 4309W        W21833   3.810   8.021  15.758 -0.1987 -0.2836 -0.1528
 4310W        W21834   8.235  15.362  12.556 -0.1890  0.1352  0.2017
 4311W        W21835  12.512  11.182   5.439 -0.0343 -0.2327  0.1734
 4312W        W21836   1.593   8.715  13.384  0.2943  0.5113 -0.0673
 4313W        W21837   9.891  12.833   0.447  0.3594 -0.0009 -0.2551
 4314W        W21838   1.119  10.559  12.917  0.1207  0.0573 -0.1138
 4315W        W21839  14.696  10.051  17.394 -0.2071 -0.0888  0.1511
 4316W        W21840  12.946   0.053   5.585 -0.1465  0.3832 -0.2213
 4317W        W21841   5.833   9.048  14.376  0.2290  0.0049  0.1205
 4318W        W21842   5.488   8.321  16.008 -0.0599  0.0210 -0.2411
 4319W        W21843   9.146  16.270  16.077 -0.3263 -0.0610 -0.0864
 4320W        W21844   9.674   0.345  17.008  0.1339 -0.0629 -0.2648
 4321W        W21845  13.592  10.047  15.521  0.0573  0.2153 -0.2104
 4322W        W21846  10.422  14.621  17.321 -0.1778  0.0383  0.0425
 4323W        W21847   4.661   4.550   1.719 -0.1203 -0.0006  0.1738
 4324W        W21848   5.267  16.875   6.541  0.0204 -0.1965  0.0223
 4325W        W21849  13.283  14.111  16.148  0.0582  0.0297  0.0109
 4326W        W21850  12.174   9.439   1.765 -0.0086  0.0027  0.0421
 4327W        W21851  11.701  14.358   1.074 -0.0006 -0.1237 -0.0332
 4328W        W21852  10.980   4.402   1.026  0.1711 -0.0277 -0.2012
 4329W        W21853   6.797  15.445   0.254 -0.1879  0.0429  0.0710
 4330W        W21854   7.443  15.537   3.714 -0.2211  0.0375 -0.3077
 4331W        W21855   8.165   6.448   5.322  0.3431 -0.1526  0.1153
 4332W        W21856   7.801   2.491  13.538  0.3259 -0.2617  0.1356
 4333W        W21857  11.268  16.060   2.594 -0.0489  0.0821  0.1566
 4334W        W21858   6.431   3.940  17.156  0.1900  0.0277  0.0144
 4335W        W21859   7.866   8.029   0.125  0.2296  0.3246  0.0815
 4336W        W21860   5.884  12.743   3.655  0.2049  0.0103  0.0540
 4337W        W21861   9.016   8.971   3.984  0.0853  0.0890 -0.1762
 4338W        W21862  12.116   9.103   3.921 -0.1868  0.2000 -0.1450
 4339W        W21863   4.004  13.515   1.896  0.0066  0.0457 -0.2179
 4340W        W21864   2.601   3.970   1.048 -0.0746  0.3339  0.1010
 4341W        W21865   8.080   5.563   0.137  0.2067 -0.0694  0.1149
 4342W        W21866   4.317   0.068   5.561 -0.2628 -0.1939  0.1609
 4343W        W21867  12.215   1.886   6.023 -0.2848  0.1269  0.0067
 4344W        W21868   0.727  12.869   0.834  0.1519 -0.0477 -0.0686
 4345W        W21869  10.827   8.152   3.050 -0.1582 -0.2776  0.1513
 4346W        W21870   6.715   0.097  15.707  0.3163  0.1363  0.2518
 4347W        W21871   8.626  11.711   3.878 -0.2588 -0.2512 -0.1312
 4348W        W21872   4.620  14.763   2.054  0.2617 -0.1814 -0.1808
 4349W        W21873  14.345   6.568   2.414 -0.0198  0.0129 -0.0607
 4350W        W21874  13.104  10.757   1.526  0.0357  0.0924 -0.0791
 4351W        W21875   4.623   0.851   5.634  0.0686 -0.2751 -0.0768
 4352W        W21876   2.735  15.824   4.186  0.0061  0.0280  0.1233
 4353W        W21877   2.865   9.245  14.347 -0.0280 -0.1629 -0.1598
 4354W        W21878   9.531  11.968   3.534  0.0741 -0.2106 -0.5167
 4355W        W21879   3.840  15.196  15.721  0.1375 -0.2615  0.0200
 4356W        W21880   2.335   8.534  17.717  0.1286 -0.0375 -0.1433
 4357W        W21881  12.721  15.953  13.315  0.1834  0.0276 -0.0764
 4358W        W21882  12.762   6.649  13.650  0.0772 -0.0366 -0.1778
 4359W        W21883   9.669   5.233   1.163  0.0431  0.0599 -0.0241
 4360W        W21884  14.309  13.526   1.375 -0.1211 -0.1667 -0.0970
 4361W        W21885  16.065   9.532   5.512  0.1216  0.2487 -0.1899
 4362W        W21886   7.297  12.672  16.664 -0.3016  0.1785 -0.1558
 4363W        W21887   9.530  14.013  16.735  0.1299 -0.0660  0.1796
 4364W        W21888  12.667   4.337   2.435 -0.1243  0.0329  0.0993
 4365W        W21889  10.634  14.297   4.754  0.1257 -0.4811 -0.0533
 4366W        W21890  12.445   6.048   4.247 -0.1089 -0.0580 -0.2167
 4367W        W21891   2.100   8.644   3.147 -0.4893 -0.0531  0.3567
 4368W        W21892   1.305  13.416   4.899 -0.0244  0.0388 -0.3193
 4369W        W21893   0.609   3.170   5.696  0.1098  0.0966  0.0459
 4370W        W21894  16.452   7.018   3.481 -0.0450  0.0894 -0.3726
 4371W        W21895   1.815  12.057  16.347  0.0818 -0.0639  0.0736
 4372W        W21896  12.522   2.056  12.641 -0.0463 -0.0374 -0.1726
 4373W        W21897   3.152   4.650   1.763 -0.1183 -0.0642  0.1490
 4374W        W21898   8.586   9.179  15.401  0.0193  0.2048  0.1315
 4375W        W21899   0.966  12.599  13.881 -0.1215 -0.1301 -0.3065
 4376W        W21900  11.836   2.888   4.845 -0.3330  0.4408 -0.3040
 4377W        W21901  12.836   0.813   1.906 -0.0361  0.0588  0.0310
 4378W        W21902   3.829   7.893   1.292  0.2871  0.1744  0.0878
 4379W        W21903  12.324   8.471  17.732  0.0478 -0.2445 -0.0591
 4380W        W21904   3.574  16.250   1.984 -0.1214  0.1313  0.1646
 4381W        W21905  11.204   6.166  15.951  0.4385 -0.0635  0.3206
 4382W        W21906   0.012   6.806  12.849  0.1397 -0.2001  0.1651
 4383W        W21907   5.899  15.611  16.958 -0.3197  0.0220  0.1124
 4384W        W21908   9.926   9.428   5.043  0.3037  0.0797  0.0983
 4385W        W21909   6.973   5.645   3.404 -0.2257 -0.1984  0.1060
 4386W        W21910   0.578  11.078  12.980 -0.1069  0.0975 -0.0949
 4387W        W21911  12.713   6.688  12.685  0.2083 -0.1447  0.0852
 4388W        W21912  16.532  12.304   0.703 -0.0513 -0.4677 -0.0966
 4389W        W21913  16.863  14.111  12.917 -0.3753  0.1738  0.0576
 4390W        W21914  11.673   4.838  16.951 -0.2048  0.2735  0.1156
 4391W        W21915   6.822   9.862  12.969  0.1905  0.1516 -0.0162
 4392W        W21916   7.706  12.642  14.791  0.1858 -0.1538 -0.0274
 4393W        W21917   7.024   7.456   0.411  0.2349 -0.0033 -0.0030
 4394W        W21918  15.158  12.917  16.210  0.0436 -0.2459  0.1324
 4395W        W21919   8.515  15.463  16.210  0.0310 -0.0221  0.2333
 4396W        W21920   2.428   8.870   4.371 -0.1550  0.0941  0.0089
 4397W        W21921  10.419  15.991   0.478  0.0077 -0.1491  0.2593
 4398W        W21922  16.226  11.412  16.562 -0.1979 -0.0877  0.1186
 4399W        W21923  11.811  12.096  12.157 -0.3273  0.2960  0.0977
 4400W        W21924  16.307   8.240  15.272  0.2074 -0.3376  0.1363
 4401W        W21925   4.694   7.917   1.943 -0.0825  0.0121 -0.3239
 4402W        W21926   6.742   6.191   3.106 -0.2190  0.1653  0.2131
 4403W        W21927   7.402   6.910  17.073 -0.2867  0.0154  0.0420
 4404W        W21928   1.656  14.742  14.559  0.1248 -0.3005  0.2278
 4405W        W21929   9.100  13.604  15.368 -0.0618 -0.3326  0.1483
 4406W        W21930   1.943   3.262  17.383  0.4347 -0.0102 -0.0533
 4407W        W21931  12.813  12.934  13.480  0.0487 -0.0010  0.1011
 4408W        W21932   5.681   4.251  15.150 -0.1112  0.0055 -0.2930
 4409W        W21933   0.159   1.896   4.525 -0.0077 -0.0521  0.2136
 4410W        W21934  10.007   5.576  16.892  0.1305 -0.0119 -0.0648
 4411W        W21935   3.903   5.833   3.923 -0.2703 -0.1562 -0.2302
 4412W        W21936   1.719   3.602  13.376  0.1262  0.2396 -0.1878
 4413W        W21937   4.472   3.583   0.761 -0.3608  0.1774 -0.1060
 4414W        W21938   8.725   1.986  16.482  0.1026  0.0808 -0.2774
 4415W        W21939   1.426   0.360   4.714 -0.2562 -0.0553  0.0667
 4416W        W21940   9.794   8.158  17.466 -0.3476 -0.2162 -0.0026
 4417W        W21941  12.014   5.391   3.581 -0.1956 -0.2049 -0.0698
 4418W        W21942   5.957  11.121   5.419 -0.0873  0.0283  0.0656
 4419W        W21943  13.024  17.021  15.742 -0.1451  0.2480  0.0428
 4420W        W21944   2.668   5.946  17.690  0.2887 -0.0902 -0.1059
 4421W        W21945   7.453   9.378   1.215 -0.1859 -0.3043 -0.2159
 4422W        W21946  11.484   9.711   0.935  0.1129  0.1487  0.0065
 4423W        W21947   2.627   2.933  11.503 -0.1794 -0.0757 -0.1391
 4424W        W21948   5.090   4.016   3.547 -0.0418 -0.1002 -0.0433
 4425W        W21949   6.994   2.528  15.066 -0.0110 -0.1835  0.3803
 4426W        W21950   3.913  15.998   5.290  0.0871  0.1335 -0.1638
 4427W        W21951  10.254  12.515  15.331 -0.3916 -0.2675 -0.0950
 4428W        W21952   6.696   9.534  17.383  0.1590 -0.0143  0.2499
 4429W        W21953   0.962   4.573   2.246  0.1145 -0.1902 -0.1055
 4430W        W21954   5.328  11.425  15.841  0.0161 -0.3020 -0.0674
 4431W        W21955   4.589   7.317  11.750 -0.1222 -0.0090 -0.1034
 4432W        W21956   5.280   3.482   5.522 -0.1183 -0.2327 -0.0563
 4433W        W21957  12.591   8.878  12.206 -0.4254 -0.0669 -0.1232
 4434W        W21958   7.823   4.093   2.177  0.1260  0.1506 -0.1690
 4435W        W21959   9.955   0.349  16.246 -0.1063 -0.2609  0.1032
 4436W        W21960  13.861   2.857  15.071  0.0357  0.1860 -0.1683
 4437W        W21961   4.620   5.826   5.414 -0.0233  0.1789 -0.2665
 4438W        W21962  15.213   4.299  15.480 -0.0670  0.0491 -0.1151
 4439W        W21963   2.516  13.265  15.284 -0.0216 -0.0262  0.0139
 4440W        W21964   8.584   5.014   0.322  0.0223 -0.0068  0.1607
 4441W        W21965   0.653  11.311   2.008 -0.1412  0.2029  0.2192
 4442W        W21966   3.671   4.875   5.118 -0.0953 -0.0399 -0.0350
 4443W        W21967   7.731   9.297   1.753  0.2951 -0.1589 -0.1568
 4444W        W21968   4.671  16.328  16.562  0.1228  0.1207  0.2950
 4445W        W21969   7.077   5.304  16.069 -0.0471  0.0212  0.0430
 4446W        W21970  16.009   4.441  17.441 -0.1941 -0.2318  0.0366
 4447W        W21971   3.808  16.302   4.897  0.0075  0.0684 -0.0356
 4448W        W21972   0.793  16.534   1.762  0.0646 -0.1216  0.1935
 4449W        W21973   7.533  13.913   2.737  0.4429  0.3595  0.1994
 4450W        W21974   7.413   5.819  12.736  0.1223 -0.1678  0.1332
 4451W        W21975   5.366  12.176   0.963 -0.0699 -0.2212 -0.2392
 4452W        W21976   6.203   5.056  15.186  0.4249  0.3470 -0.3087
 4453W        W21977   4.738  14.682   3.315  0.0571  0.2878  0.2168
 4454W        W21978   6.993   2.405   0.622  0.0506 -0.0033 -0.1460
 4455W        W21979   3.523   9.701   4.850 -0.3047 -0.0432 -0.0339
 4456W        W21980  13.752   8.082   5.114  0.0438  0.2174  0.1858
 4457W        W21981  12.015   6.067  12.364 -0.1554  0.0111  0.4543
 4458W        W21982  17.142   6.665  14.256 -0.1609  0.0758  0.1054
 4459W        W21983   4.559   1.914  13.921 -0.2412  0.0501  0.2326
 4460W        W21984   5.374  12.385   5.361 -0.0647  0.0220  0.0896
 4461W        W21985   5.415   0.582   1.862  0.2122  0.0821 -0.0511
 4462W        W21986   9.322  15.877  16.287 -0.3458 -0.0147 -0.2255
 4463W        W21987  15.722   8.033  17.575  0.2115  0.0955 -0.1599
 4464W        W21988   4.524   3.627   4.306  0.0650  0.0114 -0.0180
 4465W        W21989  17.151   5.988  16.649  0.0723 -0.0012 -0.0633
 4466W        W21990  11.361   5.212  14.178  0.1344 -0.1131 -0.0436
 4467W        W21991   2.866   3.522   5.099  0.0753  0.0969 -0.1464
 4468W        W21992   2.340   5.734  12.804  0.3017 -0.1385  0.0589
 4469W        W21993  11.947   1.169   2.186 -0.0783  0.1084 -0.2598
 4470W        W21994   8.539   0.586   4.057  0.1938 -0.0387 -0.0554
 4471W        W21995  15.337   3.330   3.331 -0.1479 -0.1844  0.1105
 4472W        W21996   6.597  16.921   0.486 -0.2768 -0.2776 -0.0086
 4473W        W21997  15.382   8.500  12.871  0.0899  0.0984 -0.0887
 4474W        W21998  14.561  15.661  14.576 -0.0643  0.1395 -0.0273
 4475W        W21999  13.272  13.585  17.043 -0.2469 -0.0107  0.1944
 4476W        W22000  12.107   8.999   0.469 -0.2654 -0.0271  0.0413
 4477W        W22001   5.505   3.743  15.683  0.2058  0.3412 -0.0755
 4478W        W22002   8.475  16.310  17.423 -0.1235  0.0107  0.1017
 4479W        W22003  14.883   0.526  13.102 -0.1369  0.0964  0.1347
 4480W        W22004   5.626  12.476   0.603 -0.0541  0.2405 -0.0571
 4481W        W22005   3.187   5.354  13.982 -0.1723  0.1865  0.2303
 4482W        W22006   2.362  15.628   3.518  0.1184 -0.0203  0.2729
 4483W        W22007   2.719   9.612  15.144 -0.0344 -0.1494  0.0594
 4484W        W22008   2.413  12.439   5.992  0.2571 -0.3653 -0.0295
 4485W        W22009   4.139  10.033   0.721  0.0696 -0.0617  0.1766
 4486W        W22010  12.445  11.310   0.860  0.4631 -0.0599 -0.1028
 4487W        W22011  13.407   9.376  17.525 -0.0205  0.2507 -0.1001
 4488W        W22012   3.873   8.598   0.675 -0.4476  0.0299 -0.1374
 4489W        W22013  11.569  12.891  14.023 -0.0861  0.0582  0.0386
 4490W        W22014   3.151  13.616  13.094 -0.0624 -0.2874 -0.4267
 4491W        W22015   4.264  10.353  12.430 -0.1594  0.0290  0.1690
 4492W        W22016  12.089   2.996  12.216  0.0522 -0.2031 -0.1294
 4493W        W22017  11.988  15.509  16.960  0.1048 -0.0019 -0.1749
 4494W        W22018  15.214   3.130  13.831 -0.0337  0.1464 -0.0848
 4495W        W22019   7.618   2.619  13.971  0.0682 -0.0820 -0.5314
 4496W        W22020   1.322   2.734  12.751 -0.5392 -0.2538 -0.1000
 4497W        W22021  16.975   0.970   1.226 -0.1036  0.0495 -0.1409
 4498W        W22022  15.961   3.941   0.469 -0.4449 -0.1141 -0.0849
 4499W        W22023   8.068  15.783  13.858 -0.0278 -0.0193  0.0682
 4500W        W22024   2.662   1.996  12.574 -0.1511  0.3861 -0.0617
 4501W        W22025   6.975   3.922   5.234  0.2456  0.1278  0.0163
 4502W        W22026  15.200   6.922   3.725  0.0685  0.1127  0.2877
 4503W        W22027  12.840  14.850   2.421 -0.4468  0.1169  0.1676
 4504W        W22028   2.420   9.025  15.761  0.0955  0.2796 -0.0753
 4505W        W22029  11.864   9.866  13.500  0.0408  0.0499  0.0783
 4506W        W22030  10.108  14.251  14.769 -0.2251  0.2131  0.2557
 4507W        W22031  17.006   3.077   5.519 -0.2386 -0.0625  0.0397
 4508W        W22032  12.951  12.984  15.349 -0.0251  0.0036 -0.6311
 4509W        W22033   2.834  15.226  13.127  0.1417 -0.1406  0.1456
 4510W        W22034   3.013   6.828   2.837  0.0658  0.0028 -0.0827
 4511W        W22035   9.761  11.401   0.333 -0.4711 -0.2805  0.1173
 4512W        W22036   1.586  11.253   1.430 -0.0107  0.2976  0.1896
 4513W        W22037  16.635  14.520  16.992  0.1119 -0.0940  0.0424
 4514W        W22038   4.732   6.499  15.049 -0.0191 -0.0818 -0.2322
 4515W        W22039  15.825   6.781   1.125 -0.1600  0.1786 -0.0613
 4516W        W22040   9.320   4.865  11.902 -0.0363 -0.0330 -0.0529
 4517W        W22041  13.348  12.701   0.547  0.1105 -0.0055  0.1533
 4518W        W22042  16.517  15.337   0.171  0.2147 -0.2629  0.0563
 4519W        W22043   6.053   3.838  15.739  0.1516  0.0292  0.0890
 4520W        W22044  15.575   5.185  17.455 -0.0541  0.2038  0.1469
 4521W        W22045   7.899   7.203  17.170 -0.1789  0.2891 -0.2327
 4522W        W22046  14.719   1.827  17.577 -0.0129 -0.1085 -0.1090
 4523W        W22047   6.985   2.750   1.066  0.1742  0.0315 -0.1585
 4524W        W22048   1.839  11.171  12.223 -0.0495 -0.0267  0.0994
 4525W        W22049   7.073   7.384  17.221 -0.0331 -0.0411 -0.1944
 4526W        W22050   7.705  10.394   2.902 -0.1522 -0.2128 -0.0123
 4527W        W22051   8.447  16.460   4.327 -0.1669 -0.3316  0.2474
 4528W        W22052  13.033   6.253  17.127  0.0722  0.0608 -0.3704
 4529W        W22053   2.425   9.324  14.903 -0.1103  0.2337 -0.0338
 4530W        W22054  13.798  13.899   4.259 -0.3492 -0.1493  0.0327
 4531W        W22055  14.272   8.019   0.450 -0.0801  0.0068 -0.0421
 4532W        W22056  16.585   5.327  12.549  0.0040  0.0820  0.0278
 4533W        W22057   8.830   7.203  14.190  0.3139  0.0241 -0.1705
 4534W        W22058   5.413   3.384  12.984  0.2085 -0.1337 -0.0129
 4535W        W22059  11.321  12.249   1.124  0.5090 -0.0607 -0.0876
 4536W        W22060   3.098  13.311   1.399 -0.1497 -0.2865  0.2900
 4537W        W22061   5.108   3.919  17.188  0.0197 -0.0536 -0.1030
 4538W        W22062  10.266   3.861  14.280  0.1229  0.0074 -0.0245
 4539W        W22063   8.700   1.337   3.248  0.2525 -0.3121  0.2258
 4540W        W22064  13.705  15.981   4.007 -0.0565 -0.1098  0.0231
 4541W        W22065  11.223   8.050  14.371  0.0271  0.3492  0.1582
 4542W        W22066  16.188   7.130   1.103 -0.0314 -0.0725  0.1228
 4543W        W22067  11.241   9.008  17.664  0.0107 -0.0407  0.1765
 4544W        W22068   2.137  10.322   2.447  0.0315 -0.1971  0.0888
 4545W        W22069   7.977   2.890   4.021  0.2418 -0.0128 -0.1529
 4546W        W22070  11.776  13.494  14.319  0.0063 -0.2427 -0.1003
 4547W        W22071  17.044   5.759   0.824 -0.4083 -0.1495  0.2144
 4548W        W22072  10.203   0.767   5.127 -0.2282  0.1930 -0.1744
 4549W        W22073   5.853  13.518   3.452 -0.1152  0.1820  0.1057
 4550W        W22074  16.905  12.631  13.274 -0.1695  0.1694  0.3231
 4551W        W22075   8.938  13.646   1.671 -0.1193  0.0608 -0.1475
 4552W        W22076   4.938   6.197   5.187  0.3471 -0.0100  0.0753
 4553W        W22077   7.883  12.637  16.518 -0.1646 -0.1709  0.0591
 4554W        W22078   0.743  13.654   4.644  0.0961  0.3043  0.2348
 4555W        W22079   5.096   5.072  16.549 -0.2804 -0.2838 -0.3255
 4556W        W22080   6.659   8.792  17.693  0.1649  0.0400 -0.2265
 4557W        W22081   6.685   9.406  12.181  0.0913 -0.0376  0.0563
 4558W        W22082  10.723   3.444   5.331  0.2390 -0.0666 -0.2834
 4559W        W22083   2.922  10.724  14.188 -0.0421  0.0991  0.0410
 4560W        W22084   6.862   1.774  12.930 -0.0714  0.1199 -0.0818
 4561W        W22085   3.252   7.245   4.208  0.0369  0.0122 -0.3368
 4562W        W22086   3.245  10.746   1.835  0.0589  0.1529 -0.0503
 4563W        W22087   0.451  12.775   1.957  0.2606  0.2901  0.1779
 4564W        W22088   0.191   8.584   1.353 -0.1441  0.1130 -0.3019
 4565W        W22089   4.403   8.578   3.017 -0.1795 -0.0364 -0.1834
 4566W        W22090   6.069   9.938  13.417  0.0324 -0.2703 -0.0474
 4567W        W22091   9.388  10.528   2.765  0.0652  0.0570  0.2138
 4568W        W22092   9.970  15.685   1.387  0.0901 -0.3294 -0.0134
 4569W        W22093  14.554   6.062   3.382  0.2105  0.2357 -0.0181
 4570W        W22094  13.541   5.926  16.900 -0.3831  0.2951 -0.0813
 4571W        W22095  13.547  16.211   4.466  0.2222 -0.0007  0.1364
 4572W        W22096  11.132   8.374   1.640  0.0917 -0.0882  0.0171
 4573W        W22097  15.959  15.512   4.438  0.1100 -0.0437  0.2578
 4574W        W22098   7.886  10.201  13.112  0.0443 -0.0614  0.0061
 4575W        W22099  15.532   2.845   5.317  0.1323 -0.0728 -0.0529
 4576W        W22100   0.033  13.056  16.094  0.1226  0.0344 -0.0511
 4577W        W22101  13.026   4.973   4.107 -0.0713 -0.2408 -0.0809
 4578W        W22102   5.775   8.280  13.234  0.0686 -0.0072 -0.2928
 4579W        W22103   8.985   1.828  12.907  0.1177  0.0229  0.0087
 4580W        W22104   5.533  10.451  14.096 -0.1451  0.1042 -0.2073
 4581W        W22105   4.246   7.005   2.132  0.1403 -0.1422  0.2252
 4582W        W22106  13.363   7.764  15.371 -0.2673  0.2462 -0.3065
 4583W        W22107  10.524   1.457  16.266 -0.3886 -0.0087  0.1031
 4584W        W22108   0.985  14.577   0.366  0.0798 -0.0867 -0.2880
 4585W        W22109   6.146  12.509   5.612 -0.1234 -0.1252  0.1808
 4586W        W22110   8.666   9.847  13.140  0.3474 -0.1250 -0.3584
 4587W        W22111   7.659  10.763   3.770 -0.3149 -0.1812  0.0911
 4588W        W22112   1.478   7.686  12.543 -0.2471  0.0792 -0.0021
 4589W        W22113   2.547  15.340   0.057 -0.0663  0.0632  0.2537
 4590W        W22114   0.396  14.922   5.477  0.3148  0.1621  0.0439
 4591W        W22115  13.609   3.839  16.130 -0.5036 -0.1479  0.0897
 4592W        W22116  10.375   0.905   3.323 -0.1659 -0.2948  0.1257
 4593W        W22117   6.276  15.576   4.353 -0.1420 -0.1107  0.2094
 4594W        W22118   4.612  13.148   0.212 -0.3984  0.0846 -0.2397
 4595W        W22119  11.178   9.669   2.331 -0.2150 -0.3141 -0.0645
 4596W        W22120   7.449   6.432   2.469  0.0672 -0.2196  0.1688
 4597W        W22121   4.858  17.150   2.710  0.1277  0.1665 -0.1025
 4598W        W22122   9.692   9.855  15.170  0.1459 -0.1625  0.1875
 4599W        W22123   7.048  17.096  13.100 -0.1397 -0.2110  0.2331
 4600W        W22124  14.267  16.629   3.234  0.1776  0.2257  0.1755
 4601W        W22125  16.373   3.784  14.442 -0.1322  0.2096 -0.0117
 4602W        W22126   9.212   9.571  12.094 -0.0533 -0.2016  0.4267
 4603W        W22127  13.949   6.231  16.695 -0.1405  0.0660 -0.3011
 4604W        W22128  14.275  17.057   5.755 -0.0811 -0.1237 -0.2486
 4605W        W22129   9.606   4.853  16.731 -0.1451 -0.1334  0.1891
 4606W        W22130   8.848   3.498   2.130  0.0469 -0.0665  0.0942
 4607W        W22131   4.194  10.606   4.565 -0.0606 -0.0908 -0.1243
 4608W        W22132  12.606  13.428  16.264 -0.0830 -0.3562  0.0030
 4609W        W22133  12.489  11.710  14.616  0.3760  0.0918 -0.2309
 4610W        W22134   6.922   2.863  15.587  0.0841 -0.0285  0.0003
 4611W        W22135  10.864   1.657   5.802 -0.0531 -0.3139  0.1562
 4612W        W22136  12.608   4.416   1.221 -0.1127 -0.0062 -0.0442
 4613W        W22137   4.606   7.746   3.730 -0.2922 -0.2526 -0.0888
 4614W        W22138  13.401   7.302  13.609 -0.0613  0.1418  0.3127
 4615W        W22139  14.823   9.695  17.091  0.0448 -0.1357  0.2627
 4616W        W22140  13.858   4.713   5.505  0.2232  0.0515  0.0084
 4617W        W22141   8.914  13.447  17.732  0.0352  0.0450 -0.3318
 4618W        W22142   7.107  11.063  14.675  0.0110  0.2422 -0.1805
 4619W        W22143   5.220  13.585   1.354  0.0296  0.1073 -0.0328
 4620W        W22144   4.453  14.806   3.832 -0.1145  0.2511 -0.1959
 4621W        W22145   6.547  12.956   3.441  0.2321  0.1580  0.2819
 4622W        W22146  12.961  16.383   2.102 -0.0391  0.0962  0.1372
 4623W        W22147   7.307   2.258   3.638 -0.2634  0.1121 -0.2007
 4624W        W22148  16.376  16.233   5.595 -0.4462  0.1751 -0.0359
 4625W        W22149  16.857   8.680   3.591 -0.0835  0.3174  0.1452
 4626W        W22150   1.168  11.453  12.750  0.0627  0.1984  0.0059
 4627W        W22151   6.110  13.807   0.909 -0.0596 -0.0042  0.2047
 4628W        W22152  10.706   5.270   4.053 -0.1859  0.0771 -0.0007
 4629W        W22153   5.769   8.353   3.572 -0.0805 -0.0652  0.1007
 4630W        W22154   8.873   4.572   2.210 -0.2834 -0.0023  0.0874
 4631W        W22155   9.374  12.337   3.202 -0.0855  0.1641 -0.0370
 4632W        W22156   8.737  16.861   4.479  0.1143 -0.3346  0.0145
 4633W        W22157   7.850   4.602   2.356  0.0627  0.0702  0.1171
 4634W        W22158   8.488  12.111  12.116 -0.1268 -0.0773  0.0655
 4635W        W22159  15.354   1.478   0.672  0.2699 -0.4364 -0.0012
 4636W        W22160  14.019  11.458  13.038 -0.3217  0.1435  0.0216
 4637W        W22161   8.104   3.879   3.553 -0.1513  0.2151 -0.2358
 4638W        W22162  12.751   2.645  13.407 -0.1691  0.0460 -0.1652
 4639W        W22163   4.322  16.198   4.826  0.2265  0.2176  0.1622
 4640W        W22164  12.536   6.160   1.363 -0.1444 -0.0914  0.2252
 4641W        W22165   0.971  16.179  15.416  0.0318 -0.2830  0.0077
 4642W        W22166  12.774   9.194  14.888  0.4559  0.1710  0.2557
 4643W        W22167   2.677   3.192   2.804 -0.3806  0.2862  0.1686
 4644W        W22168   4.415  12.218   3.613 -0.3352  0.0664  0.0210
 4645W        W22169  11.083  13.649  16.020 -0.1793  0.2267  0.2090
 4646W        W22170  13.921   9.097  16.634 -0.0339 -0.1434 -0.1360
 4647W        W22171   4.206   3.179  12.224 -0.1140 -0.1725 -0.1310
 4648W        W22172   5.350   3.855   5.920  0.0122  0.2117 -0.0398
 4649W        W22173  13.784  12.757  17.197 -0.0214 -0.3813  0.0312
 4650W        W22174   4.879   0.793  15.976 -0.0881 -0.1527 -0.0679
 4651W        W22175   6.900  11.860  14.315  0.0531 -0.2884  0.0900
 4652W        W22176   9.002  10.708   2.499  0.3272  0.0291  0.2821
 4653W        W22177  10.385   7.490   4.921  0.1682  0.4296 -0.1895
 4654W        W22178   3.396   0.960  15.629 -0.2172 -0.0740 -0.0205
 4655W        W22179  15.041   2.209  17.238 -0.1852  0.0595  0.1675
 4656W        W22180  12.713   6.458  16.520 -0.0816 -0.0358 -0.0292
 4657W        W22181  12.716   2.769  15.922 -0.0759 -0.0433  0.3458
 4658W        W22182   5.062   4.394  15.145  0.2225 -0.3210  0.3464
 4659W        W22183  15.696  16.076   3.677  0.1455  0.1203 -0.1067
 4660W        W22184   5.661  16.474  16.751  0.0607  0.1131 -0.3405
 4661W        W22185  11.941   2.062  16.409  0.0696 -0.0417 -0.0854
 4662W        W22186   5.287   2.254  13.140  0.2715  0.1714  0.3657
 4663W        W22187   3.527   4.442   2.029  0.0713 -0.1182 -0.2936
 4664W        W22188   1.725   6.006  15.362  0.1526  0.1221 -0.1124
 4665W        W22189   2.834  11.192   1.041  0.1096  0.1371 -0.2642
 4666W        W22190  11.425   5.002  13.711 -0.0993 -0.0824  0.1606
 4667W        W22191  16.091   4.159  13.682  0.3981 -0.2004  0.1485
 4668W        W22192   3.587   0.018  14.655 -0.0164 -0.1194 -0.2452
 4669W        W22193   6.524  15.816   4.718 -0.1666 -0.0796  0.0325
 4670W        W22194  13.496   9.907   0.623  0.0188  0.0851  0.1240
 4671W        W22195   4.699   4.016  13.035  0.1925 -0.0353 -0.0159
 4672W        W22196   4.167   3.176   5.300 -0.3447  0.3252 -0.1203
 4673W        W22197   0.607   2.982  17.340 -0.1216 -0.0713 -0.3156
 4674W        W22198  13.976  13.321   2.878  0.0867 -0.2726 -0.1063
 4675W        W22199  11.400  13.389  12.033  0.4776 -0.0491  0.3955
 4676W        W22200   8.788   9.821  12.309 -0.0209 -0.2482  0.2445
 4677W        W22201  13.995  15.295   0.384 -0.1671  0.1662  0.0630
 4678W        W22202  15.217   9.820   4.136  0.4862 -0.1973  0.1414
 4679W        W22203  16.683  10.210  16.068  0.0714 -0.1199 -0.0296
 4680W        W22204  11.659   7.565  13.970  0.1742  0.1068 -0.1141
 4681W        W22205  12.277  15.650  12.964 -0.1250 -0.0917  0.0051
 4682W        W22206   0.969  11.104   2.945 -0.0154 -0.0757  0.2089
 4683W        W22207   2.527  14.374  13.553 -0.2310  0.2860 -0.0138
 4684W        W22208  12.633  16.779   3.464 -0.2864 -0.2389 -0.2455
 4685W        W22209   8.733  15.669   0.346 -0.0002 -0.1311 -0.1572
 4686W        W22210   4.423   4.813   3.431  0.0921  0.1124  0.3139
 4687W        W22211   0.955   9.683  15.483  0.2085 -0.0701 -0.5074
 4688W        W22212   1.313  16.693  17.277 -0.0160  0.2427 -0.0619
 4689W        W22213   2.757   7.217   3.114  0.1012 -0.0858 -0.0886
 4690W        W22214  11.366  12.809   3.813 -0.2063  0.0436 -0.1490
 4691W        W22215   1.035   9.786  17.676  0.1411  0.0576 -0.0584
 4692W        W22216   2.763  15.579   1.308  0.0341 -0.2723  0.1415
 4693W        W22217  14.416  14.358   0.886  0.2355  0.2749 -0.0886
 4694W        W22218  16.104   0.768   5.316  0.1426  0.1566 -0.4504
 4695W        W22219  15.053   9.234   3.465 -0.2897 -0.0753 -0.0581
 4696W        W22220  15.156   7.759   3.150 -0.0294 -0.1816  0.2760
 4697W        W22221  16.899  16.169  17.381 -0.1352 -0.0980  0.0485
 4698W        W22222   5.753   8.314  15.000 -0.0554 -0.2256 -0.1642
 4699W        W22223   8.845   9.198  12.624 -0.0480 -0.2903  0.3001
 4700W        W22224   4.980  10.888  16.692 -0.0122 -0.0228 -0.0400
 4701W        W22225  15.226   6.980  16.377 -0.1930  0.1100 -0.0974
 4702W        W22226  16.214   9.897   1.389  0.3248 -0.0469  0.0445
 4703W        W22227  16.534   6.344  16.281  0.0481 -0.3612 -0.0083
 4704W        W22228  16.346   6.458   4.589 -0.3455  0.2192  0.0780
 4705W        W22229  12.527   1.254  16.703 -0.2683  0.2506 -0.0396
 4706W        W22230   1.421  17.073   2.149  0.1061 -0.0322 -0.0645
 4707W        W22231  15.233   7.212  12.450  0.1945  0.0133 -0.1559
 4708W        W22232   9.015  12.670  15.707  0.0090  0.1161 -0.1828
 4709W        W22233  13.947  12.948  12.204 -0.0081 -0.1844  0.0347
 4710W        W22234  11.395   5.510  13.782  0.2466 -0.0108 -0.2173
 4711W        W22235  13.957  16.741   1.923  0.2976  0.1427 -0.0612
 4712W        W22236   8.471  16.936  16.382 -0.1879 -0.2006  0.5053
 4713W        W22237  13.647   1.631  15.852 -0.0422 -0.2187 -0.0094
 4714W        W22238   7.920  13.942   3.978 -0.1409 -0.0496  0.0406
 4715W        W22239  10.306  16.488   3.431  0.1120  0.0779  0.0920
 4716W        W22240  11.996   9.551  15.301 -0.1549 -0.1526 -0.1730
 4717W        W22241   8.226   8.576  15.839 -0.0607  0.1676  0.2597
 4718W        W22242   5.862   3.535   4.973 -0.1067 -0.2646  0.0147
 4719W        W22243  11.026  16.194   3.009 -0.2016 -0.0839 -0.0516
 4720W        W22244  10.324   9.129  16.545 -0.1688  0.2994 -0.1354
 4721W        W22245  11.023   6.144  14.679  0.0076 -0.0450  0.0647
 4722W        W22246   6.160   5.649  16.987 -0.0059  0.0237  0.0824
 4723W        W22247   1.102  16.397   3.664 -0.1711  0.1271 -0.0663
 4724W        W22248   5.059   6.926  15.051  0.1638 -0.0941  0.0988
 4725W        W22249   7.204  15.148   3.470  0.0138  0.0745 -0.0508
 4726W        W22250  10.007  12.651  12.676  0.0149  0.1172 -0.4961
 4727W        W22251   9.339   5.178   2.368  0.0164 -0.0125  0.0695
 4728W        W22252  10.708   9.680  16.488  0.0130 -0.2733  0.2609
 4729W        W22253  11.855  13.592  12.888 -0.1587 -0.0388  0.0082
 4730W        W22254  11.941   9.780   1.109  0.0216  0.1179 -0.1675
 4731W        W22255   6.480   8.366  14.525 -0.0689 -0.0064  0.0304
 4732W        W22256  11.516   0.233  17.670  0.0693 -0.0548 -0.0374
 4733W        W22257  11.321  11.696  15.219  0.0921  0.0327 -0.0821
 4734W        W22258  13.806  17.142   1.658 -0.1192  0.1935  0.1946
 4735W        W22259   1.212  15.270  16.214 -0.0458 -0.2081 -0.2782
 4736W        W22260  11.426  13.821   2.785  0.1059  0.0459 -0.0246
 4737W        W22261  12.630   2.185  15.166  0.0655  0.1199 -0.0160
 4738W        W22262  15.903   5.394   1.000 -0.1462  0.0707  0.1855
 4739W        W22263   1.927  17.026  17.226  0.0974 -0.1192 -0.0204
 4740W        W22264   5.797  16.772  15.519 -0.0624  0.2215 -0.1258
 4741W        W22265   4.880   4.500   6.094  0.0864 -0.3483 -0.0416
 4742W        W22266   8.505   5.230   4.965  0.2048  0.2135  0.0685
 4743W        W22267   4.744  14.299  17.008 -0.0539 -0.3360  0.1349
 4744W        W22268  11.929  11.285  16.322  0.1725 -0.0029  0.2256
 4745W        W22269   6.073   2.890   1.440  0.0667  0.0653  0.1925
 4746W        W22270  12.659  13.111  14.555 -0.1710 -0.1349 -0.1316
 4747W        W22271  15.706   8.895   0.132  0.0407 -0.0423  0.1611
 4748W        W22272   4.374  11.671  16.578  0.2390  0.1565  0.2406
 4749W        W22273   6.016  13.451  12.256  0.2123 -0.1686 -0.2362
 4750W        W22274   7.543   5.577  14.431 -0.0437  0.0006 -0.1189
 4751W        W22275   2.027   2.362  16.208  0.1729  0.0189  0.0236
 4752W        W22276  16.429  12.847  17.504 -0.0631  0.7128  0.0219
 4753W        W22277   8.784   3.588   6.270  0.0834 -0.2661  0.0104
 4754W        W22278  13.068  14.017  15.468 -0.0482 -0.1791 -0.3151
 4755W        W22279  13.707   8.367  17.460 -0.0331  0.1814 -0.3268
 4756W        W22280  15.459  10.311   0.126  0.1257  0.0900 -0.0145
 4757W        W22281  14.370  11.686   4.217 -0.1921  0.2442  0.0615
 4758W        W22282   5.843   2.225  13.407 -0.0541  0.0748  0.3612
 4759W        W22283   9.003   0.214   1.629  0.6426 -0.2419 -0.4059
 4760W        W22284  14.260  14.225   3.630 -0.3172  0.0423 -0.1430
 4761W        W22285   1.335  11.569   0.171  0.0876  0.0016  0.3829
 4762W        W22286  11.394   6.692  13.023  0.1439  0.0871  0.0596
 4763W        W22287   5.844  11.859  16.524  0.0170 -0.0069 -0.1017
 4764W        W22288   8.800   1.357  15.272 -0.1320  0.3773 -0.0091
 4765W        W22289   6.583  10.952  17.627 -0.1181 -0.1123  0.1038
 4766W        W22290   6.517   4.559   2.607 -0.0705  0.1369 -0.2452
 4767W        W22291   7.457   0.925  14.869 -0.0690  0.0198  0.0939
 4768W        W22292   3.753   3.290  17.569  0.0646  0.1711 -0.1062
 4769W        W22293  16.753   0.239  14.453 -0.0613  0.1790 -0.4411
 4770W        W22294  10.512  11.191  14.507  0.0347  0.2397  0.2034
 4771W        W22295   5.105   6.419   2.321  0.1926 -0.1175 -0.0131
 4772W        W22296   4.371  10.260  16.014  0.2598  0.1712  0.0833
 4773W        W22297  15.642  13.140   2.377 -0.2100 -0.1800  0.1898
 4774W        W22298   7.399  15.379   1.587  0.2484 -0.1804  0.1357
 4775W        W22299   7.229  17.109   3.946  0.3441 -0.2012  0.2603
 4776W        W22300  13.898  10.338  14.261 -0.1513  0.1504  0.1659
 4777W        W22301  16.009   5.752  12.961 -0.2042 -0.1437 -0.0418
 4778W        W22302   4.497  14.339   1.096 -0.2609 -0.0209 -0.3627
 4779W        W22303   4.967  16.940   4.019 -0.3004 -0.1067 -0.0537
 4780W        W22304   0.863   5.537  15.542  0.0458  0.4101 -0.2572
 4781W        W22305   2.990   9.153  13.170 -0.2070 -0.0038 -0.2531
 4782W        W22306   8.720   0.238  13.686 -0.1150  0.1751  0.0376
 4783W        W22307   4.405  12.660  14.493  0.0257 -0.3033 -0.1530
 4784W        W22308  16.090   7.911   2.121  0.1015  0.0999  0.1127
 4785W        W22309   2.546   4.786  14.170 -0.0494 -0.2015 -0.0067
 4786W        W22310   9.434  16.886   3.149  0.0597  0.2320  0.0691
 4787W        W22311   2.351   1.725   3.408  0.0851 -0.1609  0.1613
 4788W        W22312   8.961   9.199  14.702  0.0390  0.0250 -0.1509
 4789W        W22313   7.985   6.158  12.035 -0.3191  0.3103 -0.2256
 4790W        W22314   2.121  12.018  13.630 -0.1106  0.0401 -0.3298
 4791W        W22315   4.372   9.130   1.783  0.1033 -0.2146  0.0256
 4792W        W22316  14.576   1.671  12.583  0.1399 -0.0192  0.0320
 4793W        W22317   1.720   7.673   2.580  0.1698 -0.0347  0.2060
 4794W        W22318  10.067   8.252   0.188 -0.2020  0.0687  0.2000
 4795W        W22319   2.275   5.130  17.716  0.2617  0.1333  0.0036
 4796W        W22320  10.678   4.000  14.549  0.2066  0.0241  0.0602
 4797W        W22321   4.298   9.711   1.087 -0.1114  0.2149 -0.2699
 4798W        W22322   7.100   4.495  13.556 -0.1545 -0.1854  0.3185
 4799W        W22323   4.166   1.021  17.701  0.2063 -0.4212 -0.1384
 4800W        W22324   6.512  11.793   1.780 -0.0980 -0.1349  0.1770
 4801W        W22325   0.621   2.967   1.431 -0.2901  0.1244 -0.2107
 4802W        W22326   8.456  11.877  16.582 -0.0877 -0.0268  0.1182
 4803W        W22327   8.280   8.673  17.363  0.4367  0.0395 -0.2672
 4804W        W22328   2.197  11.354  14.243  0.0310 -0.1646  0.0718
 4805W        W22329  16.437   2.661   1.718  0.2917 -0.0651  0.0846
 4806W        W22330  10.651   1.910   3.706  0.1285  0.1092 -0.1359
 4807W        W22331   8.229   2.287   0.132 -0.3666 -0.1483  0.1108
 4808W        W22332   6.934   2.604   1.610 -0.2712  0.2446  0.4205
 4809W        W22333  16.776  13.818   3.938  0.0678 -0.0659  0.0584
 4810W        W22334  15.431   6.899   0.540  0.1293  0.2868 -0.1507
 4811W        W22335   7.695  10.654  12.220 -0.1941  0.3445 -0.1694
 4812W        W22336   9.188   9.767  13.334 -0.1564  0.0292 -0.0892
 4813W        W22337   9.902   0.927  14.828 -0.2393  0.0483  0.0037
 4814W        W22338   0.984  15.368  15.206 -0.2648 -0.1896 -0.2313
 4815W        W22339   8.208   4.661  15.490  0.0082  0.0165  0.0003
 4816W        W22340  16.079  16.810  12.527  0.0115 -0.0969 -0.0581
 4817W        W22341   5.281   1.305  12.390  0.1170  0.3427 -0.1025
 4818W        W22342   4.645  14.664   4.897 -0.2173  0.2705  0.3316
 4819W        W22343  17.058  14.899  14.472 -0.1999  0.3060 -0.2856
 4820W        W22344  12.075  10.148  14.505  0.1016  0.0776  0.0661
 4821W        W22345   7.317   0.237   4.551 -0.1418  0.1734  0.2501
 4822W        W22346   2.758   3.557  15.741  0.0115 -0.0737  0.1098
 4823W        W22347   9.549  15.596   4.735  0.2184 -0.2647  0.0513
 4824W        W22348   1.833   1.286  14.833  0.1490 -0.0958  0.1652
 4825W        W22349   9.943   2.766   0.851 -0.0379 -0.0427  0.2061
 4826W        W22350   9.295   1.194  13.699  0.3149 -0.2885 -0.0427
 4827W        W22351   1.053   0.869   3.189 -0.0638 -0.0921  0.2212
 4828W        W22352   5.500   0.548   0.197 -0.2183  0.1753 -0.0265
 4829W        W22353   1.680  11.339  12.705  0.1137 -0.1132 -0.0258
 4830W        W22354   6.071   4.180  13.038  0.0065  0.2864 -0.1267
 4831W        W22355   8.717   4.252  13.889  0.2592  0.1380  0.0758
 4832W        W22356  14.967   5.243  14.288 -0.3946  0.0290  0.1091
 4833W        W22357   9.939  11.011   5.840 -0.1288 -0.1387 -0.1610
 4834W        W22358  14.245   1.529  16.684  0.0963 -0.0835 -0.1725
 4835W        W22359   8.400  16.904  13.550  0.0183  0.0206 -0.3249
 4836W        W22360   0.660  13.971  16.590 -0.1133 -0.1672  0.0334
 4837W        W22361  16.685   2.689   0.105 -0.0697 -0.0607  0.0233
 4838W        W22362  16.293  15.864   0.602  0.3305 -0.0993  0.0828
 4839W        W22363  13.008  16.337  12.003 -0.2832  0.1504  0.1717
 4840W        W22364  12.720  15.779  12.774 -0.0069 -0.2181  0.0434
 4841W        W22365   8.736   6.307  15.163  0.1683 -0.0143 -0.1467
 4842W        W22366   5.794  14.774  12.341 -0.0953  0.1466  0.2060
 4843W        W22367   7.856   3.857  14.019  0.0230  0.0079  0.3652
 4844W        W22368   4.898  13.391  14.079  0.0572  0.1625 -0.1404
 4845W        W22369   9.554  13.290  14.140  0.1891 -0.2231 -0.0440
 4846W        W22370  11.062  14.652  17.291 -0.1620 -0.0592 -0.0260
 4847W        W22371  16.713   6.371   4.248  0.0416  0.2608 -0.2016
 4848W        W22372  15.081   3.110   5.538  0.1248  0.1275  0.1227
 4849W        W22373   9.506  15.325  12.974 -0.1620 -0.2069  0.0594
 4850W        W22374  12.110   7.839   1.186  0.1602 -0.0655 -0.1444
 4851W        W22375  15.381   6.729  13.604  0.2896  0.1341  0.2624
 4852W        W22376  11.043   5.357  12.363  0.0602  0.0326 -0.2778
 4853W        W22377  16.041   4.783  16.089 -0.0528  0.0824  0.0583
 4854W        W22378  10.409   3.024  15.152  0.1772 -0.0338  0.3061
 4855W        W22379   7.669   6.156  13.296  0.2263  0.1020 -0.1905
 4856W        W22380  17.096  14.078   3.507  0.3077 -0.3349  0.0048
 4857W        W22381  10.877   2.866   6.665  0.0754  0.0067 -0.2304
 4858W        W22382   1.587   3.737   2.671  0.0708  0.0031 -0.0286
 4859W        W22383   6.533   3.686  17.662 -0.3261 -0.0503 -0.3245
 4860W        W22384   9.727  15.107   3.511  0.0506 -0.0303 -0.0097
 4861W        W22385   4.826   2.225  15.431  0.0498 -0.3580  0.2789
 4862W        W22386   6.298   9.230  17.448  0.0317 -0.1136  0.0510
 4863W        W22387  12.861  15.932  15.845  0.1477 -0.0719 -0.0897
 4864W        W22388   7.873  14.189  13.443 -0.1011  0.2258 -0.2548
 4865W        W22389   1.189  14.904  16.592 -0.0209  0.2279  0.2510
 4866W        W22390   8.890   5.310  15.361 -0.1619 -0.0602 -0.2382
 4867W        W22391   6.182   1.501  16.559 -0.1397 -0.0194 -0.1249
 4868W        W22392   1.019   3.285   1.337 -0.0983  0.0255 -0.0544
 4869W        W22393  10.797   9.119  16.359 -0.1755 -0.2637  0.0333
 4870W        W22394   1.439   3.124   2.975  0.3984  0.2217 -0.0632
 4871W        W22395   3.388  12.884   2.828  0.0885 -0.0295 -0.2629
 4872W        W22396   7.718  14.440  16.650  0.0142  0.0463  0.0162
 4873W        W22397   3.125   3.240   3.142  0.4126  0.1009  0.1658
 4874W        W22398  13.790   9.219   0.205  0.2729 -0.0854 -0.2008
 4875W        W22399   5.376  11.901  15.141 -0.3892 -0.1606 -0.0259
 4876W        W22400  13.171  12.858  14.377  0.1085  0.0701 -0.0041
 4877W        W22401   0.969  14.063   0.625  0.0665 -0.2127  0.0364
 4878W        W22402   8.681  16.395   0.842 -0.1050  0.1355  0.2921
 4879W        W22403   5.392  10.904   0.654 -0.0487 -0.3524 -0.0138
 4880W        W22404   9.096  16.807  15.650  0.1071  0.4314 -0.2225
 4881W        W22405  16.404  10.779   5.516 -0.1124 -0.0351  0.3639
 4882W        W22406  13.385   6.338   5.363 -0.1025  0.1131  0.2300
 4883W        W22407  14.906   4.253   4.671 -0.0808 -0.2488 -0.0255
 4884W        W22408   3.987   9.599  12.203  0.2004 -0.0911 -0.0430
 4885W        W22409   1.964   4.530  15.386  0.1308 -0.0155  0.0296
 4886W        W22410  12.738  15.492   2.941  0.1369  0.0993  0.4535
 4887W        W22411   7.542  10.226   5.120  0.3400 -0.0368 -0.0979
 4888W        W22412  12.211   4.089   1.933 -0.1556 -0.1208 -0.3009
 4889W        W22413  13.109  12.845  16.645 -0.0878 -0.1475 -0.0239
 4890W        W22414  11.365   4.865  15.301 -0.5027  0.1115 -0.0918
 4891W        W22415   6.292  16.119  14.342 -0.1279  0.5638  0.1121
 4892W        W22416  13.451   6.484  16.175 -0.0478 -0.1683 -0.3161
 4893W        W22417  10.045  12.647  16.787  0.1122  0.0203 -0.0141
 4894W        W22418  16.098  14.634  12.901 -0.2397 -0.0292 -0.0368
 4895W        W22419   8.615   8.790   2.998  0.2419  0.0961 -0.1273
 4896W        W22420  13.233   6.323   5.865  0.1829  0.1857  0.0588
 4897W        W22421   6.452   0.601  13.542 -0.1245 -0.3388 -0.0067
 4898W        W22422   1.607  12.390  12.981  0.0230  0.1028  0.0354
 4899W        W22423   9.410  15.354  17.649 -0.1697 -0.0932 -0.1257
 4900W        W22424  14.480   5.998  14.034  0.0326 -0.0141 -0.0392
 4901W        W22425   5.669   4.145  13.431 -0.0313  0.0181 -0.0679
 4902W        W22426  16.252   9.467  15.002 -0.0014  0.0825 -0.0152
 4903W        W22427   8.183   9.946  17.010 -0.1083  0.0574 -0.0556
 4904W        W22428   9.258  14.595   1.949  0.0104  0.0988 -0.0187
 4905W        W22429   7.353  13.448   3.173  0.2504 -0.0117  0.0855
 4906W        W22430   7.849  13.338   2.919 -0.2493 -0.5041  0.0310
 4907W        W22431   6.773  16.954   1.938  0.2421  0.0648 -0.0825
 4908W        W22432   0.248   9.215   0.132 -0.1498 -0.0169  0.0314
 4909W        W22433  12.510   1.395  12.726  0.0984  0.2138  0.1810
 4910W        W22434  10.406   2.640   2.972  0.0506  0.0695 -0.0991
 4911W        W22435   5.584   7.002  13.103  0.2872 -0.2384 -0.1173
 4912W        W22436   6.197   1.398   3.839 -0.1170 -0.1533 -0.0981
 4913W        W22437   5.356  12.003  16.516  0.2201  0.0786  0.1406
 4914W        W22438  10.699   6.183   5.326  0.3103  0.1180  0.0761
 4915W        W22439   6.476   5.945  15.353 -0.2289  0.1150  0.2550
 4916W        W22440  10.631   1.061   3.929 -0.0963  0.1678  0.2407
 4917W        W22441   4.924  13.724   3.661 -0.2370  0.0826 -0.1365
 4918W        W22442  14.017  17.137   5.344 -0.1314  0.2710  0.1125
 4919W        W22443   6.658   3.840   3.904 -0.1503  0.3078  0.1553
 4920W        W22444   4.231  14.058  15.137  0.2783 -0.0470  0.0252
 4921W        W22445   6.633   6.909  13.075  0.0557 -0.1863 -0.1031
 4922W        W22446   5.593  15.021   5.097 -0.1357  0.1334 -0.1060
 4923W        W22447   8.077   4.589   3.348 -0.3117  0.1818 -0.1791
 4924W        W22448   4.307   2.509   3.910 -0.2281 -0.1476  0.0526
 4925W        W22449   9.730   5.097  14.510 -0.1351  0.0105 -0.1779
 4926W        W22450   5.390  10.176  14.497  0.2634 -0.1296 -0.1682
 4927W        W22451  11.555   2.179   4.713 -0.0362 -0.1732 -0.0491
 4928W        W22452   7.059   8.277  15.596  0.3129  0.0902  0.2457
 4929W        W22453  11.025   2.816   4.763 -0.0124  0.1772 -0.1730
 4930W        W22454  14.955   8.665  14.852 -0.0490 -0.1158 -0.1916
 4931W        W22455   7.625  13.038  16.777 -0.5724 -0.1114 -0.1318
 4932W        W22456  14.294   9.226  14.718 -0.1394  0.1125 -0.3533
 4933W        W22457   3.824  12.564  17.454  0.2079  0.1829 -0.1188
 4934W        W22458   1.034   3.420   5.424 -0.1991 -0.4006  0.0948
 4935W        W22459  10.351  11.841   2.409  0.3922 -0.4164 -0.0841
 4936W        W22460  15.270  13.582  13.954  0.0281  0.0805 -0.3445
 4937W        W22461   8.988   7.788  14.035 -0.4504 -0.0767  0.6403
 4938W        W22462  10.691  12.323  17.001  0.1226  0.0657 -0.0845
 4939W        W22463   9.462   4.635  13.415 -0.2368 -0.1984  0.1062
 4940W        W22464   8.652  16.887  12.385  0.1252 -0.2292  0.2471
 4941W        W22465   9.541  15.639   3.283 -0.3763 -0.1649 -0.1291
 4942W        W22466  13.971  14.341   3.147  0.0094  0.2400  0.0751
 4943W        W22467  12.257   2.480   4.202 -0.1753  0.0932 -0.3567
 4944W        W22468  13.200  17.033  14.290  0.0451 -0.3853 -0.0616
 4945W        W22469   7.851  10.268  17.640  0.1879  0.2532  0.1188
 4946W        W22470  13.849  13.802   3.001 -0.2345  0.2235 -0.3238
 4947W        W22471  12.941   3.829  16.941 -0.0097 -0.0060  0.0021
 4948W        W22472  13.183  16.792   3.489  0.0497 -0.0034  0.0284
 4949W        W22473  16.746   4.078   5.406  0.3558  0.2716  0.2344
 4950W        W22474   5.117   6.202   3.689  0.0211 -0.0488 -0.0394
 4951W        W22475   5.810   9.053   3.540 -0.1622  0.1102 -0.0058
 4952W        W22476  15.044  14.296  12.830  0.0869  0.0042  0.1074
 4953W        W22477  14.935   0.393   3.344  0.4376 -0.0644 -0.0813
 4954W        W22478   2.183  13.521  15.656  0.1479  0.1570 -0.0718
 4955W        W22479  14.311  14.277   4.273  0.1977  0.0815  0.0966
 4956W        W22480   4.215   8.063  14.088  0.4062 -0.0550 -0.1121
 4957W        W22481   3.895   2.420   5.205 -0.0661 -0.0884 -0.1889
 4958W        W22482  11.071   0.256  14.948  0.1409  0.1427  0.0561
 4959W        W22483   5.780   3.809   3.937 -0.0756  0.1334  0.0362
 4960W        W22484   2.568  15.955  14.420  0.1863 -0.0183  0.2605
 4961W        W22485  15.343   1.863  15.191 -0.4817  0.1647  0.0986
 4962W        W22486  15.247   3.655   1.408 -0.0897 -0.0477  0.0491
 4963W        W22487   0.341   5.381  16.891 -0.0257  0.0998  0.1916
 4964W        W22488   4.158   6.842   1.456 -0.0808  0.2596 -0.2575
 4965W        W22489   8.848   0.187   4.468 -0.3030 -0.0795  0.1354
 4966W        W22490  10.841  16.521   2.420 -0.1588  0.1074  0.4719
 4967W        W22491  10.765  12.643   1.944 -0.1445  0.1195  0.1179
 4968W        W22492   8.766   4.112  15.140  0.0760 -0.0066  0.1813
 4969W        W22493  11.571  13.485  16.128 -0.1571  0.1708  0.0909
 4970W        W22494  16.768  13.788   1.100  0.2922  0.1669  0.2733
 4971W        W22495  14.343  10.877   2.613 -0.1639 -0.2113 -0.1269
 4972W        W22496  11.970   5.338   1.863 -0.1658 -0.0801 -0.1600
 4973W        W22497   5.874   9.760   0.332 -0.1742  0.1749  0.1676
 4974W        W22498   1.437  10.094   3.105 -0.1684  0.1846 -0.0378
 4975W        W22499  13.033   0.269   0.357  0.1511 -0.1380 -0.1671
 4976W        W22500  13.763   2.222  14.552  0.2304  0.0636  0.0557
 4977W        W22501   5.935   3.517  14.640  0.0592 -0.0448  0.2550
 4978W        W22502  14.716   7.637  17.339  0.0420  0.1099  0.1240
 4979W        W22503  13.945   6.051  17.228  0.2620  0.0122  0.0398
 4980W        W22504  16.698  10.388   2.448 -0.0075  0.0722  0.3374
 4981W        W22505  13.310   8.378  12.350  0.0089 -0.2736  0.1105
 4982W        W22506   2.657  12.353  16.860  0.0402  0.1427 -0.1111
 4983W        W22507  12.066   6.888  16.172 -0.1634 -0.0188  0.0513
 4984W        W22508   4.296  14.385   4.591  0.0901 -0.0820 -0.1013
 4985W        W22509   7.681   4.425  16.998  0.0552 -0.1970 -0.2432
 4986W        W22510   1.574   9.157   5.279 -0.4841  0.0044  0.2918
 4987W        W22511   2.265   3.524   6.249 -0.1875 -0.0750  0.2819
 4988W        W22512  13.745  15.962  16.901 -0.0710 -0.1607 -0.0163
 4989W        W22513  11.415   4.484  13.667 -0.3053  0.1148  0.2096
 4990W        W22514   8.066   9.506  16.755 -0.0680  0.3071 -0.0536
 4991W        W22515   1.109  10.484   1.165 -0.0630 -0.0557  0.0113
 4992W        W22516   2.710   3.883   0.567 -0.0502 -0.1367 -0.0890
 4993W        W22517  11.887   8.983  15.473 -0.1604  0.2766  0.1369
 4994W        W22518   5.664   0.425   5.795 -0.1819  0.1829 -0.1512
 4995W        W22519  11.621   5.147   2.679 -0.1295  0.2846  0.1176
 4996W        W22520   7.914   9.808  13.923 -0.3595 -0.1987  0.1214
 4997W        W22521  14.811   0.620  14.688 -0.2578  0.2841 -0.2308
 4998W        W22522   6.551   9.755  12.495 -0.1528 -0.2411 -0.2312
 4999W        W22523   8.449  15.318  17.183  0.0661 -0.2570 -0.4523
 5000W        W22524  11.526  14.135  16.701  0.0663  0.1418  0.1813
 5001W        W22525  11.405  16.475  11.966  0.1142  0.0290 -0.1535
 5002W        W22526  16.659   2.056  17.455  0.2318 -0.1145  0.0341
 5003W        W22527  11.529   3.521   4.009  0.0292  0.1123  0.0946
 5004W        W22528   4.326   4.149  12.600 -0.1022 -0.0266  0.2972
 5005W        W22529   3.548  16.083  16.941  0.2478 -0.0263 -0.1233
 5006W        W22530  15.111   1.812  13.838 -0.3892 -0.1614 -0.1403
 5007W        W22531  16.144   9.568   1.752  0.4050 -0.3197  0.0175
 5008W        W22532   6.855   3.815  13.880 -0.1966  0.1137 -0.1501
 5009W        W22533   5.817   3.377   4.419 -0.0062  0.0545  0.2144
 5010W        W22534   9.448   5.189   5.231 -0.1004 -0.1909 -0.0556
 5011W        W22535   1.668   3.886   2.114 -0.2182 -0.0333  0.1398
 5012W        W22536   9.559  16.658  12.702 -0.2960 -0.1881 -0.1784
 5013W        W22537  16.539  11.389  15.351  0.1977 -0.0668 -0.3061
 5014W        W22538  12.757   9.386  15.475  0.0337 -0.0998 -0.0915
 5015W        W22539  11.571  10.880  14.995  0.0886  0.2131  0.0492
 5016W        W22540   2.132  14.316  13.976  0.1486 -0.1048 -0.0112
 5017W        W22541   4.538   9.929  14.836 -0.1168 -0.0013 -0.1242
 5018W        W22542   1.906  10.470  14.074 -0.2054  0.2158 -0.0094
 5019W        W22543  16.761  14.921  15.405  0.2667  0.0565  0.0953
 5020W        W22544   6.722  16.727   6.160  0.2964 -0.3175 -0.0160
 5021W        W22545  13.974  16.844  14.825  0.0194 -0.4147 -0.1318
 5022W        W22546  13.286   3.440  16.748 -0.1843  0.0600 -0.1048
 5023W        W22547   0.399   3.930   5.891 -0.0620 -0.2582  0.1969
 5024W        W22548  12.464  12.490   4.610 -0.0060  0.0821  0.1502
 5025W        W22549   7.541   6.490  17.384 -0.1256 -0.0216  0.3828
 5026W        W22550   4.205  13.129  12.567 -0.1284  0.0722  0.3534
 5027W        W22551   2.371   3.337  14.622  0.1782 -0.0479 -0.0275
 5028W        W22552   3.721   5.128  15.905  0.0493 -0.0237  0.2492
 5029W        W22553  13.618   8.967   4.553 -0.2992 -0.2379  0.0118
 5030W        W22554   5.195   3.067  16.358  0.2702  0.1612  0.3950
 5031W        W22555   0.459   7.857  12.528 -0.0574 -0.0931 -0.0506
 5032W        W22556  12.124  10.736   1.908 -0.0825  0.0602 -0.0861
 5033W        W22557  15.857   9.889   3.471  0.1739  0.0431 -0.1134
 5034W        W22558   1.944   4.305   3.356  0.0212 -0.2330 -0.0038
 5035W        W22559   4.012  15.388   6.283 -0.2993  0.0793  0.2752
 5036W        W22560   6.399   6.445   4.711 -0.0384 -0.1497 -0.0511
 5037W        W22561   7.045   4.121   4.191  0.0531 -0.4210 -0.1094
 5038W        W22562  15.452  11.617   5.201  0.0259 -0.1990  0.3559
 5039W        W22563  14.629   0.764  17.344 -0.1465  0.1448  0.1911
 5040W        W22564  15.433   0.490   3.219  0.1937 -0.2301  0.0329
 5041W        W22565  15.778  15.433   1.984 -0.0519 -0.2729 -0.2922
 5042W        W22566  13.376  14.838   1.033  0.1686 -0.2744  0.3392
 5043W        W22567  14.200   5.064   5.282 -0.0489  0.0519 -0.0290
 5044W        W22568   3.860   6.272  17.123 -0.0050  0.0598  0.2531
 5045W        W22569   7.323   0.379   2.056  0.1930 -0.0280 -0.0318
 5046W        W22570   2.674   6.866   0.948 -0.1223 -0.2214  0.0483
 5047W        W22571   7.819  15.037   0.301 -0.0730  0.0534  0.0331
 5048W        W22572   0.374   4.395  14.087  0.1682  0.2973 -0.2591
 5049W        W22573   4.204  15.238  14.943  0.1091  0.0848  0.2269
 5050W        W22574  12.209   7.761  16.691  0.3705 -0.1046 -0.0173
 5051W        W22575   5.501   8.112   1.561  0.3252  0.0448  0.1720
 5052W        W22576   7.177   6.761  15.978 -0.0313  0.0059 -0.3787
 5053W        W22577   6.016  15.856  16.095 -0.0984  0.0891  0.0574
 5054W        W22578  13.705   5.123   0.607  0.0702  0.0951  0.1799
 5055W        W22579  11.674  13.629   3.640 -0.2334  0.2446 -0.1738
 5056W        W22580   1.002   2.145   3.635  0.3175 -0.4198  0.0252
 5057W        W22581  11.547   9.944  13.143 -0.0975 -0.3016 -0.1804
 5058W        W22582  16.766   7.340  15.268  0.0109  0.1850 -0.2614
 5059W        W22583  15.087   6.646   4.625 -0.1588 -0.0560 -0.1323
 5060W        W22584  16.046   7.084  12.108 -0.0411  0.1298 -0.2237
 5061W        W22585   0.461  12.503  16.877  0.1056  0.0652 -0.3584
 5062W        W22586  11.097   2.201   5.685 -0.1658  0.0293  0.3219
 5063W        W22587  16.981   8.725   0.976 -0.2242 -0.1515 -0.0947
 5064W        W22588  11.497   4.137  14.208 -0.0159  0.2006  0.2069
 5065W        W22589   3.866  12.602   4.192 -0.1636  0.1646 -0.1415
 5066W        W22590  11.263  13.138  15.991 -0.0526  0.2380  0.0978
 5067W        W22591  14.381   9.171  16.441  0.1139  0.1223 -0.3017
 5068W        W22592   8.639   7.865  12.714 -0.1455 -0.0138  0.1147
 5069W        W22593   8.288   4.759   4.125  0.1253 -0.1572 -0.2945
 5070W        W22594   7.351   3.337   3.496  0.2087  0.2521  0.0494
 5071W        W22595   3.549   5.116  14.625 -0.0601  0.0859  0.2030
 5072W        W22596   4.338   8.137   3.845  0.0767 -0.0693 -0.1938
 5073W        W22597  10.543  10.781   0.524 -0.2136 -0.1978  0.1083
 5074W        W22598   8.730  13.697   3.632 -0.1552 -0.2103  0.4564
 5075W        W22599  16.412   9.413   3.345  0.3633  0.1461 -0.2528
 5076W        W22600   8.347   4.216   3.211 -0.0452  0.0540  0.1508
 5077W        W22601  10.691   9.123   2.169  0.1257 -0.2045  0.2476
 5078W        W22602  14.857  10.244  14.920  0.2444 -0.0884  0.0113
 5079W        W22603  16.628  10.802   3.867  0.0061  0.0589  0.0224
 5080W        W22604   3.347   2.583   0.105 -0.3282  0.1413  0.1156
 5081W        W22605  15.245   7.809  17.331 -0.0295 -0.1886 -0.2925
 5082W        W22606  11.522   5.922   0.760 -0.1885 -0.0517  0.1373
 5083W        W22607  10.606  16.189  12.521  0.0139  0.3094  0.0514
 5084W        W22608   3.536   3.281  16.157  0.2204  0.1680 -0.0998
 5085W        W22609   5.508  14.675   2.970  0.4198 -0.0642  0.1306
 5086W        W22610   6.691   4.144  16.176  0.2769  0.1256  0.0806
 5087W        W22611   8.766  15.020  16.837  0.2646 -0.0355 -0.0105
 5088W        W22612   7.803   6.394   3.758 -0.0107 -0.0301  0.0060
 5089W        W22613   5.234   5.946  15.946 -0.0745  0.0606 -0.1422
 5090W        W22614  17.054  13.596  17.050  0.2245  0.0664  0.1089
 5091W        W22615   3.284  14.465  16.121 -0.0319  0.2759 -0.2727
 5092W        W22616   7.211   2.698  14.522  0.3396  0.1976 -0.0620
 5093W        W22617  15.780  11.244   1.116  0.3626  0.2189 -0.1855
 5094W        W22618   9.713  16.727  16.633  0.3511 -0.0679  0.1558
 5095W        W22619  10.442   3.767   1.600 -0.0351 -0.2550 -0.2245
 5096W        W22620  16.070  14.034   1.579 -0.0016  0.2123 -0.0765
 5097W        W22621  15.255  13.543   5.484 -0.0400 -0.0277  0.0177
 5098W        W22622   8.338   9.945  14.828  0.0541 -0.0290 -0.0904
 5099W        W22623   8.800   9.955   5.053 -0.1606  0.0924  0.0116
 5100W        W22624   6.780   3.966  14.333  0.0126 -0.4093  0.2635
 5101W        W22625   8.149  15.834  14.904  0.1547 -0.2950  0.0598
 5102W        W22626  10.534   3.617   2.062  0.0476 -0.0591  0.0609
 5103W        W22627   7.702  12.007   5.087 -0.1150  0.1609 -0.0512
 5104W        W22628   9.391   5.442  15.470  0.0762  0.2166  0.2687
 5105W        W22629  10.776   7.226   1.945  0.0687 -0.1424 -0.0599
 5106W        W22630   4.357  15.919   1.789 -0.3331  0.1332 -0.1748
 5107W        W22631   3.354   4.462   4.136 -0.0256  0.1354  0.0870
 5108W        W22632   9.574  15.339  11.509  0.0372  0.0756  0.0905
 5109W        W22633  12.567   6.909  13.189 -0.0412 -0.1010  0.0660
 5110W        W22634  16.931  14.093  16.949 -0.1035 -0.0501  0.3511
 5111W        W22635  16.626   9.797  15.668  0.2765 -0.1795 -0.2154
 5112W        W22636  16.271  16.337   2.168  0.1067 -0.2019  0.6226
 5113W        W22637  12.858   4.771  16.294  0.1220 -0.0537 -0.1600
 5114W        W22638  13.393   9.440   0.506  0.1626 -0.0814 -0.1845
 5115W        W22639  13.787   7.249   3.202 -0.1322  0.2936  0.1823
 5116W        W22640   3.866  15.275  14.566 -0.0050  0.2921 -0.0670
 5117W        W22641   3.368  16.447  17.239 -0.0938 -0.1627  0.0332
 5118W        W22642  12.614  14.981  13.010  0.3124  0.2253 -0.1371
 5119W        W22643   1.416   9.567   0.700  0.0427 -0.0296 -0.0393
 5120W        W22644   1.031  13.124   1.296  0.0083 -0.1570  0.0812
 5121W        W22645  10.560   0.616  15.738 -0.0098 -0.0297 -0.2938
 5122W        W22646  12.464   2.373  14.221 -0.0250 -0.2191  0.0888
 5123W        W22647   6.226  12.023   1.383  0.0768  0.1214 -0.2647
 5124W        W22648   1.782   3.843   1.061  0.0232  0.2016 -0.0675
 5125W        W22649   5.693   9.297  15.615  0.0057 -0.2934  0.2557
 5126W        W22650   8.237  12.428   4.338 -0.4325 -0.1225  0.0388
 5127W        W22651  16.519  14.493  15.892  0.2524  0.0749  0.0010
 5128W        W22652   9.977  14.201  13.277  0.2040  0.1480  0.1457
 5129W        W22653   5.129  15.009   4.418  0.1084 -0.0411 -0.0555
 5130W        W22654  10.652  14.076   1.323 -0.0011  0.0196 -0.1413
 5131W        W22655  11.983   7.868  16.202 -0.0237  0.2633  0.0648
 5132W        W22656   8.510  12.715   3.935  0.0649  0.1676 -0.1027
 5133W        W22657  10.996  10.646  13.901  0.0445 -0.0318  0.0635
 5134W        W22658  12.876   7.134  12.865 -0.0671  0.0652 -0.1459
 5135W        W22659   8.306  17.134  13.964  0.1784  0.1589 -0.0160
 5136W        W22660   3.350   4.882  15.523 -0.1069  0.0262  0.1629
 5137W        W22661   3.841  13.508  14.285  0.0104  0.0239 -0.1693
 5138W        W22662  14.176   3.264  16.696 -0.0094  0.3681 -0.1259
 5139W        W22663   5.277  12.864   5.088  0.3049 -0.1415  0.1512
 5140W        W22664  13.616   2.659  14.679  0.3001 -0.1051 -0.0107
 5141W        W22665   2.580   3.132   1.601  0.2957  0.0274 -0.0505
 5142W        W22666   3.465  12.347  14.811 -0.3194  0.0090  0.2291
 5143W        W22667   1.346   2.462   1.021  0.2130  0.2518 -0.1247
 5144W        W22668   8.776  12.775   2.707  0.1365  0.2111 -0.1585
 5145W        W22669  15.872  12.342   1.764 -0.0777 -0.0275 -0.0787
 5146W        W22670   7.574  11.407   0.633 -0.2640 -0.1622 -0.0430
 5147W        W22671  13.071  14.967  12.609  0.1003 -0.2176  0.0077
 5148W        W22672  11.408   0.257  12.184  0.1789 -0.0792 -0.2815
 5149W        W22673   8.096   0.415  12.868 -0.0622 -0.0004 -0.3347
 5150W        W22674  15.161   1.005  11.984 -0.1604 -0.3165  0.0503
 5151W        W22675   7.807   5.602   5.312 -0.1488  0.1267  0.0168
 5152W        W22676   2.193  14.039   0.909 -0.0505  0.1994  0.1040
 5153W        W22677   9.349  14.956   2.766  0.0019  0.0001 -0.4387
 5154W        W22678   6.742  11.374   1.980 -0.1202 -0.1306 -0.0517
 5155W        W22679   3.905   2.792   3.683 -0.0305  0.0697 -0.2496
 5156W        W22680  14.016  15.269  15.081  0.2428 -0.0063 -0.1017
 5157W        W22681  12.751   7.356   4.727 -0.1281 -0.1201  0.0217
 5158W        W22682   2.481   8.955   4.892  0.1730  0.0754  0.2205
 5159W        W22683  15.421   9.092  16.761  0.0175  0.1678  0.0104
 5160W        W22684   2.655   6.913   3.967  0.2308  0.0741  0.1071
 5161W        W22685   7.448   0.654  15.464  0.3185  0.1047 -0.0038
 5162W        W22686   3.915  16.188   3.557 -0.3464 -0.2158  0.0301
 5163W        W22687   7.649  13.649   4.460 -0.2881 -0.0997 -0.2077
 5164W        W22688  12.630  13.454  12.476  0.2451 -0.0238 -0.2515
 5165W        W22689  10.473   7.028   5.358  0.0420  0.3800 -0.0335
 5166W        W22690   1.481  13.385  13.892  0.0910  0.1305  0.0338
 5167W        W22691   2.308  13.025   4.365 -0.0963  0.0438  0.0199
 5168W        W22692   1.597  16.149  17.180  0.2347  0.2653  0.1076
 5169W        W22693   0.859   1.895  16.866 -0.0183 -0.0198 -0.0336
 5170W        W22694   8.079  12.795   4.823 -0.1542  0.2199 -0.3477
 5171W        W22695   9.784   8.876   4.515  0.2509  0.0966  0.1439
 5172W        W22696  12.803   8.372  15.621 -0.0173 -0.0929 -0.2236
 5173W        W22697  15.927  12.250   4.523 -0.1886  0.0671 -0.0666
 5174W        W22698   1.362  12.659   5.466 -0.1139 -0.2232  0.0076
 5175W        W22699   7.745  12.298   4.639 -0.3351 -0.1178 -0.3704
 5176W        W22700   6.201   0.408  12.524 -0.1994 -0.1006  0.0337
 5177W        W22701  10.182  12.332  17.134  0.0879 -0.1509  0.2996
 5178W        W22702   0.907   5.781   2.920 -0.2101  0.0221  0.1856
 5179W        W22703   4.256   4.987   5.557 -0.1072  0.3632 -0.1242
 5180W        W22704   5.127  11.468  14.326 -0.2033 -0.0680  0.1273
 5181W        W22705   0.269   0.078  16.445 -0.1947 -0.0652 -0.1729
 5182W        W22706  17.148   7.711   1.366 -0.0039 -0.1121  0.0278
 5183W        W22707   8.093   5.937  16.933  0.0121  0.5828  0.1038
 5184W        W22708   1.475  13.251   2.734  0.2300 -0.4877 -0.2941
 5185W        W22709   2.791   9.906  16.161 -0.0984  0.0222 -0.0210
 5186W        W22710   8.370  14.070   6.560  0.0226 -0.0238 -0.1471
 5187W        W22711  11.795   5.819   4.881 -0.1100  0.2396  0.1078
 5188W        W22712  14.730   8.300   5.005 -0.0729  0.2828 -0.1238
 5189W        W22713  16.875   1.371   0.920  0.0671  0.3559 -0.0094
 5190W        W22714   3.746   0.057   0.946 -0.2363 -0.0296 -0.0525
 5191W        W22715  16.171   4.772  14.224  0.2165  0.1995  0.1415
 5192W        W22716   3.913  14.193  17.532 -0.2347 -0.1945  0.0624
 5193W        W22717   2.519   7.520  13.828  0.1168  0.0220 -0.2351
 5194W        W22718   8.419  14.833   4.792  0.0512  0.1695  0.0116
 5195W        W22719   6.818   4.371   1.520  0.1902 -0.2811  0.0648
 5196W        W22720   6.474   5.325   2.936 -0.0032 -0.2787  0.3398
 5197W        W22721   3.169  15.956  15.183 -0.0935 -0.0639 -0.1121
 5198W        W22722   7.162   7.216   2.842  0.3562 -0.0998 -0.2520
 5199W        W22723   9.080  11.870  13.667 -0.0064 -0.0531  0.0999
 5200W        W22724   0.104   6.356  15.940 -0.3626 -0.0999 -0.1840
 5201W        W22725   4.702   2.643   4.770 -0.1311  0.3456  0.0225
 5202W        W22726  15.182   0.501  17.485 -0.1196 -0.1367 -0.0429
 5203W        W22727  14.587   0.217  14.467 -0.2082  0.0235 -0.1107
 5204W        W22728  11.700  13.619   0.149 -0.2756  0.1620  0.2669
 5205W        W22729  13.793  13.101  15.868  0.0830  0.3408 -0.0265
 5206W        W22730   7.907   7.847   3.925  0.0190  0.2309 -0.1698
 5207W        W22731  15.028   6.284  16.486 -0.1884  0.0602  0.0875
 5208W        W22732   7.840   1.261   3.530 -0.0330  0.1969 -0.2863
 5209W        W22733   2.753   8.161   1.662 -0.1366 -0.0523 -0.0814
 5210W        W22734  14.041   1.566  12.761 -0.1203 -0.0872 -0.1611
 5211W        W22735   0.516   7.944  13.476  0.0171  0.1743  0.2718
 5212W        W22736  15.781   2.191  16.961 -0.2203  0.0150 -0.2120
 5213W        W22737   5.377   7.675   2.525 -0.0353 -0.0038 -0.1539
 5214W        W22738  16.439   6.656   5.877  0.0972 -0.1829 -0.1673
 5215W        W22739   1.228  13.845  17.350 -0.2364 -0.2102 -0.0973
 5216W        W22740  13.159   6.790  12.552 -0.3064 -0.1513  0.1516
 5217W        W22741  16.514   0.800   4.643  0.2393 -0.1732  0.3041
 5218W        W22742  15.356   5.572   4.401 -0.1390  0.2213 -0.0013
 5219W        W22743   2.740  16.317   2.918 -0.0320 -0.2749 -0.1245
 5220W        W22744   4.648   8.930   4.930  0.2846  0.0480  0.1587
 5221W        W22745   6.522   9.468   4.711 -0.0875 -0.1349  0.3365
 5222W        W22746   3.639  15.650  15.642 -0.0243 -0.2820  0.0723
 5223W        W22747  10.686  16.623   0.885  0.0499 -0.0091 -0.1575
 5224W        W22748  16.253   7.357   6.387 -0.2078 -0.2210 -0.2328
 5225W        W22749   6.074  15.188   5.828 -0.1678  0.4268 -0.0664
 5226W        W22750  11.162  14.869   0.006  0.1595  0.0074  0.2301
 5227W        W22751   6.170   3.071  17.311  0.1537  0.1399  0.3467
 5228W        W22752   2.992   5.356  13.054 -0.1057 -0.0247 -0.0085
 5229W        W22753   9.763   3.256   1.609 -0.2244 -0.4801  0.0584
 5230W        W22754   1.737  11.913   5.018 -0.0718  0.0913  0.1688
 5231W        W22755   3.143   6.294   3.494 -0.2109  0.1740 -0.6110
 5232W        W22756  16.522   2.471   0.558  0.1158  0.0445 -0.0561
 5233W        W22757   5.589   8.184   5.185 -0.2870  0.1670  0.1108
 5234W        W22758   6.339  16.580  14.020 -0.0520 -0.0330 -0.0387
 5235W        W22759   0.189  16.073   4.776  0.0845 -0.1412 -0.1130
 5236W        W22760   9.060   3.049   5.102  0.0764  0.0060 -0.2347
 5237W        W22761   7.930   2.011   1.131  0.1770 -0.0419 -0.0942
 5238W        W22762  10.519   3.038   3.274 -0.0705  0.0145  0.1563
 5239W        W22763   8.518   0.196   2.709  0.1979  0.2962 -0.1688
 5240W        W22764   9.851   5.072  12.372  0.0932 -0.1716 -0.0204
 5241W        W22765  12.519  12.481   1.065 -0.0526  0.2120  0.2133
 5242W        W22766   9.589   2.814   3.597  0.1394 -0.2257  0.1049
 5243W        W22767   7.460   9.151  12.362 -0.5185  0.0085 -0.0543
 5244W        W22768   7.635  16.861  11.847 -0.0780  0.0907  0.1105
 5245W        W22769   2.088   7.419  14.307 -0.1796 -0.1635  0.2124
 5246W        W22770  13.852  11.958   1.256 -0.0041  0.3370  0.4344
 5247W        W22771  13.524  11.375   0.752  0.0181 -0.0262  0.2916
 5248W        W22772   1.287   9.025   2.023 -0.0048 -0.0923 -0.0305
 5249W        W22773  12.192  17.128   4.311 -0.2254 -0.0407 -0.2203
 5250W        W22774  16.066  10.126  14.743 -0.2060  0.2283  0.1830
 5251W        W22775   9.677   7.524   0.405  0.0285  0.0223  0.1982
 5252W        W22776  15.880  15.357   1.120 -0.0770  0.0435 -0.0257
 5253W        W22777  14.409  16.307   0.286 -0.4097 -0.0395  0.0384
 5254W        W22778  16.525  16.381  17.080 -0.3314  0.0855 -0.1452
 5255W        W22779   1.051   9.246  16.328  0.3257  0.3409  0.0147
 5256W        W22780  12.990  16.095  14.974 -0.1554 -0.0546 -0.0444
 5257W        W22781   0.462   3.194  13.580  0.0270 -0.0789 -0.1355
 5258W        W22782   7.442  12.794  17.207  0.5217  0.0101  0.0931
 5259W        W22783  12.226   1.027  14.003 -0.0940 -0.0816 -0.0670
 5260W        W22784  12.187   6.997  12.838 -0.3749 -0.0334  0.1301
 5261W        W22785  16.620  10.214  13.952  0.2401 -0.1595  0.0683
 5262W        W22786  12.988  10.301   5.627 -0.1096  0.1267 -0.0330
 5263W        W22787   1.765   1.929  16.084 -0.0161  0.0314 -0.3757
 5264W        W22788   4.275   4.127   2.558  0.0016  0.2437 -0.3757
 5265W        W22789  16.583  10.164  14.722 -0.0987 -0.0557 -0.0508
 5266W        W22790   3.962   2.215   3.804  0.1002 -0.1590 -0.0530
 5267W        W22791  14.212   8.623  17.384  0.0612  0.0968  0.0763
 5268W        W22792  15.337  15.013   2.958 -0.3201 -0.1421  0.3506
 5269W        W22793  15.962   9.670  14.579  0.0832  0.3277 -0.0646
 5270W        W22794   4.258  12.576  15.061  0.1947  0.0533  0.0319
 5271W        W22795   4.402   1.416   4.331  0.3106 -0.2241 -0.1917
 5272W        W22796  11.395  13.788  12.585 -0.0804 -0.0007 -0.0141
 5273W        W22797   0.499  11.639   4.039 -0.1057 -0.1910 -0.0677
 5274W        W22798   4.542   1.688   3.252  0.1486  0.1038 -0.0184
 5275W        W22799   8.343  11.388   2.063 -0.1121 -0.1387 -0.1069
 5276W        W22800  13.517   0.629   1.167 -0.0479  0.0144  0.0865
 5277W        W22801   4.276  11.396   4.934 -0.1507 -0.3420  0.2041
 5278W        W22802   2.792   4.989   2.996  0.0304  0.3589 -0.0127
 5279W        W22803  16.762  12.673   2.730  0.2174  0.1552 -0.0542
 5280W        W22804   5.178  14.388  13.915 -0.1958 -0.1235 -0.2203
 5281W        W22805   1.810   7.463   4.788 -0.1499  0.1992 -0.0763
 5282W        W22806  11.215   1.808  13.552  0.2034 -0.2413 -0.1135
 5283W        W22807  13.066   8.871  14.493  0.1449  0.2102 -0.0175
 5284W        W22808   0.758   8.356  15.377  0.1601  0.2029  0.0663
 5285W        W22809   9.495   1.581   3.673 -0.0005 -0.0700  0.0921
 5286W        W22810  13.683   7.929  17.082  0.2704 -0.2088  0.1302
 5287W        W22811  14.181  12.654   3.181 -0.0376  0.0367 -0.0304
 5288W        W22812  13.692   1.447   5.257  0.1090  0.1873  0.0183
 5289W        W22813  11.894  10.813  15.984 -0.0245  0.3080  0.0798
 5290W        W22814   7.297   5.970   3.214 -0.2528 -0.0297 -0.1698
 5291W        W22815   7.429   4.853   2.654 -0.0967 -0.1964  0.1652
 5292W        W22816   9.499   7.271  15.301  0.1043 -0.0670 -0.1865
 5293W        W22817  14.344   1.689   4.029  0.1182 -0.2626 -0.2307
 5294W        W22818  11.567   2.052  14.952  0.2809  0.0647 -0.2016
 5295W        W22819  15.138   9.735   3.056 -0.0670 -0.2683  0.0572
 5296W        W22820  10.575  16.864   0.062  0.1999 -0.3709  0.1881
 5297W        W22821   1.776  10.456  14.748  0.1913  0.0777 -0.1254
 5298W        W22822   9.297  15.567  15.794  0.1733  0.1128 -0.0450
 5299W        W22823   8.829   3.529   5.198 -0.1751 -0.1172  0.4878
 5300W        W22824  11.602  12.832  16.820  0.1419 -0.0933  0.3038
 5301W        W22825   1.106  10.038  14.358  0.0980 -0.2712 -0.0882
 5302W        W22826  16.936   1.685  14.283 -0.0064  0.3895  0.4260
 5303W        W22827   8.878   4.052  14.295  0.0809 -0.1450  0.1898
 5304W        W22828   8.643  15.951  14.769 -0.2711  0.1866  0.0792
 5305W        W22829   8.660  13.984  16.091 -0.0414 -0.0279  0.0040
 5306W        W22830   0.104  15.463  14.665  0.3162 -0.2189  0.0235
 5307W        W22831   1.050   9.659  13.012  0.1331  0.1529 -0.0941
 5308W        W22832  13.893  11.032   4.412  0.0260 -0.0469 -0.1697
 5309W        W22833  14.291   7.305  14.549 -0.1758 -0.0720 -0.2582
 5310W        W22834  13.109   5.470   0.943 -0.1599  0.1308  0.0911
 5311W        W22835   5.785   8.456  15.489 -0.2781  0.0501 -0.1715
 5312W        W22836   4.327  12.292   4.326 -0.1832 -0.1194 -0.0795
 5313W        W22837  13.138   4.134   2.517  0.0723  0.0259  0.0135
 5314W        W22838  15.052  12.403   2.283 -0.0450 -0.0787  0.0623
 5315W        W22839  11.706   8.325  17.044  0.1366  0.1625 -0.0567
 5316W        W22840   6.947  15.061   0.903  0.2380 -0.1445 -0.0005
 5317W        W22841  11.285  15.949  17.560 -0.0784 -0.0225 -0.2069
 5318W        W22842   0.794   9.095  14.377 -0.2568 -0.2694 -0.3150
 5319W        W22843  12.379  10.759   4.558 -0.0257 -0.1632  0.0574
 5320W        W22844  12.351   4.727   4.901  0.3593 -0.0045 -0.1299
 5321W        W22845  12.642  15.324  14.551  0.4458  0.0063  0.0602
 5322W        W22846   9.821  14.592  17.574  0.1128 -0.1350 -0.3429
 5323W        W22847   9.789   0.833  12.060  0.3520  0.2755 -0.0207
 5324W        W22848   1.052  15.427  13.670 -0.1282 -0.0666 -0.2604
 5325W        W22849   8.757   7.715   0.096 -0.2965  0.1283  0.0878
 5326W        W22850   3.630   3.484  12.743 -0.0226  0.2058 -0.2595
 5327W        W22851   1.882   6.974  14.274  0.0233 -0.1735  0.1319
 5328W        W22852   0.827  13.858  13.848  0.1233  0.0044  0.1435
 5329W        W22853   2.428  12.563  12.821 -0.1723  0.1678 -0.3137
 5330W        W22854   0.878   3.070   3.712 -0.0189 -0.0055 -0.0511
 5331W        W22855  16.273  10.501  15.987  0.1608  0.0660  0.0161
 5332W        W22856  14.255   8.160   1.515 -0.0495  0.0811 -0.2210
 5333W        W22857  16.502   4.816  13.391 -0.0895  0.0983 -0.0750
 5334W        W22858  14.524   3.691   4.026 -0.1366 -0.1586 -0.2684
 5335W        W22859   6.457  13.019  13.645  0.2774  0.0908 -0.3132
 5336W        W22860  16.062   6.525  14.716  0.1917  0.0431  0.0345
 5337W        W22861  10.671  15.266  12.829  0.3064  0.3738 -0.3301
 5338W        W22862   8.308   4.173  16.374 -0.1076  0.1047 -0.2359
 5339W        W22863   3.587   1.252  17.190  0.0779  0.2569  0.0759
 5340W        W22864   3.237   1.831  13.881 -0.1958 -0.0618  0.0515
 5341W        W22865   9.631   8.540  13.740 -0.1149 -0.0539 -0.1267
 5342W        W22866   6.068  16.427   3.018  0.2532  0.2356 -0.3014
 5343W        W22867   1.665   6.337  16.733 -0.1638 -0.1062  0.2627
 5344W        W22868  16.657   2.213  12.909 -0.0696 -0.0468 -0.0450
 5345W        W22869   9.106   5.673  15.121 -0.0895 -0.2429  0.3564
 5346W        W22870   9.207  14.536  12.799  0.0128  0.0780 -0.2752
 5347W        W22871  13.801   8.716  16.996 -0.0765 -0.0770 -0.1384
 5348W        W22872   6.478  11.723   2.499 -0.4526  0.1067  0.1119
 5349W        W22873  14.182   6.645   0.620  0.0988  0.0942 -0.1950
 5350W        W22874  10.796  12.149   3.258 -0.0656 -0.0383  0.0392
 5351W        W22875   7.018   2.226  14.539  0.1724 -0.3535 -0.1371
 5352W        W22876   4.725   5.524  17.654  0.2981  0.3463 -0.0652
 5353W        W22877   4.052   4.097  11.663 -0.0187  0.3029  0.1081
 5354W        W22878   4.128   3.096   4.769 -0.1310 -0.0427  0.1702
 5355W        W22879  14.203   4.253  15.483 -0.2452  0.0447  0.3235
 5356W        W22880   4.251  11.778   1.258  0.0791  0.0778 -0.0312
 5357W        W22881   3.952  16.563   5.266  0.0120 -0.0488 -0.4148
 5358W        W22882   8.032  12.468  12.038  0.1626  0.0836  0.0894
 5359W        W22883  12.937   0.665   3.315 -0.0115  0.1524  0.1285
 5360W        W22884  14.140  14.285  13.673 -0.1986 -0.0203 -0.1703
 5361W        W22885   4.352   7.705   0.704  0.1651  0.3281  0.1791
 5362W        W22886   0.009   4.166   5.666 -0.0481  0.0138 -0.0952
 5363W        W22887   2.298   1.347   3.873  0.1784  0.1893  0.2371
 5364W        W22888   0.615  14.047   2.525 -0.2513 -0.0452  0.0414
 5365W        W22889   2.250   4.475   2.530  0.5497  0.3058 -0.0792
 5366W        W22890   6.947  14.220  17.159  0.0990  0.0444  0.1138
 5367W        W22891   5.734  11.088  16.132 -0.4525  0.0520 -0.0409
 5368W        W22892  10.733  12.866  11.068  0.1349  0.3006 -0.2905
 5369W        W22893   1.344   2.736   2.211 -0.2281 -0.1079 -0.0454
 5370W        W22894   1.270   5.494   0.697  0.0685  0.0700 -0.1790
 5371W        W22895  11.731   4.211  14.702 -0.2250 -0.0533  0.0505
 5372W        W22896  13.252   3.448  14.536  0.2498 -0.1049 -0.1107
 5373W        W22897  10.865   7.590  12.203 -0.0265  0.0920  0.3472
 5374W        W22898  16.219  13.691   4.908 -0.0864  0.2897  0.0366
 5375W        W22899  14.693  16.953  14.268  0.3471  0.4545 -0.2739
 5376W        W22900   9.364  15.039   1.825 -0.0551  0.1120 -0.0596
 5377W        W22901   2.273   2.424  13.072 -0.3774 -0.1365 -0.3453
 5378W        W22902   4.007  11.489   4.120 -0.1314 -0.0401 -0.0576
 5379W        W22903  14.610   3.434   2.499 -0.3181  0.0202 -0.2372
 5380W        W22904  14.537   1.719  13.119 -0.0106  0.3073 -0.0083
 5381W        W22905   6.696   2.442   2.021  0.2000  0.2923  0.0046
 5382W        W22906  16.359  15.399   4.164 -0.1240  0.0010  0.0276
 5383W        W22907   2.595  11.526   5.283  0.0810  0.0310 -0.4547
 5384W        W22908   9.513  10.416  12.916 -0.2130 -0.0679  0.1461
 5385W        W22909  13.256   3.468   0.146  0.2691 -0.0759  0.0399
 5386W        W22910   5.618  10.533  16.209  0.0732 -0.2385  0.2841
 5387W        W22911  16.180  16.778  16.714 -0.0357 -0.3553 -0.1775
 5388W        W22912   2.706   7.812  12.584  0.2556  0.2355 -0.1597
 5389W        W22913   2.240  12.530  13.792  0.1618  0.1344 -0.1928
 5390W        W22914   5.741   8.882  15.246 -0.2532 -0.1399  0.2345
 5391W        W22915   1.017   8.977  17.048  0.0918 -0.0751  0.3053
 5392W        W22916  13.363  12.953   2.125  0.0396  0.0055  0.0337
 5393W        W22917   2.809   6.087   5.278 -0.0722 -0.0530 -0.4527
 5394W        W22918   4.573  17.137   5.144 -0.2538 -0.0144 -0.1228
 5395W        W22919  12.558   7.724   5.071 -0.2526 -0.3112 -0.0690
 5396W        W22920   1.664   7.195  15.723  0.3833 -0.0209  0.0605
 5397W        W22921   9.548   9.467   0.041  0.1980 -0.0455 -0.1309
 5398W        W22922   3.537   5.550   0.311  0.0249  0.1702  0.0384
 5399W        W22923   1.884   3.732  17.539 -0.2253 -0.2518 -0.2318
 5400W        W22924   6.103   1.284   5.646 -0.1151 -0.0723 -0.3303
 5401W        W22925   3.897   8.741   3.347 -0.2837  0.2529  0.2130
 5402W        W22926  12.397  11.283  12.153  0.1868 -0.1210  0.0519
 5403W        W22927  16.691  16.483   1.248  0.0938 -0.1451  0.1541
 5404W        W22928   8.253  15.018  16.709 -0.1121  0.0100 -0.0832
 5405W        W22929   7.820  15.848  12.417  0.1832 -0.1978  0.1328
 5406W        W22930   3.646   4.236  16.932  0.2118  0.0616  0.0660
 5407W        W22931   1.345   1.839  16.663  0.1183  0.1281  0.1786
 5408W        W22932  16.234   2.497  16.084  0.1810  0.0225 -0.0156
 5409W        W22933  16.650   9.007   5.268  0.1509 -0.4497  0.1051
 5410W        W22934  11.103   6.722  16.207 -0.0322 -0.1279  0.1967
 5411W        W22935  10.109   9.230  14.193 -0.0076  0.1769 -0.0338
 5412W        W22936  10.871   6.368   0.571 -0.0149 -0.1249 -0.0785
 5413W        W22937   6.177   1.992  15.264 -0.0533  0.2834  0.1532
 5414W        W22938   5.434  16.179   1.993 -0.0726  0.1237 -0.0131
 5415W        W22939  13.881  15.621   3.642 -0.2805  0.1820  0.1604
 5416W        W22940   4.263  11.150  13.975 -0.0098 -0.0269 -0.2193
 5417W        W22941   2.745  10.308  13.451 -0.2838 -0.0982 -0.1287
 5418W        W22942   4.699  10.476  11.018  0.1634  0.2391 -0.0885
 5419W        W22943   4.724  11.745  13.356 -0.0820 -0.0101 -0.1224
 5420W        W22944   6.470   8.229   3.235 -0.0675  0.2408 -0.1070
 5421W        W22945  10.514   1.511  14.786  0.1991 -0.0762 -0.0886
 5422W        W22946   1.660  14.486   1.851 -0.2897 -0.1342 -0.0108
 5423W        W22947   4.815  15.341  13.688  0.0259  0.2308 -0.0474
 5424W        W22948  13.641   0.174   0.876  0.0421  0.1576  0.0264
 5425W        W22949  15.961  13.715  12.520 -0.0734  0.0425  0.0142
 5426W        W22950  12.875   2.959   6.083 -0.0296 -0.1952  0.0547
 5427W        W22951  15.173  14.650  12.421 -0.0029 -0.1073  0.1349
 5428W        W22952   4.105   7.189   0.553  0.1977  0.1494  0.2856
 5429W        W22953   5.764   1.119   4.662  0.0123 -0.1268 -0.4092
 5430W        W22954  11.243  14.936   4.753  0.0080 -0.2259  0.1182
 5431W        W22955  15.373  15.357   5.218  0.0260 -0.1194 -0.0532
 5432W        W22956  17.108  16.225  12.319  0.1730  0.0345  0.1856
 5433W        W22957   7.173  11.344   3.851  0.0425  0.1097  0.0381
 5434W        W22958  12.644   8.614  13.740 -0.1708  0.1651 -0.2615
 5435W        W22959  14.514  11.924  13.695 -0.0362 -0.1708 -0.0943
 5436W        W22960   3.090  11.953  12.586  0.0770 -0.0289  0.0307
 5437W        W22961   8.313  14.867  15.406 -0.1887 -0.1056 -0.2276
 5438W        W22962   7.939   9.290   0.287 -0.1361  0.2490 -0.0311
 5439W        W22963  15.295   0.433   3.708  0.0977 -0.0992  0.1031
 5440W        W22964  12.482  13.836   1.289  0.1063  0.0477 -0.0909
 5441W        W22965   8.706   1.410   0.170  0.0668  0.0453 -0.1471
 5442W        W22966   0.131   4.749   1.890 -0.0398 -0.1964  0.2108
 5443W        W22967  14.993  10.353  13.387 -0.1171 -0.2253  0.2105
 5444W        W22968  13.452  15.460   2.462 -0.0929 -0.0721 -0.2233
 5445W        W22969   0.339  15.859   1.836 -0.1695 -0.0350  0.2072
 5446W        W22970  10.263   8.192   1.137 -0.1198  0.2619  0.1227
 5447W        W22971   1.768  13.905  13.959  0.0412  0.0680  0.0373
 5448W        W22972  11.592   5.542  13.342  0.2080 -0.1701 -0.1972
 5449W        W22973   2.455  16.110   1.953 -0.0189  0.0328  0.1801
 5450W        W22974   4.949  16.765   5.532  0.1120  0.1911 -0.0149
 5451W        W22975   1.432  10.056   3.656  0.0970  0.5186 -0.0004
 5452W        W22976  11.087  14.607  12.002 -0.1066  0.0197  0.1438
 5453W        W22977   5.448   5.713   4.957 -0.0181 -0.1724  0.0485
 5454W        W22978   5.372   4.083   0.995  0.0675 -0.0446 -0.4303
 5455W        W22979   5.597   0.785   3.932  0.2864 -0.0290 -0.0128
 5456W        W22980   7.658   3.333   1.662  0.1334 -0.2298 -0.0654
 5457W        W22981   0.427   8.052  15.175 -0.1244 -0.0344  0.1002
 5458W        W22982  11.148  11.118   4.289  0.0238  0.1211  0.0706
 5459W        W22983   9.680   2.536  17.549 -0.1670  0.0723  0.0291
 5460W        W22984  15.777  14.552   3.485  0.1423  0.0505  0.0949
 5461W        W22985   4.164  16.342   4.008  0.0768 -0.0107 -0.1206
 5462W        W22986   1.499   0.768   2.890  0.2637  0.1013 -0.1458
 5463W        W22987  13.636   8.013   3.707  0.0579  0.0065  0.0741
 5464W        W22988  12.310  13.456   1.641  0.0562  0.2100 -0.0273
 5465W        W22989  17.027  13.377   4.524 -0.0802 -0.0306  0.2189
 5466W        W22990   8.075   0.606  16.284  0.2216 -0.1152 -0.1604
 5467W        W22991  14.968  11.932   3.142  0.1398  0.0295  0.3616
 5468W        W22992  16.306   3.760   0.793 -0.0476 -0.0729  0.2343
 5469W        W22993   0.943  11.031   1.584 -0.1772  0.2473 -0.0779
 5470W        W22994   2.682   0.004   2.489 -0.1852 -0.0562 -0.1251
 5471W        W22995  15.528  14.300  15.182  0.1346 -0.0314  0.0644
 5472W        W22996  15.550   9.509   3.371 -0.0437 -0.1376 -0.1149
 5473W        W22997  13.347   1.943   3.479 -0.2309 -0.1665 -0.2586
 5474W        W22998   3.895   4.025  12.114  0.2655  0.0052 -0.0693
 5475W        W22999  14.453  13.888  12.763  0.1295 -0.0924 -0.1383
 5476W        W23000   6.251  13.589  12.939 -0.1744  0.0712 -0.0946
 5477W        W23001   8.138  14.394  16.906 -0.0523 -0.1724  0.2090
 5478W        W23002  10.619   4.081  16.727 -0.2082  0.1536  0.3319
 5479W        W23003  15.860   7.308  16.724 -0.0402 -0.0298 -0.1051
 5480W        W23004   1.133  14.440  13.791  0.1012 -0.0554  0.1915
 5481W        W23005  15.336   0.865  16.167 -0.1347  0.1379 -0.1819
 5482W        W23006  10.717   0.099  17.468 -0.1195 -0.2088 -0.0589
 5483W        W23007  14.634   4.665  16.834 -0.0210  0.0617 -0.0406
 5484W        W23008   8.601   3.131  14.176 -0.2370  0.3994  0.1306
 5485W        W23009   5.102   4.860   4.623 -0.1208 -0.1517 -0.1626
 5486W        W23010  11.182  16.794  16.166  0.2590 -0.1693 -0.1487
 5487W        W23011   2.451   9.921  13.623 -0.0512 -0.1433  0.1686
 5488W        W23012   9.745   3.793  14.092 -0.1083 -0.3826  0.1861
 5489W        W23013  10.877   4.023  12.772  0.0495 -0.2023  0.1790
 5490W        W23014  13.640  15.190   2.793  0.1945  0.0945  0.0607
 5491W        W23015   7.990   5.348   4.851  0.0944 -0.1477 -0.0126
 5492W        W23016   8.401  12.633  12.342 -0.0070  0.1201  0.1629
 5493W        W23017  10.584  10.360  16.770 -0.0595  0.3597 -0.0958
 5494W        W23018   0.688   1.912   1.898 -0.0700 -0.0417  0.0894
 5495W        W23019  15.611   4.920  11.536  0.0368 -0.1384  0.1744
 5496W        W23020   1.663   6.124   1.870  0.0693 -0.0106 -0.4084
 5497W        W23021  12.575  10.414   3.717 -0.1039 -0.0444  0.2613
 5498W        W23022   9.088   2.807  16.259  0.2363 -0.0920  0.4278
 5499W        W23023  14.348   5.599  12.258  0.1595  0.1735 -0.3506
 5500W        W23024   5.655   8.366   3.062  0.1254  0.1090  0.0463
 5501W        W23025   0.985   0.953  14.012 -0.2858 -0.1355 -0.1390
 5502W        W23026   1.015   7.511  13.658  0.0433 -0.1939 -0.4519
 5503W        W23027  15.066  12.535   5.265 -0.0692  0.1452  0.1424
 5504W        W23028  15.928   4.097  13.154 -0.3505  0.0980 -0.2235
 5505W        W23029  10.154   1.773   5.180  0.2958  0.3456 -0.0754
 5506W        W23030   7.551   5.283   1.758 -0.1187  0.0818 -0.0468
 5507W        W23031   8.994  12.625   1.729 -0.1423 -0.1673  0.0082
 5508W        W23032   2.012  14.635  17.062  0.0510 -0.0972 -0.5028
 5509W        W23033  15.679  10.915   4.844  0.0516 -0.2620 -0.2279
 5510W        W23034   9.964   0.631   4.651  0.3230  0.0358 -0.1776
 5511W        W23035   4.379   5.533  16.612  0.0119 -0.0874  0.2891
 5512W        W23036   2.294   3.363  15.877 -0.2867  0.1373 -0.0803
 5513W        W23037  10.120   7.005   1.992  0.1538  0.0910  0.1059
 5514W        W23038   6.048  16.269   3.767 -0.1193  0.2657 -0.1052
 5515W        W23039   2.318  10.791   1.671 -0.0321  0.0957 -0.0311
 5516W        W23040   1.847   2.224  14.410 -0.0067 -0.1022  0.2851
 5517W        W23041  16.741  11.691  13.408  0.1208  0.0107  0.3765
 5518W        W23042   1.189   3.665  14.149  0.0695 -0.3660 -0.1102
 5519W        W23043   5.956  12.738  12.685  0.0298  0.0897  0.1861
 5520W        W23044   2.721  16.912  17.020  0.0099 -0.3004 -0.0230
 5521W        W23045   0.517   8.726  14.192  0.1148 -0.0197 -0.1517
 5522W        W23046  12.823  10.135  13.877 -0.2244  0.0509  0.0974
 5523W        W23047   2.887  17.130  13.332 -0.0194  0.0209  0.2110
 5524W        W23048  11.650   1.418  16.720 -0.0463 -0.1674  0.0197
 5525W        W23049  10.837  10.182   6.381 -0.0171  0.1006 -0.2996
 5526W        W23050   9.436   7.660   3.972  0.4619 -0.2388 -0.2986
 5527W        W23051   8.966  11.720   4.813 -0.1609  0.0083 -0.1646
 5528W        W23052  11.020   9.442   1.632  0.2016 -0.1421 -0.0177
 5529W        W23053  11.854   1.382   0.705  0.3110 -0.1169  0.1717
 5530W        W23054  12.877   5.654  13.637  0.2104 -0.0628 -0.2750
 5531W        W23055  15.001  15.763  12.774 -0.0051 -0.3182 -0.1218
 5532W        W23056  14.027  12.384  14.483  0.1458  0.0080 -0.3507
 5533W        W23057   2.175   0.888   2.059 -0.2741 -0.0470 -0.1856
 5534W        W23058  16.709   5.255   0.116 -0.0443 -0.1611  0.3831
 5535W        W23059  16.970   5.334   4.267 -0.4115  0.0628  0.0639
 5536W        W23060  11.599   9.473  14.818  0.0127  0.0172 -0.0902
 5537W        W23061  11.891  10.828  13.092 -0.0049 -0.2038  0.1022
 5538W        W23062  12.663   4.024   5.483 -0.1962  0.4538  0.0637
 5539W        W23063  10.345  12.901   1.306 -0.2248  0.1128  0.0742
 5540W        W23064   4.937   9.641  12.407  0.0640  0.1007 -0.1545
 5541W        W23065   0.367   9.859   2.631 -0.0865  0.1867  0.0801
 5542W        W23066  14.691  12.240  12.950 -0.1647  0.2631  0.2014
 5543W        W23067   3.340  13.831   2.722 -0.0350 -0.2045  0.3433
 5544W        W23068   9.956  14.299   0.875 -0.1061 -0.0472  0.3918
 5545W        W23069   3.692  11.393  16.891 -0.1623 -0.0220  0.2985
 5546W        W23070  12.706   3.946   1.944  0.0685 -0.4179 -0.3161
 5547W        W23071  10.971   3.211  17.723  0.1787 -0.0780  0.3453
 5548W        W23072  11.231  13.237  14.343  0.0291  0.2207  0.1536
 5549W        W23073  10.486  16.504   0.455 -0.1556  0.1411 -0.0484
 5550W        W23074   6.092   9.387   3.318 -0.1239  0.1412 -0.0988
 5551W        W23075  11.391   9.008  14.541  0.1967 -0.1896  0.0555
 5552W        W23076   7.069  17.061  17.529 -0.3285  0.1846  0.2721
 5553W        W23077   6.918  12.125   4.604 -0.2405 -0.2090 -0.0923
 5554W        W23078  15.796  10.024   2.478  0.1558  0.0379 -0.2407
 5555W        W23079   5.590   8.835   2.181  0.0041 -0.0012  0.0149
 5556W        W23080   4.416   4.383   5.554 -0.0774 -0.3474 -0.0091
 5557W        W23081  13.747   7.409  16.112 -0.1296  0.0985  0.0579
 5558W        W23082   3.128  13.321   3.914 -0.1222  0.0291 -0.1361
 5559W        W23083   2.445  12.853   2.463  0.0228  0.1518 -0.0304
 5560W        W23084  15.740   3.685   2.289 -0.2807 -0.0871 -0.4792
 5561W        W23085  16.671  15.393   2.459  0.1984  0.2611  0.1472
 5562W        W23086   5.660  11.027   2.675  0.2354 -0.4047  0.0640
 5563W        W23087  12.494   8.985  12.670 -0.3093  0.1089  0.2089
 5564W        W23088  13.351   8.910  16.877  0.1723  0.0725 -0.1462
 5565W        W23089   3.945   8.758  16.993  0.0134  0.2887 -0.1669
 5566W        W23090   2.496  10.775   0.222  0.1781 -0.2457 -0.4034
 5567W        W23091  13.183  11.087  16.613 -0.3011  0.0744  0.0190
 5568W        W23092  12.392   4.155  15.320  0.4008 -0.1949  0.3740
 5569W        W23093   2.708  15.929  13.901  0.2209  0.1771  0.3292
 5570W        W23094   8.918   5.894  16.218 -0.1823  0.1564 -0.0691
 5571W        W23095   8.723   0.036   5.350  0.1500 -0.1729 -0.1066
 5572W        W23096   1.019  15.068   0.159 -0.0157 -0.2981 -0.0360
 5573W        W23097  13.155  11.040  13.565 -0.1076  0.0708  0.4400
 5574W        W23098   7.783   8.031  16.510  0.1435 -0.2685 -0.0081
 5575W        W23099   8.839  13.148  13.412 -0.3131  0.0630 -0.1041
 5576W        W23100   1.718  10.318  15.252  0.0738  0.2713  0.1247
 5577W        W23101   6.629  13.081  16.545 -0.0671 -0.1128 -0.0509
 5578W        W23102   0.167  14.067  16.404  0.2833  0.4288 -0.1472
 5579W        W23103   1.581   2.192  17.008  0.1847  0.1094  0.3177
 5580W        W23104  10.655   5.289  14.846 -0.1944 -0.0589 -0.1001
 5581W        W23105  16.188   5.930  17.578 -0.0911  0.0012  0.1321
 5582W        W23106   7.537   6.654  13.440  0.0504 -0.0283  0.1974
 5583W        W23107  11.209  14.190  13.308  0.0755  0.1792  0.0778
 5584W        W23108   7.389  12.964   3.338  0.2899 -0.1306  0.5349
 5585W        W23109   5.132   3.341   2.898  0.4554 -0.1340  0.2301
 5586W        W23110  11.386  14.727   4.139 -0.2357  0.1601 -0.0913
 5587W        W23111  13.216  12.784   5.158  0.2524  0.0935  0.0515
 5588W        W23112   6.783   1.855   0.733 -0.0839  0.0690  0.0453
 5589W        W23113   1.302   1.355   4.046  0.0420  0.0090  0.0052
 5590W        W23114  12.125   2.143  14.973 -0.0990  0.0138 -0.0175
 5591W        W23115  15.399   7.754   5.441  0.1420  0.1101 -0.1029
 5592W        W23116  15.933  11.419   0.157 -0.0141 -0.0971 -0.4490
 5593W        W23117   7.788   0.283   5.223  0.0201  0.0951 -0.2949
 5594W        W23118   8.080  10.962   2.887 -0.1830  0.1935  0.1038
 5595W        W23119   6.432  11.079  12.628  0.1294 -0.1380  0.0651
 5596W        W23120  12.384   2.434   0.281 -0.0783  0.2740 -0.0060
 5597W        W23121  11.429  10.410  15.343  0.1296  0.1760  0.2598
 5598W        W23122  15.721  11.820   4.218  0.2932 -0.4199 -0.1394
 5599W        W23123  10.199  15.023   1.331  0.0486  0.0877 -0.0512
 5600W        W23124   5.257   1.508   2.038 -0.1209 -0.0457 -0.1477
 5601W        W23125   9.285  12.838  15.222 -0.0554  0.0379 -0.3901
 5602W        W23126  17.069   4.664  15.352  0.1494  0.1344 -0.1842
 5603W        W23127   3.862   4.293   2.335  0.2509 -0.1387  0.0710
 5604W        W23128   7.086   1.864   1.479  0.1165 -0.0841  0.1817
 5605W        W23129   2.638   6.954   0.069 -0.4805 -0.3185  0.1162
 5606W        W23130   2.265   1.545  17.336  0.0715 -0.0392  0.1699
 5607W        W23131  16.730   2.242  15.547  0.1922 -0.0407  0.0387
 5608W        W23132   1.815  14.847   3.110  0.0672  0.1088  0.4052
 5609W        W23133   2.496   5.200  14.875 -0.1959 -0.0339 -0.0007
 5610W        W23134   6.000  11.601  11.986  0.0437  0.1895  0.4086
 5611W        W23135  16.664   4.484  15.714 -0.0156  0.0160 -0.0311
 5612W        W23136   2.938   3.056   1.949 -0.0530  0.0374 -0.0659
 5613W        W23137  11.135  17.147   2.600  0.0329 -0.0553 -0.0161
 5614W        W23138  12.560   7.897  12.982  0.1229 -0.2073  0.2173
 5615W        W23139   0.854   6.377  12.826 -0.1716 -0.1272  0.1118
 5616W        W23140   3.045   5.814   4.323 -0.0907 -0.0652  0.4411
 5617W        W23141  14.160   4.721  16.704  0.0263  0.1687 -0.1473
 5618W        W23142  13.836   7.584  16.636  0.0278  0.0645 -0.0480
 5619W        W23143  16.626   9.050  12.362 -0.0219  0.0560  0.1823
 5620W        W23144   6.286   9.035   2.978  0.0492  0.1825 -0.1394
 5621W        W23145   1.680   0.653   5.844 -0.1534  0.1800  0.1603
 5622W        W23146  17.151   5.174  12.525  0.3414  0.1213  0.0077
 5623W        W23147  13.890   1.394  13.664 -0.1874 -0.0334  0.0776
 5624W        W23148  13.774  11.505  16.571  0.2650  0.1525  0.3477
 5625W        W23149   5.938   1.557  14.053  0.1625  0.1511 -0.2440
 5626W        W23150  14.410   3.087   0.706 -0.5729  0.0283 -0.0466
 5627W        W23151   3.797   2.629  14.592  0.1214  0.2335  0.0143
 5628W        W23152  15.224   9.517  15.976  0.1329  0.2127  0.0189
 5629W        W23153   9.990   0.340  13.962 -0.2316 -0.0304 -0.2375
 5630W        W23154  15.050   3.459  16.913 -0.1353  0.2426  0.1820
 5631W        W23155  13.314   0.442   5.011 -0.0582  0.1291 -0.1849
 5632W        W23156   5.477   7.403  14.987 -0.1686 -0.0673  0.1715
 5633W        W23157  15.269  15.408   2.078  0.0458  0.0744 -0.0937
 5634W        W23158  10.456   0.432   1.312 -0.1148 -0.0701 -0.0055
 5635W        W23159  12.399  14.647   4.243 -0.2503 -0.2336 -0.1923
 5636W        W23160   9.119  14.179   0.113 -0.1847 -0.1711  0.2039
 5637W        W23161  12.604   6.210  15.992  0.1375  0.0093 -0.0244
 5638W        W23162  12.263  12.765   2.835 -0.0949  0.0156  0.0856
 5639W        W23163   1.417   2.681   4.628 -0.1086  0.0303  0.0674
 5640W        W23164   5.594  15.543   5.253 -0.0093  0.2276  0.2094
 5641W        W23165  14.033   2.869   2.659  0.2267 -0.0658  0.0699
 5642W        W23166   1.902   5.276   5.597  0.0400 -0.3014  0.1227
 5643W        W23167  12.247   0.075   1.972  0.0097  0.1788 -0.1831
 5644W        W23168  14.038  14.229   1.305  0.0263  0.1909 -0.0767
 5645W        W23169  11.262  15.900   3.431 -0.0886 -0.2801 -0.0724
 5646W        W23170   7.082   9.907  14.509 -0.2548 -0.0271  0.1032
 5647W        W23171  10.784   9.974  14.527  0.1966 -0.1802  0.3145
 5648W        W23172  13.683   3.505  17.616 -0.0217 -0.0357 -0.0636
 5649W        W23173   1.433  10.903  14.013 -0.1144  0.0678 -0.0991
 5650W        W23174  12.985   9.729   1.898  0.2846 -0.0584  0.1779
 5651W        W23175  16.468   4.530   3.481 -0.0067 -0.0058 -0.2130
 5652W        W23176  12.568   7.902  17.038  0.0272  0.4009 -0.2377
 5653W        W23177   1.778   1.100  16.184  0.0578  0.2590 -0.0141
 5654W        W23178   6.377  12.793   2.015 -0.2348  0.1010  0.0154
 5655W        W23179  15.612   7.308   3.233 -0.3210  0.1192  0.2308
 5656W        W23180   0.840   4.575   4.263  0.0042  0.2088  0.1737
 5657W        W23181   5.189  11.089  16.211  0.0059  0.2106 -0.1440
 5658W        W23182  12.215  14.871  13.345  0.2453  0.0025 -0.3770
 5659W        W23183  14.313   3.494  12.905  0.0332 -0.2946 -0.2791
 5660W        W23184   0.486   5.003   0.073  0.0292  0.2159 -0.0665
 5661W        W23185  10.137   4.163  16.475  0.1659  0.1241  0.2402
 5662W        W23186  14.522  15.586  15.072 -0.0394  0.0071 -0.1781
 5663W        W23187  11.585   7.009  16.199  0.1259 -0.0455  0.2545
 5664W        W23188   6.672   5.743  16.773  0.1384 -0.1331  0.0448
 5665W        W23189  11.148   5.521   0.809 -0.0207  0.1101  0.0812
 5666W        W23190   9.613  10.549  12.300  0.3024  0.1420 -0.0380
 5667W        W23191  10.056  13.490  17.336 -0.1296  0.0696  0.0545
 5668W        W23192   3.445   5.624   4.647 -0.1788 -0.1444 -0.0494
 5669W        W23193  13.649   4.375   3.376  0.1023 -0.0149 -0.0147
 5670W        W23194   2.941   5.281   4.483  0.0881 -0.0873 -0.3007
 5671W        W23195  14.217   0.871  15.559 -0.0467 -0.3069 -0.0027
 5672W        W23196  11.029  10.592  15.129  0.1482  0.1802 -0.0077
 5673W        W23197  10.485   7.139   0.184 -0.3122 -0.0504  0.0905
 5674W        W23198   1.221   6.277  17.194  0.0677  0.0988 -0.0249
 5675W        W23199   8.149   1.460  14.181 -0.1880  0.1617  0.2977
 5676W        W23200   3.303   7.394  14.015  0.1438 -0.1417 -0.0776
 5677W        W23201   5.994  10.596  14.942 -0.2839  0.1721 -0.1190
 5678W        W23202  12.425  16.681  12.892 -0.1645  0.2577  0.0354
 5679W        W23203  14.177   1.755  13.903 -0.2729 -0.1110 -0.0725
 5680W        W23204   2.851  11.407   2.307  0.0925 -0.1157  0.0889
 5681W        W23205  13.547   1.239   4.835 -0.0768  0.0575 -0.2323
 5682W        W23206   3.420   2.602   5.419 -0.1858 -0.0728  0.0665
 5683W        W23207   2.409   0.266   4.170  0.2197 -0.0737  0.0173
 5684W        W23208  12.200   8.972  17.718  0.0229  0.0318  0.0160
 5685W        W23209  11.713  13.314  13.353 -0.1950 -0.0319  0.1912
 5686W        W23210  12.903  10.735   4.697  0.2762 -0.0931 -0.3185
 5687W        W23211   8.220  14.132   2.149  0.2991 -0.1335 -0.1739
 5688W        W23212  10.082   0.235   0.401 -0.1380  0.2542 -0.1387
 5689W        W23213   8.438  13.628   0.025  0.1928 -0.1159  0.4123
 5690W        W23214  10.102  15.819   4.027  0.0857 -0.1524 -0.0579
 5691W        W23215   6.527  13.473   5.046 -0.0288 -0.0687  0.1939
 5692W        W23216  10.016   6.577  17.208 -0.1542  0.0799  0.1033
 5693W        W23217  11.520   8.011   3.679  0.1274 -0.1473  0.2608
 5694W        W23218  15.465   9.679   1.786  0.2591  0.0223 -0.0926
 5695W        W23219  13.571  13.092  14.616 -0.0471  0.1968 -0.1441
 5696W        W23220   5.732  14.830   1.703 -0.0075  0.2540  0.2581
 5697W        W23221  13.939   8.970   3.920 -0.0952 -0.0984  0.1287
 5698W        W23222   2.949  11.059  15.968 -0.2948 -0.1374 -0.0194
 5699W        W23223   0.839  14.698   4.629  0.1885  0.0284  0.2132
 5700W        W23224  14.589   5.029  16.502 -0.0741 -0.0583  0.2145
 5701W        W23225   3.838   8.298   1.682 -0.0944 -0.0382 -0.1226
 5702W        W23226   1.201   4.211   4.346  0.1386  0.2545  0.0030
 5703W        W23227   0.739   4.676  17.558  0.1724  0.0842 -0.2615
 5704W        W23228   4.551   4.618   0.805 -0.1353 -0.0519  0.3047
 5705W        W23229   3.156  10.149  14.380  0.0191  0.1762 -0.0801
 5706W        W23230   3.665   1.745   3.310  0.2930 -0.0089  0.0663
 5707W        W23231  14.232   4.372   2.390 -0.0567 -0.1115  0.1044
 5708W        W23232   5.552  13.240   3.060 -0.0379 -0.0707 -0.0876
 5709W        W23233  13.919  11.738   2.641 -0.2842  0.0519 -0.2205
 5710W        W23234   9.787  15.255   1.542 -0.0669  0.0048 -0.3067
 5711W        W23235   4.793  14.252  16.277  0.0915 -0.1924  0.0925
 5712W        W23236  17.036   1.433  14.676 -0.0648  0.0753  0.2567
 5713W        W23237  15.370  14.787   3.392  0.2511  0.3763  0.0831
 5714W        W23238  16.658   3.536   3.477  0.0995 -0.0655  0.0851
 5715W        W23239  14.971   0.330   5.535  0.1764  0.0357  0.1107
 5716W        W23240   2.957   9.067   5.099 -0.0139  0.2087  0.1158
 5717W        W23241   7.631  16.481  17.511  0.2339 -0.1699  0.0229
 5718W        W23242  12.548  15.718  17.503  0.0495  0.0867  0.0918
 5719W        W23243   7.331   6.953   4.841 -0.1014  0.1217 -0.0651
 5720W        W23244   9.030   0.359   5.596 -0.0899  0.0572  0.0549
 5721W        W23245  14.726   1.840   2.959  0.0273 -0.0500 -0.2101
 5722W        W23246  11.819   2.900  15.379  0.1547  0.0794 -0.1301
 5723W        W23247   2.544  12.184   3.320 -0.0270  0.2371 -0.1754
 5724W        W23248   9.192   8.950  14.082 -0.1453 -0.0074 -0.0247
 5725W        W23249   8.745   4.239   4.704 -0.1882  0.2402 -0.5165
 5726W        W23250  10.131   7.701   5.314  0.0066  0.0193 -0.0886
 5727W        W23251   1.879   7.287  15.237  0.2702 -0.0657 -0.0796
 5728W        W23252   8.213   8.098   4.909  0.0204  0.0815 -0.2411
 5729W        W23253  15.307   0.008   3.185 -0.2149  0.0036  0.2162
 5730W        W23254   1.067  12.033   1.766 -0.0877  0.0211 -0.0410
 5731W        W23255   1.636   9.020  14.134 -0.1620  0.0297  0.1955
 5732W        W23256   2.277  15.884  15.852  0.1966 -0.0664  0.2069
 5733W        W23257  10.555   3.037   5.628  0.1972 -0.1657  0.0042
 5734W        W23258   6.723   7.251  16.500 -0.1923  0.0357  0.2598
 5735W        W23259   7.970  16.471   6.420  0.3707  0.1845  0.0058
 5736W        W23260   5.974   0.057   3.363  0.2947  0.4467 -0.0716
 5737W        W23261   0.348  11.406  13.717 -0.0970 -0.2699 -0.1815
 5738W        W23262  14.592   7.425  16.058 -0.0663 -0.0877 -0.0900
 5739W        W23263  16.079  10.134   0.463 -0.1143 -0.2353  0.3887
 5740W        W23264   8.187   8.088  14.494  0.1255  0.1252 -0.2343
 5741W        W23265  15.176   1.833   5.250  0.0375  0.0287 -0.2830
 5742W        W23266   8.337   9.946   0.970  0.0581  0.2377 -0.0354
 5743W        W23267  13.075  10.159   2.580 -0.0715  0.1285 -0.2517
 5744W        W23268   7.307   0.313   3.032 -0.1129 -0.1507  0.0784
 5745W        W23269   2.397  15.052  12.991  0.0842 -0.5740  0.0523
 5746W        W23270   0.333   3.015   4.645  0.3194  0.1615  0.0428
 5747W        W23271  15.186  11.199  15.813 -0.0854  0.1547  0.0478
 5748W        W23272   5.703  10.678  12.411 -0.1558 -0.0069  0.2431
 5749W        W23273   7.223   2.572  12.287 -0.1513  0.4870  0.1028
 5750W        W23274  14.723   7.188  13.769 -0.4003  0.2672 -0.0086
 5751W        W23275   2.534   5.598  13.272  0.0032 -0.1534 -0.1361
 5752W        W23276   7.224   2.075   5.276  0.0507  0.3824 -0.1063
 5753W        W23277  16.179  10.612  14.607  0.1273 -0.4130 -0.1529
 5754W        W23278  15.434  13.957   0.672 -0.0793  0.2764  0.1195
 5755W        W23279   5.390  11.791   1.631 -0.0647  0.1273  0.0686
 5756W        W23280  13.559   9.747   0.091 -0.0108  0.1002  0.1866
 5757W        W23281   4.794   6.008   3.293  0.3909 -0.0022  0.0567
 5758W        W23282  15.883  12.934   3.213 -0.1605 -0.0830  0.1282
 5759W        W23283  13.343  12.753   4.676  0.0231  0.2306 -0.0023
 5760W        W23284   7.641  13.241  14.204 -0.0621 -0.1562  0.0053
 5761W        W23285   0.951   5.416  12.002 -0.0115 -0.0619  0.0666
 5762W        W23286   2.754   4.200   4.981  0.0903  0.1000  0.1707
 5763W        W23287   0.104  13.688  14.383  0.0319 -0.0305 -0.0215
 5764W        W23288   0.572  17.139  15.414 -0.3038  0.2596  0.1718
 5765W        W23289  16.605   4.584   4.347  0.0317  0.2459  0.0405
 5766W        W23290  12.774   1.653   3.165  0.2283 -0.1334  0.4524
 5767W        W23291   0.052  12.659   1.693 -0.0132  0.2165  0.1283
 5768W        W23292   0.604   5.682  12.400 -0.1581 -0.1252 -0.0778
 5769W        W23293   9.719  14.968   0.140  0.0054 -0.0298 -0.0686
 5770W        W23294   3.963   8.335  13.301 -0.0016 -0.0951 -0.0247
 5771W        W23295  13.516   4.075  12.901  0.0774 -0.1830  0.4398
 5772W        W23296  12.877   9.493   4.982 -0.0894 -0.0963 -0.1876
 5773W        W23297   8.338   1.013  17.264 -0.0821  0.1031 -0.2074
 5774W        W23298  13.919  13.810  17.588  0.2779  0.1044  0.1732
 5775W        W23299   4.439   7.058  16.804 -0.0319 -0.1169  0.0819
 5776W        W23300   3.356   5.447  17.123  0.0975  0.3196 -0.0977
 5777W        W23301   6.279   6.872   0.587 -0.1435  0.3809  0.0610
 5778W        W23302   5.737  12.054  16.038 -0.2676 -0.0336  0.2374
 5779W        W23303  17.047  16.029   1.865 -0.2522  0.0495 -0.0672
 5780W        W23304  14.108  13.039  17.595 -0.1325  0.2780  0.4537
 5781W        W23305  14.486   0.688  12.722 -0.0829 -0.0392 -0.4431
 5782W        W23306   5.587   9.507  14.482 -0.2565  0.2347  0.1389
 5783W        W23307  11.720   0.676  14.214  0.2555  0.1523 -0.1911
 5784W        W23308  12.994   8.485   2.101 -0.0695  0.2185  0.1928
 5785W        W23309  10.050   5.506   0.823  0.3748 -0.1273 -0.0819
 5786W        W23310   3.612   4.807  13.417 -0.0419 -0.0877 -0.3480
 5787W        W23311  12.122   1.743   0.487 -0.1946 -0.0722 -0.0617
 5788W        W23312  11.731   4.544   4.396 -0.3379 -0.0288 -0.1571
 5789W        W23313   1.407   2.982   1.069 -0.2487 -0.0559 -0.1967
 5790W        W23314   6.969   5.953   0.048  0.4832 -0.2599  0.0702
 5791W        W23315  15.238  14.653  16.881 -0.0632 -0.2238 -0.0038
 5792W        W23316   7.690   7.540  16.427  0.2327  0.1111 -0.0841
 5793W        W23317   1.048   0.800  14.999 -0.2233 -0.0725 -0.0259
 5794W        W23318   1.250   6.121   4.871 -0.0649  0.1321  0.1313
 5795W        W23319  13.824  12.385   6.496 -0.0963  0.0384  0.2464
 5796W        W23320   2.952   7.153  17.451  0.1462 -0.4781  0.1333
 5797W        W23321   4.960  12.514  12.481 -0.2012 -0.2769  0.0134
 5798W        W23322   6.320  13.620   0.523  0.1272 -0.0562  0.1176
 5799W        W23323   8.235   1.277  12.879  0.3485  0.1271 -0.2584
 5800W        W23324   8.263   5.749  11.969  0.0640 -0.0349 -0.2681
 5801W        W23325   0.697  16.650   5.525  0.1307  0.2493 -0.0652
 5802W        W23326   0.593  11.551   1.577 -0.0521  0.2648 -0.3080
 5803W        W23327   8.800  14.213  14.123 -0.0275  0.0723 -0.1702
 5804W        W23328   0.892   9.132   3.264  0.0574 -0.2147 -0.1763
 5805W        W23329   5.092   5.182   1.208  0.1061  0.2195 -0.2207
 5806W        W23330   3.075   1.068  17.049  0.1206 -0.1939 -0.0001
 5807W        W23331   4.260  12.316   0.096 -0.0923  0.3568 -0.1970
 5808W        W23332   7.555  14.843  16.050  0.1099  0.1719 -0.0356
 5809W        W23333   4.206  10.632  17.012  0.1219 -0.0560 -0.2442
 5810W        W23334  15.029   5.647   0.456 -0.1068 -0.0237 -0.0254
 5811W        W23335  10.969  15.421  12.412  0.3042  0.1710  0.1713
 5812W        W23336   1.536  10.877   1.079  0.0999  0.0281 -0.3741
 5813W        W23337   5.916   6.477   2.981 -0.0616  0.0576  0.1668
 5814W        W23338  15.042  15.764   4.321 -0.1002  0.2202  0.1518
 5815W        W23339   9.988   4.565  14.586  0.0031  0.1651  0.1170
 5816W        W23340   9.430  12.692   0.564  0.1561 -0.0880  0.1172
 5817W        W23341   1.011   1.392  15.936  0.0359 -0.3465 -0.4045
 5818W        W23342   8.769   3.983  12.867  0.1698 -0.0662 -0.1060
 5819W        W23343  11.096   4.376   3.079  0.2269  0.0959  0.3453
 5820W        W23344  13.746   0.763  12.405 -0.0256  0.0237 -0.0587
 5821W        W23345   3.240   9.280  13.793 -0.2828  0.0830  0.1524
 5822W        W23346  11.699   0.686   4.971  0.0133 -0.2423 -0.0068
 5823W        W23347   5.607   7.546  16.509  0.0243  0.1920 -0.0053
 5824W        W23348  11.835   1.364  17.247  0.1714  0.3053  0.0398
 5825W        W23349   9.424  14.983   1.296  0.2280  0.0406 -0.0611
 5826W        W23350   5.273  12.109  13.123 -0.1587 -0.0188 -0.0226
 5827W        W23351  14.703   9.456  13.808  0.0280 -0.2864 -0.0470
 5828W        W23352  10.240  16.894  13.498  0.1490 -0.0279  0.0930
 5829W        W23353  16.891   8.649   4.853  0.0598  0.1035 -0.2000
 5830W        W23354   5.727   9.253  12.785  0.0597 -0.0792  0.2388
 5831W        W23355   1.923  12.379   4.951  0.0371  0.0872 -0.0945
 5832W        W23356   1.150  16.474  16.323  0.0964 -0.0498  0.0710
 5833W        W23357  12.486  17.028  15.753  0.0118 -0.1507  0.0053
 5834W        W23358   5.420   6.337   1.754  0.2719  0.0376 -0.4059
 5835W        W23359  10.209  10.984   0.020 -0.1473 -0.0286  0.0160
 5836W        W23360   9.872   3.217  15.138  0.1624 -0.1251  0.0900
 5837W        W23361  13.246  14.818  15.502  0.4246  0.2314 -0.3117
 5838W        W23362   3.298   4.001  16.463  0.4517 -0.0005 -0.2187
 5839W        W23363  16.815  13.143  15.177  0.3539 -0.4234 -0.1692
 5840W        W23364   2.410   5.838   0.387  0.1534 -0.2257  0.0400
 5841W        W23365  12.361   0.450  16.369 -0.0959 -0.0180  0.0416
 5842W        W23366  14.952   9.334   2.071  0.1813  0.3748  0.1028
 5843W        W23367   0.611   7.472  13.334 -0.4621  0.1698  0.0903
 5844W        W23368   7.488  10.985   4.720  0.2523 -0.1300  0.3578
 5845W        W23369  11.503   1.760   1.536  0.1520 -0.2174  0.0323
 5846W        W23370   5.232  12.318   0.201  0.1681 -0.1237 -0.1025
 5847W        W23371   9.991   9.666  12.951  0.0225 -0.0193 -0.1441
 5848W        W23372  14.399  13.428  17.398  0.0764  0.1012 -0.3219
 5849W        W23373   3.486  17.070   5.567 -0.1445 -0.0329  0.0841
 5850W        W23374   9.504   8.550   4.829  0.0368 -0.1942 -0.0703
 5851W        W23375  12.489   6.988  15.184  0.0307 -0.1289  0.3457
 5852W        W23376  11.843   9.262  16.379  0.1790 -0.1088  0.1674
 5853W        W23377  16.023   7.906   1.627 -0.0042 -0.1782 -0.0658
 5854W        W23378   7.253   9.123   3.456 -0.1873  0.1798 -0.1278
 5855W        W23379   5.122   8.472  17.355  0.2850  0.0165  0.0716
 5856W        W23380   5.593   1.323   1.688  0.1059  0.0783  0.0163
 5857W        W23381   9.578   2.855  13.245 -0.1038  0.0950  0.1223
 5858W        W23382   8.021  16.506  17.149  0.2451  0.0256  0.2990
 5859W        W23383   6.593  13.825   1.171  0.2537 -0.0359  0.1846
 5860W        W23384   1.602  14.569   5.768 -0.3825  0.1496 -0.0959
 5861W        W23385   4.414  15.831   2.322 -0.1101  0.0779  0.1732
 5862W        W23386   5.604   0.846  15.890  0.1570  0.0015  0.0144
 5863W        W23387   4.434  13.516  14.752  0.3133  0.2705 -0.0725
 5864W        W23388   0.917   6.960   2.164 -0.2335  0.0472 -0.0774
 5865W        W23389   0.638   2.363  16.644 -0.1190  0.2035 -0.0907
 5866W        W23390  12.166   1.507  14.053 -0.0202  0.0740  0.1409
 5867W        W23391  14.414   3.148   1.639  0.0283  0.0149  0.1363
 5868W        W23392   6.928  15.681   5.600  0.3450 -0.1748  0.2275
 5869W        W23393  13.902   7.084   2.602  0.0756 -0.1900 -0.0662
 5870W        W23394   5.765   2.388   1.033 -0.2131  0.2366  0.0584
 5871W        W23395   5.238   3.398   0.257 -0.1096 -0.1807  0.0783
 5872W        W23396   5.285   2.403  15.137 -0.3973  0.1146 -0.1601
 5873W        W23397  12.089  14.133  15.838 -0.2614  0.1105 -0.0501
 5874W        W23398  13.287  10.158   3.034 -0.3892  0.3241 -0.0149
 5875W        W23399  12.448  14.497  15.808 -0.1960  0.0829  0.0934
 5876W        W23400   3.979  14.723  13.714  0.0324 -0.0126  0.2689
 5877W        W23401   8.380   0.267  12.006  0.2598 -0.0192 -0.1989
 5878W        W23402  13.469  13.689  13.597 -0.2005 -0.0440  0.2735
 5879W        W23403  11.720   5.816   0.286 -0.0009  0.0400 -0.3178
 5880W        W23404  13.266  10.073  14.898 -0.2023  0.1354 -0.1599
 5881W        W23405  14.381  10.534  12.084 -0.0521  0.1419 -0.2096
 5882W        W23406   4.025   3.634  14.971  0.3940 -0.3108 -0.0661
 5883W        W23407   2.041  14.088   2.789 -0.0822 -0.1039 -0.2212
 5884W        W23408   6.610  12.156   2.346  0.1135 -0.1151  0.1886
 5885W        W23409   8.650  13.043   2.308  0.3804 -0.3237 -0.1872
 5886W        W23410   4.263   6.143   4.014  0.0203 -0.1162  0.2605
 5887W        W23411   3.235   0.460   0.052  0.0574 -0.0374 -0.0888
 5888W        W23412   8.582   9.106  11.683 -0.0493 -0.2083 -0.2080
 5889W        W23413  13.913  12.475   1.165 -0.3396  0.0407 -0.2027
 5890W        W23414   9.472   0.646  14.707 -0.0268  0.4101 -0.2437
 5891W        W23415   2.002   5.933   4.213  0.2752  0.0700  0.1042
 5892W        W23416  12.196   7.805   3.049 -0.0393  0.0743  0.5201
 5893W        W23417  12.181  15.660  13.887  0.1566 -0.0003 -0.1830
 5894W        W23418  15.546   7.850  14.654  0.1241 -0.0472 -0.0421
 5895W        W23419   8.400   7.831   4.085  0.1015 -0.0256 -0.3618
 5896W        W23420   0.029  14.697   5.172 -0.0297 -0.1907  0.0933
 5897W        W23421   5.579   2.146   5.133  0.0809  0.1606 -0.0029
 5898W        W23422   8.910   0.585   3.580 -0.1708  0.1829 -0.1358
 5899W        W23423   5.327   7.246   0.008  0.0116 -0.0839 -0.1044
 5900W        W23424   3.577   0.571   2.054  0.1113 -0.3431 -0.0296
 5901W        W23425   6.614  10.375   0.735  0.1135  0.3664  0.3153
 5902W        W23426   0.598  12.378   0.466  0.1610 -0.0099  0.3690
 5903W        W23427  11.024  16.503   1.324 -0.0584  0.0787  0.2084
 5904W        W23428  14.485  10.723   4.065  0.0646  0.1927 -0.0998
 5905W        W23429  11.425   3.568  13.601 -0.1472  0.0786 -0.1498
 5906W        W23430  10.846   6.721   0.972 -0.0937 -0.3926  0.1270
 5907W        W23431   2.601  13.235   5.353  0.2290 -0.1565  0.0948
 5908W        W23432   0.230   2.332   3.153 -0.1578  0.2115  0.0427
 5909W        W23433  11.337  14.258  12.747  0.2676 -0.1710  0.0109
 5910W        W23434   2.234   8.910  12.681  0.0898  0.0073 -0.3253
 5911W        W23435  16.669   2.492   3.581  0.0612 -0.2149  0.0660
 5912W        W23436   8.663   8.134   1.358  0.2676 -0.1733  0.0476
 5913W        W23437   2.823   8.656  15.827  0.4438 -0.4431  0.1307
 5914W        W23438   5.420  15.545  12.361  0.2736 -0.0919  0.3552
 5915W        W23439   8.040  16.758  16.272  0.0254 -0.0313 -0.1401
 5916W        W23440  12.105   7.013  12.150 -0.1970 -0.0183 -0.0837
 5917W        W23441   0.657  13.417  15.445 -0.0707 -0.2600 -0.1678
 5918W        W23442   6.346  15.353   2.064  0.0654 -0.0685  0.3687
 5919W        W23443   0.841  12.862  13.298 -0.2433  0.1021 -0.0601
 5920W        W23444   7.028  12.993   3.022 -0.0307 -0.0737  0.0426
 5921W        W23445  10.976  15.042   2.615 -0.0660  0.0932  0.0732
 5922W        W23446  13.694   3.762  16.656 -0.0670 -0.1450 -0.1466
 5923W        W23447  15.666   0.711  16.578 -0.0343  0.6032  0.1628
 5924W        W23448  12.739   7.931   2.958 -0.1554  0.0194  0.5382
 5925W        W23449   4.229   4.619   3.840 -0.1738 -0.1066 -0.3196
 5926W        W23450   1.176  14.884  15.970 -0.0785  0.1493 -0.0298
 5927W        W23451  14.137   2.433  14.941 -0.2849  0.2540  0.3644
 5928W        W23452  14.515  12.864   3.490 -0.3284  0.4171  0.1881
 5929W        W23453   7.949   9.277   3.613  0.0748  0.3076 -0.2266
 5930W        W23454  15.224  11.206  14.417  0.2406  0.1790  0.0470
 5931W        W23455   4.959   4.241   1.434 -0.2005 -0.2287  0.4848
 5932W        W23456  14.162  12.594  15.788  0.3494  0.0048  0.2372
 5933W        W23457  14.551   0.635   5.613  0.1535  0.1338  0.0677
 5934W        W23458   8.471   1.007   1.755  0.1221 -0.1028  0.1514
 5935W        W23459  14.004   1.446   1.502 -0.0311 -0.0268  0.0597
 5936W        W23460  12.981  15.872   3.249  0.2333 -0.3887 -0.0155
 5937W        W23461  14.316   9.654   0.885 -0.0142  0.1410 -0.2491
 5938W        W23462   4.127  13.660   3.178 -0.2574 -0.1853  0.2842
 5939W        W23463   6.681   4.242  13.639  0.0392  0.1692 -0.0811
 5940W        W23464   1.241   6.889   3.896  0.1437 -0.1583  0.2046
 5941W        W23465  11.291  11.368  16.438 -0.2643 -0.3034 -0.1864
 5942W        W23466   1.806  16.643  14.675  0.0120 -0.4572 -0.1162
 5943W        W23467  12.087   8.161  14.904  0.1362  0.0375 -0.0193
 5944W        W23468   1.748   1.084  13.175  0.2206 -0.0991  0.1664
 5945W        W23469  10.791   3.408  16.188  0.1080 -0.3190  0.0985
 5946W        W23470  11.161   1.688  12.323  0.0214  0.0771  0.1319
 5947W        W23471   1.128   9.750   3.356  0.0282 -0.2153 -0.1196
 5948W        W23472   8.300  10.022  12.326  0.2068 -0.0367 -0.1057
 5949W        W23473   9.609  14.011   2.711 -0.0497  0.0086  0.0290
 5950W        W23474   5.884  15.053  17.291 -0.0319  0.1672  0.2874
 5951W        W23475  14.601  12.040  16.613 -0.1623 -0.0861  0.0476
 5952W        W23476   0.403  17.128   2.692  0.2023 -0.0866 -0.1411
 5953W        W23477   6.457   1.054   5.209  0.1113  0.1710 -0.1065
 5954W        W23478   5.581  12.797  12.096  0.1636 -0.1561  0.0452
 5955W        W23479   9.132   9.371   4.926 -0.1595  0.0681 -0.1452
 5956W        W23480  12.177  13.628   5.374  0.1842  0.0653 -0.1890
 5957W        W23481  14.808   3.897  14.249  0.0811  0.2219  0.0095
 5958W        W23482   4.069   9.287  17.028  0.1734  0.0086  0.1354
 5959W        W23483   9.580   3.897   5.092 -0.0438 -0.1830 -0.2079
 5960W        W23484   1.838  11.317   1.002  0.0945 -0.1651  0.0105
 5961W        W23485   1.907   2.881  16.306 -0.0094 -0.0828  0.0927
 5962W        W23486   7.495  15.875  12.861 -0.0358 -0.2273  0.0230
 5963W        W23487  14.293   7.568  12.860  0.0523  0.1004  0.0005
 5964W        W23488  10.421   2.107  13.966 -0.0803  0.0375  0.0399
 5965W        W23489  13.645  16.526  17.383  0.1558  0.0016 -0.0079
 5966W        W23490   9.949   0.743   2.355 -0.1095 -0.0108  0.0192
 5967W        W23491   8.521  16.520  11.885 -0.0484 -0.1810 -0.0144
 5968W        W23492   7.874  16.364   1.689 -0.0984 -0.0871  0.1001
 5969W        W23493   6.013   8.493  13.995 -0.2170 -0.0165  0.1197
 5970W        W23494  13.119   5.408   5.474  0.1348 -0.1794  0.1797
 5971W        W23495   0.176   3.705  14.328 -0.3285 -0.0564  0.0370
 5972W        W23496   5.786  15.258  12.669  0.0883 -0.1659  0.1818
 5973W        W23497   3.521   1.514  12.650 -0.1011  0.0956  0.1800
 5974W        W23498   4.163  15.171   3.190  0.0562 -0.0950  0.0134
 5975W        W23499   4.519   5.378   5.664 -0.0498 -0.1112  0.1307
 5976W        W23500   9.659  11.394   5.073  0.2899 -0.0604  0.0984
 5977W        W23501   5.483   0.612  13.120 -0.2903 -0.1629  0.0700
 5978W        W23502   8.537  11.225   3.571  0.1477 -0.1275  0.1729
 5979W        W23503  10.023   7.829  14.647 -0.1539 -0.1059  0.1397
 5980W        W23504  15.852  16.653  15.774 -0.2521  0.0222 -0.1369
 5981W        W23505  13.243  10.553  12.806 -0.0131  0.1214 -0.0533
 5982W        W23506  14.734   4.668  15.921 -0.3099 -0.1462  0.2780
 5983W        W23507   7.314   4.896   3.127 -0.0509  0.1678  0.0167
 5984W        W23508   0.887   4.313  15.303 -0.1770  0.0432 -0.2077
 5985W        W23509   3.382   5.315  13.337  0.3333  0.0806 -0.4638
 5986W        W23510   6.934  11.646   4.777 -0.0714 -0.0789  0.0167
 5987W        W23511   3.953  16.932  12.463  0.0066 -0.2103 -0.1423
 5988W        W23512   6.615  11.356  14.567 -0.0363 -0.0906  0.0557
 5989W        W23513  16.507   5.232   4.470 -0.0360 -0.1775 -0.0848
 5990W        W23514  14.811   4.353  14.371 -0.0528 -0.1983 -0.2044
 5991W        W23515  15.750   7.307   1.318  0.1750  0.1020 -0.0790
 5992W        W23516   2.964   4.266  13.746  0.2380  0.2703 -0.2227
 5993W        W23517   4.359  16.751   2.842 -0.2567  0.1597 -0.1058
 5994W        W23518  11.523   0.708   5.593  0.2325  0.3371 -0.2146
 5995W        W23519   3.167   5.180  16.768  0.0248  0.2540  0.1678
 5996W        W23520   9.874   2.359  11.580  0.0248  0.0757  0.0273
 5997W        W23521   2.032   8.610  14.443  0.1035 -0.3317  0.2033
 5998W        W23522  15.383  11.796  11.303  0.0830  0.0402 -0.2233
 5999W        W23523  13.474   4.394   0.412  0.2280  0.0564  0.2118
 6000W        W23524   1.198  16.620   1.292  0.0910  0.0961  0.1237
 6001W        W23525   2.334  13.134  14.733 -0.1174 -0.1340 -0.2260
 6002W        W23526  14.081   6.510   6.244  0.0116  0.3546 -0.0262
 6003W        W23527   1.898   1.545  13.149  0.3582  0.0288 -0.1340
 6004W        W23528  14.336   6.262  13.597 -0.3015  0.1202 -0.0847
 6005W        W23529   1.031   6.507   1.770 -0.3298  0.1941  0.1440
 6006W        W23530   0.720   5.602  14.647 -0.0588  0.2698  0.1526
 6007W        W23531   7.081  12.384  15.411 -0.1407 -0.1628  0.1719
 6008W        W23532   4.922   6.223  16.263 -0.3783 -0.0902 -0.0112
 6009W        W23533   4.569   2.129   1.438  0.0142  0.1604  0.3097
 6010W        W23534  12.104  15.132  12.933 -0.0253 -0.0123 -0.1288
 6011W        W23535  11.108   1.061   4.213 -0.0183  0.0915  0.2783
 6012W        W23536  13.778  10.140   4.583  0.1982  0.0759  0.0769
 6013W        W23537   9.820  10.212   4.049 -0.0504  0.3485  0.0223
 6014W        W23538   1.125   1.340  16.685  0.0141  0.1147  0.0819
 6015W        W23539  12.217  14.368   4.668 -0.3412  0.0372 -0.1565
 6016W        W23540   9.827   0.888  11.486 -0.0727 -0.3544 -0.1784
 6017W        W23541   2.120   0.493  17.581 -0.3373 -0.1545  0.0816
 6018W        W23542  16.514  11.542  14.784 -0.2151 -0.0962 -0.2667
 6019W        W23543  11.090   4.189  16.778 -0.2906  0.1247  0.1364
 6020W        W23544   8.247   8.167   4.422  0.1365  0.1685 -0.2005
 6021W        W23545   3.960  13.591  16.412 -0.0237 -0.0884  0.2438
 6022W        W23546   0.249   3.659  16.909 -0.0524  0.0401  0.2960
 6023W        W23547   2.391   3.042   2.317  0.4120 -0.0673  0.0831
 6024W        W23548   4.617   5.555  17.140 -0.1745  0.0923  0.4296
 6025W        W23549   6.182   9.842   4.518  0.0796  0.3067  0.0170
 6026W        W23550  13.136   4.931  12.173  0.1713  0.0403 -0.0274
 6027W        W23551  15.999  10.284   3.824  0.1866 -0.0208  0.1821
 6028W        W23552   6.488   1.464   0.560  0.2094  0.2382  0.0820
 6029W        W23553   0.211  10.914  15.316 -0.0965  0.3774  0.2147
 6030W        W23554   8.460  12.373   3.600  0.0517  0.0375 -0.4443
 6031W        W23555  11.511   9.080  12.144 -0.2013  0.0133  0.1716
 6032W        W23556   2.898   1.053  12.287  0.2078  0.0845 -0.1524
 6033W        W23557  15.862  15.792   2.753  0.1118  0.1035  0.1468
 6034W        W23558   8.371  12.148  13.430  0.1192  0.0779 -0.0309
 6035W        W23559  15.662   1.025   1.635  0.1451 -0.2318 -0.2235
 6036W        W23560   3.036   8.877  17.569 -0.0810 -0.0009  0.0380
 6037W        W23561  11.019   5.467   3.676 -0.1553 -0.2282  0.1008
 6038W        W23562  15.072  16.166   5.443 -0.0575  0.1392  0.1613
 6039W        W23563   2.830   0.553   2.643  0.0323  0.1119 -0.2997
 6040W        W23564   9.596  10.036   4.475 -0.1351  0.1522 -0.2013
 6041W        W23565  14.335  11.923  12.709 -0.0005 -0.0946  0.1975
 6042W        W23566   0.381  17.132   4.025  0.0534 -0.4094 -0.1681
 6043W        W23567  11.252   6.218  13.911  0.0657  0.1006  0.1496
 6044W        W23568  14.547  14.720  15.282  0.0601 -0.2716  0.2228
 6045W        W23569  16.849   5.307   3.255  0.0206 -0.0819  0.2684
 6046W        W23570   7.197   1.018   4.242  0.0842  0.1809  0.1938
 6047W        W23571  10.382   2.018   1.266  0.2889  0.0321 -0.4631
 6048W        W23572   6.382   6.943  15.354  0.0309 -0.0545 -0.0559
 6049W        W23573   1.657   5.674   0.430 -0.2260 -0.0457 -0.0790
 6050W        W23574   2.905   6.506  15.467  0.1471 -0.1049 -0.0247
 6051W        W23575  11.979   7.489  14.361  0.1095  0.3177 -0.1375
 6052W        W23576  10.668   9.425  12.150 -0.2485 -0.1618 -0.0325
 6053W        W23577  10.259  14.419  13.955  0.0218  0.0422  0.0872
 6054W        W23578   4.225  15.634  16.474 -0.0949 -0.2132 -0.2163
 6055W        W23579   8.251   5.935  13.923  0.0051 -0.3054  0.1153
 6056W        W23580  13.611  16.186  14.151  0.2168  0.0182 -0.2272
 6057W        W23581   5.491  15.156  13.096  0.2023 -0.2141 -0.3167
 6058W        W23582   4.433   8.549   0.027  0.0297 -0.0665 -0.3431
 6059W        W23583  17.144   9.920  13.842  0.1754  0.2325  0.1036
 6060W        W23584   7.232   8.528  14.997 -0.0491  0.4870 -0.0499
 6061W        W23585   9.723  13.573   1.271 -0.1282 -0.1110 -0.0081
 6062W        W23586  16.825   7.977  17.555 -0.0280  0.0440 -0.1861
 6063W        W23587   4.635   5.993   4.351  0.1046 -0.3947 -0.0541
 6064W        W23588  11.259  15.001   3.241  0.3786 -0.3627 -0.0354
 6065W        W23589  16.262  15.033   1.172 -0.0484  0.2219  0.2227
 6066W        W23590  14.885  11.677  16.987 -0.2385  0.2221  0.0571
 6067W        W23591  13.152  12.733  15.823 -0.2316  0.2943  0.2450
 6068W        W23592  16.070   6.660  17.143 -0.1745  0.0031  0.1563
 6069W        W23593  14.013   5.809   4.914  0.5175  0.0315 -0.0270
 6070W        W23594   2.355  13.314  13.802 -0.0359  0.2825  0.2888
 6071W        W23595  15.871   5.673   3.148  0.4721 -0.0501  0.1617
 6072W        W23596  12.212   6.044   1.771 -0.2442  0.0797  0.0592
 6073W        W23597  10.219   7.847  15.219 -0.1526 -0.0322  0.0871
 6074W        W23598   3.662   6.111  15.147  0.2473 -0.0877 -0.1448
 6075W        W23599   7.941   6.777  14.936  0.0571  0.1002  0.0738
 6076W        W23600  15.761   1.277  13.343  0.1147 -0.1608  0.3520
 6077W        W23601   9.662   7.525  13.072  0.0305 -0.0076 -0.2710
 6078W        W23602  13.480  13.811  15.208 -0.1863  0.1594 -0.3241
 6079W        W23603   6.883  14.297   2.239  0.1211  0.1270  0.0160
 6080W        W23604  10.627  15.438   2.695  0.0040  0.0854 -0.4590
 6081W        W23605  16.388  15.289   4.735 -0.0052 -0.0711  0.1475
 6082W        W23606   3.447  10.590   1.401  0.0023 -0.0284 -0.1665
 6083W        W23607  13.241  11.715   1.883 -0.0851 -0.3840  0.0954
 6084W        W23608  15.769  15.762   4.948 -0.3742  0.1905  0.0191
 6085W        W23609  10.562   1.974   6.498 -0.0846  0.1806  0.2589
 6086W        W23610  12.566  13.951   3.589 -0.1543  0.1039  0.0878
 6087W        W23611   1.110   3.545  15.273 -0.0368  0.0564 -0.0929
 6088W        W23612   0.749   3.584   3.889  0.1393 -0.0550  0.1066
 6089W        W23613   4.754   1.266   0.262 -0.3102 -0.0712  0.1184
 6090W        W23614   1.043  15.680  12.147 -0.1994  0.0725 -0.1922
 6091W        W23615   9.987   5.635   3.127 -0.1672  0.0085  0.1026
 6092W        W23616  15.950  15.949  13.670  0.0878  0.1422 -0.4193
 6093W        W23617   3.867  11.443  14.819  0.0783 -0.4214 -0.0660
 6094W        W23618  11.456   8.533  14.301  0.0550  0.0354  0.0055
 6095W        W23619   1.984  13.684  14.349  0.0156 -0.0123  0.2159
 6096W        W23620   6.739  15.741  16.669 -0.5261  0.0617  0.2433
 6097W        W23621   6.237  13.022   3.877 -0.1192  0.2174  0.0292
 6098W        W23622   3.775   7.995  13.676  0.0887  0.1368  0.1700
 6099W        W23623  12.840   8.648   3.023  0.1882  0.0142 -0.0329
 6100W        W23624  16.941   9.076  17.235 -0.0724 -0.0759 -0.1118
 6101W        W23625  15.967   7.335  15.420  0.0598 -0.1516  0.3909
 6102W        W23626   9.177  10.450  15.528 -0.0007 -0.5157  0.0757
 6103W        W23627  14.655   5.295  14.749  0.2170  0.5361  0.0014
 6104W        W23628  12.986   1.513   3.570  0.0344  0.1354  0.2303
 6105W        W23629  10.523   5.821   3.151  0.0891  0.1116 -0.0308
 6106W        W23630   2.868  11.147  13.321 -0.0884 -0.3156  0.1322
 6107W        W23631  15.030  12.897   0.291  0.0706 -0.1333  0.2343
 6108W        W23632   1.589  14.818   5.229 -0.0750  0.3488 -0.1449
 6109W        W23633  11.719   8.820   4.841  0.2346  0.0531  0.0559
 6110W        W23634  11.997   4.722   5.667 -0.0807 -0.1416  0.2940
 6111W        W23635   4.314   3.470   2.662 -0.2618 -0.0068 -0.0798
 6112W        W23636   4.313  11.897   3.991  0.2721  0.1285  0.0881
 6113W        W23637   3.218  10.577   0.456 -0.1986 -0.3828 -0.2533
 6114W        W23638  14.175   2.872   0.333  0.0434  0.0269 -0.2391
 6115W        W23639   2.818   0.537   5.948  0.1119 -0.1603  0.2266
 6116W        W23640  10.766  10.370   0.280 -0.0205  0.4111 -0.1979
 6117W        W23641  16.908  13.049   2.455 -0.0127  0.0984  0.1814
 6118W        W23642   2.039   6.888  16.530 -0.1884  0.0489 -0.0697
 6119W        W23643   2.523   6.744   4.731  0.1442 -0.1383  0.1272
 6120W        W23644  14.486   4.131  11.411  0.2168 -0.1395 -0.0390
 6121W        W23645   5.802  12.037   0.803  0.0932  0.0787  0.2404
 6122W        W23646   5.381   2.384  17.425  0.1179  0.1725 -0.0683
 6123W        W23647  11.569   3.767  16.706 -0.0799 -0.0226 -0.2199
 6124W        W23648   8.831  11.580  14.043 -0.1285 -0.0473 -0.1390
 6125W        W23649   3.414   8.592  16.042 -0.1093 -0.0313  0.0124
 6126W        W23650   5.343   1.571   4.428 -0.0827  0.0867 -0.1460
 6127W        W23651   3.669  15.525   4.128 -0.2874 -0.5075  0.1429
 6128W        W23652   3.158   1.877   0.065  0.7142  0.2314 -0.1409
 6129W        W23653   2.763   9.707  14.556  0.0037 -0.2654 -0.1199
 6130W        W23654  13.481  10.623   3.755  0.2564  0.0122  0.1198
 6131W        W23655  11.998   1.688   3.429 -0.0404 -0.1232  0.0106
 6132W        W23656  10.740  15.323  13.613  0.0483 -0.1269 -0.2779
 6133W        W23657  15.186  10.809   1.008  0.1702 -0.0444  0.1231
 6134W        W23658  11.921   5.106  13.487  0.0825  0.1536  0.0422
 6135W        W23659   1.801   4.460   6.160 -0.0297 -0.0123 -0.0445
 6136W        W23660   5.202   5.769   3.887 -0.2613  0.1422 -0.1304
 6137W        W23661  11.028  15.663   5.181 -0.3755 -0.0270 -0.1717
 6138W        W23662   8.231   9.521  17.275  0.2191  0.1396  0.2061
 6139W        W23663  15.727   7.531   2.328  0.0052 -0.0378 -0.0352
 6140W        W23664  10.657   9.035   0.804 -0.2206 -0.0653  0.2885
 6141W        W23665   7.911   0.213  17.599 -0.0610  0.1054 -0.0784
 6142W        W23666  15.648   0.780  17.431  0.3297 -0.0540  0.0467
 6143W        W23667  12.053   8.299   3.319 -0.0207 -0.1714 -0.1856
 6144W        W23668  16.205   5.137  13.579 -0.1640 -0.0091  0.1373
 6145W        W23669   7.684   9.098   3.216  0.0312  0.2648  0.0242
 6146W        W23670   8.538  16.398  12.550 -0.3251  0.1834  0.2350
 6147W        W23671  14.826  10.593   4.790  0.1596 -0.2985  0.2814
 6148W        W23672  16.727  11.445  14.089 -0.0641  0.2613 -0.0367
 6149W        W23673  15.791   6.790  17.516 -0.1240  0.1762  0.0880
 6150W        W23674  10.670   1.484  15.333  0.0331 -0.0780  0.0262
 6151W        W23675  10.127   3.130   4.269  0.1526  0.0666  0.2472
 6152W        W23676   0.692   6.454  16.020  0.1413 -0.0769 -0.0878
 6153W        W23677   2.158  12.621   1.064  0.3942  0.2588  0.0898
 6154W        W23678   3.146   8.052   3.496 -0.1032  0.1259 -0.0025
 6155W        W23679  10.999  14.210  15.386  0.2135  0.1153 -0.1683
 6156W        W23680   6.033  12.849  14.973 -0.1407  0.1958  0.2520
 6157W        W23681  15.900   1.827   0.887  0.3475  0.4197  0.1792
 6158W        W23682   0.164  11.849   1.759 -0.1267  0.3151 -0.0246
 6159W        W23683  14.679   6.314   4.320  0.0556 -0.2947 -0.1325
 6160W        W23684   2.954   4.775  15.860 -0.1156 -0.0835 -0.0303
 6161W        W23685  11.306   5.526  12.807 -0.0599 -0.0510 -0.0440
 6162W        W23686  13.707   1.488   3.515 -0.0742  0.2277  0.0871
 6163W        W23687   2.318   5.637   1.643 -0.0604  0.2008  0.1634
 6164W        W23688   6.279  16.877   1.714  0.4672 -0.0567 -0.0304
 6165W        W23689   9.911   7.865   4.901  0.0550  0.1497  0.0374
 6166W        W23690   5.835   6.732   0.545 -0.2693 -0.2236 -0.1644
 6167W        W23691  11.736  13.816  15.754  0.0413 -0.0785  0.2246
 6168W        W23692   7.889   7.337   1.521 -0.2544  0.1308  0.0549
 6169W        W23693   4.149  14.605  12.247 -0.1285  0.1482 -0.0210
 6170W        W23694  11.813  13.462   1.573  0.3951 -0.1764 -0.1234
 6171W        W23695   1.519   7.985  16.693 -0.0160  0.1314  0.2939
 6172W        W23696  13.768  11.972  17.632  0.1406 -0.1748 -0.0092
 6173W        W23697   8.785   7.150  14.689  0.0876  0.0409  0.1147
 6174W        W23698  15.212  11.163  15.315 -0.0267  0.1189  0.0697
 6175W        W23699  11.644   4.642   2.440  0.0326  0.0121 -0.1123
 6176W        W23700   0.939  11.725   5.530  0.0644  0.2779  0.0788
 6177W        W23701  17.155   5.543   1.400  0.0686  0.0492 -0.0189
 6178W        W23702   9.072   8.609   3.498 -0.2459 -0.1648  0.1189
 6179W        W23703  14.205   4.342   4.014 -0.3387  0.0318 -0.0582
 6180W        W23704   5.109  16.903  14.865  0.2540 -0.2673  0.2465
 6181W        W23705   5.998   0.344   5.358 -0.2487 -0.5259  0.0648
 6182W        W23706  12.160   2.140  16.902 -0.0911  0.2244 -0.0075
 6183W        W23707  14.501   6.936  15.052  0.0334 -0.1118 -0.2916
 6184W        W23708   1.127   8.219  14.020 -0.1290 -0.1812  0.3996
 6185W        W23709   5.025   6.722   5.053  0.0545 -0.0813  0.0483
 6186W        W23710  15.973  16.552  12.987 -0.1404 -0.2173 -0.2596
 6187W        W23711  14.927   6.359  14.000 -0.0878  0.1738  0.0317
 6188W        W23712  16.589  13.796  17.735 -0.1052  0.0742  0.1185
 6189W        W23713   0.282   5.953   1.679  0.2105  0.0399 -0.1171
 6190W        W23714   4.071  13.162   1.502 -0.0047  0.0839 -0.1621
 6191W        W23715  14.111  11.682   3.409  0.1069  0.0874  0.4630
 6192W        W23716  13.253   6.915   0.193  0.2407 -0.1617 -0.3825
 6193W        W23717   7.525  16.988   4.880  0.0012 -0.1029 -0.0027
 6194W        W23718  11.594   5.382  16.124  0.0249 -0.1148  0.1942
 6195W        W23719   9.685   6.185  14.800 -0.2559 -0.1929 -0.0597
 6196W        W23720   4.909  11.332   3.891 -0.1536  0.0821  0.1073
 6197W        W23721   8.390   7.539  14.888  0.1707 -0.2730  0.0744
 6198W        W23722  14.990  11.080  16.236 -0.0355 -0.0543  0.2363
 6199W        W23723   8.061  16.197   4.071 -0.1561 -0.1662 -0.3048
 6200W        W23724  16.423   2.380   6.256  0.2079  0.0054  0.4437
 6201W        W23725   2.222   3.554   4.605 -0.4997 -0.0522  0.1185
 6202W        W23726  16.011  14.411   2.064 -0.0424  0.0969  0.3186
 6203W        W23727   9.388   6.645  13.590 -0.0054  0.0156 -0.1981
 6204W        W23728   5.818  12.248  13.348 -0.0336 -0.0495  0.0933
 6205W        W23729  14.440   9.945  16.345 -0.1339 -0.1397 -0.1407
 6206W        W23730  17.033   3.712   0.337  0.2471 -0.2699  0.1771
 6207W        W23731   7.565  14.932  12.912  0.2310  0.0526 -0.0040
 6208W        W23732   1.732  10.249   2.119 -0.1353  0.1032 -0.2906
 6209W        W23733  10.324   0.109   3.776  0.3803 -0.0307  0.1118
 6210W        W23734   0.014  14.023  14.880 -0.3577 -0.1163 -0.1691
 6211W        W23735   5.393   6.653   0.923 -0.0336  0.2944  0.1973
 6212W        W23736  14.069   9.859  15.955  0.1808  0.2708 -0.0648
 6213W        W23737   1.643   1.318  12.745 -0.2160 -0.0793 -0.1763
 6214W        W23738   7.890   5.454  15.229 -0.5609  0.2322 -0.1528
 6215W        W23739   2.999   0.400   5.028  0.2695  0.1129 -0.0002
 6216W        W23740   6.277   0.362  15.949 -0.2239 -0.1414 -0.0703
 6217W        W23741   1.600   7.266  13.452 -0.0237 -0.1325  0.0549
 6218W        W23742  12.994  16.624  14.471  0.1127  0.0363  0.1258
 6219W        W23743   7.728   8.338   5.251 -0.1624  0.2185  0.1952
 6220W        W23744  15.492   3.606  12.634 -0.2928 -0.0464 -0.0045
 6221W        W23745  14.110   3.950  15.895 -0.1607  0.1373  0.1379
 6222W        W23746   2.786   9.599   1.917 -0.1023  0.0492  0.5217
 6223W        W23747  15.843   2.060  15.237 -0.1415 -0.1177  0.0939
 6224W        W23748  13.098   1.269   0.229  0.0937 -0.0836 -0.1682
 6225W        W23749   7.922   5.266  11.970  0.3577  0.0263  0.1815
 6226W        W23750  16.962  11.910  13.891  0.0214 -0.2565  0.0342
 6227W        W23751  17.064  12.240   1.972  0.3715  0.2986 -0.1566
 6228W        W23752   2.362   5.235  16.601  0.0485  0.0970 -0.1285
 6229W        W23753   7.747   5.073   2.269 -0.3013  0.0313  0.0797
 6230W        W23754   5.659  16.295   1.531  0.0363 -0.3510  0.0739
 6231W        W23755   2.870   5.181   2.502  0.0745 -0.0707  0.2201
 6232W        W23756  13.240   4.395  17.679 -0.2622 -0.2594 -0.0934
 6233W        W23757  12.583   7.441   3.098  0.2630 -0.2280  0.3915
 6234W        W23758   7.872   0.912  14.056 -0.1469  0.1291 -0.0872
 6235W        W23759   0.661   7.156  17.175 -0.1401  0.2486  0.2165
 6236W        W23760   0.176   8.040   3.595 -0.0936  0.2043 -0.1921
 6237W        W23761  16.683   6.421   2.251 -0.0645  0.1259  0.1366
 6238W        W23762   6.593  14.748   1.988 -0.2001 -0.0134 -0.2904
 6239W        W23763   1.678   0.525   0.024 -0.2096 -0.0949 -0.1033
 6240W        W23764   4.802   1.139   4.627 -0.1908  0.1667  0.1877
 6241W        W23765   7.422   8.196   3.011  0.0048  0.0978  0.1531
 6242W        W23766  14.403  16.911   2.799 -0.1135 -0.1349 -0.1027
 6243W        W23767   7.090  12.787  12.943 -0.1814  0.0860  0.0856
 6244W        W23768   7.151  12.040   1.258 -0.0229  0.0527  0.0514
 6245W        W23769   2.688   4.682   2.525  0.0734  0.2391 -0.0778
 6246W        W23770   8.784  13.440  15.969 -0.1929 -0.0363  0.0360
 6247W        W23771   0.363   5.046   2.830  0.0429 -0.0577 -0.2048
 6248W        W23772   9.093  16.234  13.379 -0.0505 -0.0730 -0.1926
 6249W        W23773   9.841   1.116  13.582 -0.1145 -0.3730 -0.1198
 6250W        W23774  11.190   0.214   0.923 -0.2291 -0.1861  0.0687
 6251W        W23775   8.993  14.651   2.958 -0.3553  0.0679  0.1400
 6252W        W23776   5.687   1.998   2.963 -0.0063  0.1496 -0.1623
 6253W        W23777   6.810  15.177  13.569 -0.1065 -0.2109 -0.0698
 6254W        W23778   1.264  11.895   2.824 -0.1781 -0.1028  0.0126
 6255W        W23779  15.796   9.806  15.069 -0.0422  0.1704 -0.2365
 6256W        W23780  13.684   5.451  16.303  0.1561  0.1688 -0.2133
 6257W        W23781  12.484   5.940  13.461  0.2010 -0.1903 -0.0421
 6258W        W23782   7.701   6.059   4.233  0.3218  0.1908  0.2254
 6259W        W23783   0.392  11.918   1.306 -0.1488  0.3387 -0.0005
 6260W        W23784   9.591   1.562  12.492 -0.0948  0.0147 -0.2955
 6261W        W23785  14.361   6.984  12.843 -0.0710 -0.0393 -0.3342
 6262W        W23786  10.550   5.502   4.539  0.2898  0.0185 -0.1912
 6263W        W23787   8.630   9.952   0.054 -0.3886  0.0561  0.0881
 6264W        W23788  11.185  12.498   5.113 -0.0977  0.2843  0.1595
 6265W        W23789  12.094   7.186   2.219 -0.0943 -0.0072  0.1379
 6266W        W23790  13.236  12.277   3.864  0.0391 -0.1713 -0.1062
 6267W        W23791   1.785  15.140  12.682  0.1405  0.2098 -0.1674
 6268W        W23792   5.827   1.656   4.288  0.0638  0.2585  0.1351
 6269W        W23793   7.669   3.320   5.715  0.0927  0.1830 -0.0484
 6270W        W23794  15.566  13.990   1.677 -0.1414  0.2635  0.1359
 6271W        W23795   7.635   6.619   5.139 -0.2123  0.2637  0.0829
 6272W        W23796   7.111   0.369  12.381  0.2649 -0.2743  0.1906
 6273W        W23797   4.785  11.758   4.212 -0.0198  0.0562 -0.0545
 6274W        W23798  12.464   4.442   5.703  0.3539 -0.2102  0.2897
 6275W        W23799  14.765  13.383   3.459  0.0398  0.1029  0.2962
 6276W        W23800  12.029   6.781   3.079  0.3658  0.0404  0.2818
 6277W        W23801   4.005   6.291  12.505 -0.0979 -0.1391  0.0827
 6278W        W23802   3.782   8.451   4.498 -0.2181  0.2046  0.0287
 6279W        W23803  10.453   5.548   1.443  0.0873  0.0655  0.1992
 6280W        W23804  10.953   3.945  16.331  0.2328  0.1066 -0.0463
 6281W        W23805  10.209  16.238  13.677  0.0934  0.1744 -0.1395
 6282W        W23806  11.930  14.852   2.617 -0.0509 -0.0416  0.1793
 6283W        W23807   7.775  11.355   4.568  0.1070  0.2659  0.0638
 6284W        W23808  12.167  11.185   0.336 -0.0686  0.0014  0.3234
 6285W        W23809   9.896  10.658   1.358 -0.2014  0.0228  0.1146
 6286W        W23810   6.273  11.619  16.661  0.0830  0.3098 -0.1265
 6287W        W23811   1.689   2.755   2.616  0.0051 -0.0685 -0.1885
 6288W        W23812   4.814  10.792   3.101 -0.0933  0.1692  0.0391
 6289W        W23813  11.138   8.210   2.108 -0.0185 -0.2008  0.1669
 6290W        W23814  14.786   7.122  17.247  0.3106 -0.0909 -0.2029
 6291W        W23815   2.009  14.896   2.239 -0.1483 -0.1461 -0.2894
 6292W        W23816  12.676   4.256  17.580 -0.0577  0.1133 -0.0621
 6293W        W23817  16.377   7.620  15.480  0.0186 -0.1095  0.0937
 6294W        W23818   1.819   2.110  13.128 -0.0701 -0.3405  0.0610
 6295W        W23819  11.421  15.501   1.018 -0.2219  0.3112  0.1217
 6296W        W23820   0.175   9.916   4.237 -0.0291 -0.0200 -0.1278
 6297W        W23821   4.467  11.810   1.783  0.1340 -0.0189 -0.2041
 6298W        W23822  14.542   6.822   1.169 -0.0295 -0.0354 -0.0355
 6299W        W23823   7.253   5.605  17.412  0.1143 -0.0898 -0.0924
 6300W        W23824  16.015   4.235   5.393 -0.1347  0.3871 -0.0722
 6301W        W23825  13.403   1.400  14.513  0.0202 -0.2025  0.0635
 6302W        W23826  14.387   5.664  13.574  0.0121 -0.3402 -0.1900
 6303W        W23827  10.566   4.563  16.482 -0.3707 -0.2238  0.2419
 6304W        W23828   2.398  14.049  15.052 -0.0727 -0.1174  0.3408
 6305W        W23829   7.744   5.580   0.939 -0.1385 -0.0740  0.0835
 6306W        W23830   0.414   7.803   0.320  0.2142 -0.0494 -0.2150
 6307W        W23831   0.270   8.494  15.580  0.0094  0.1394 -0.0522
 6308W        W23832  10.635  15.925   5.429 -0.0843 -0.1176  0.0262
 6309W        W23833   9.764  12.285  12.343 -0.2139  0.0121  0.3026
 6310W        W23834   2.239  10.967  13.934 -0.1935 -0.0522  0.1846
 6311W        W23835   2.285   9.837   1.657 -0.1371 -0.4137 -0.0271
 6312W        W23836  13.158  10.274   2.070 -0.2368  0.2643  0.3754
 6313W        W23837  13.534   8.585   1.774 -0.1128 -0.3205 -0.0278
 6314W        W23838  15.030   1.351   1.077 -0.2633 -0.0100 -0.2286
 6315W        W23839  14.855  12.071   1.467  0.0011 -0.0141 -0.1980
 6316W        W23840   8.150  13.991   5.341  0.0510 -0.0038  0.1323
 6317W        W23841   8.866   0.521  15.097 -0.1400 -0.2451 -0.2645
 6318W        W23842  12.667   3.837   2.466 -0.1621 -0.0962 -0.0171
 6319W        W23843  11.316  10.935   5.309  0.1350  0.1447  0.0726
 6320W        W23844  12.351   4.701   3.535  0.0693 -0.5959  0.0551
 6321W        W23845  10.611   9.455  16.918 -0.4068  0.0159 -0.2596
 6322W        W23846   3.015  13.011   0.553 -0.2270  0.3883 -0.1593
 6323W        W23847  10.777   9.086   5.311  0.0147  0.0642 -0.0488
 6324W        W23848  13.028  12.027  11.905  0.0630 -0.5684  0.1885
 6325W        W23849   5.140   5.872  16.529 -0.0688  0.0111  0.0973
 6326W        W23850   9.262   5.145  13.370  0.1397 -0.1178  0.1298
 6327W        W23851   2.245   0.336  16.629 -0.2448 -0.2003  0.1619
 6328W        W23852  10.810   1.829   2.585  0.1110  0.0614  0.1234
 6329W        W23853   7.085  14.033  15.503  0.2013 -0.1340 -0.0722
 6330W        W23854   3.132  15.698  15.673  0.3999 -0.0013 -0.0249
 6331W        W23855   3.535  15.542   3.151  0.1289 -0.0700 -0.1912
 6332W        W23856   2.928  11.518  16.271  0.3191 -0.0854 -0.1179
 6333W        W23857   0.135   7.839   4.109 -0.1632 -0.0163  0.0567
 6334W        W23858   6.556   8.555   5.975 -0.0743  0.0197  0.0929
 6335W        W23859   4.193   7.581   4.726 -0.0548 -0.3402 -0.0802
 6336W        W23860   6.972   6.030  15.041 -0.1694  0.4092  0.1140
 6337W        W23861   5.417   4.468  15.578 -0.2114 -0.1369  0.0474
 6338W        W23862  16.857   9.949   3.826 -0.1099 -0.2432  0.1382
 6339W        W23863   0.126   2.046  14.727 -0.2410  0.1555  0.1938
 6340W        W23864  10.601  13.380  16.395  0.0451  0.0278 -0.0624
 6341W        W23865   3.366  16.215   1.098  0.1016 -0.1719 -0.1196
 6342W        W23866  10.592  10.869  16.891 -0.1483 -0.2002 -0.2127
 6343W        W23867  16.883   1.607  13.645 -0.0472  0.0891  0.2010
 6344W        W23868   6.265   9.327   4.310 -0.1223 -0.4550 -0.1525
 6345W        W23869   6.972  14.602  14.334 -0.1830 -0.2574 -0.2042
 6346W        W23870  16.133   8.729   0.422 -0.0274 -0.2493 -0.0107
 6347W        W23871  14.419  16.842   5.350  0.0314  0.0849  0.0146
 6348W        W23872   4.348  16.620   3.334  0.2211  0.2550 -0.1154
 6349W        W23873   7.843  12.073   3.663  0.1708 -0.2746 -0.0485
 6350W        W23874  13.839  16.814   5.681  0.2096 -0.0311 -0.1808
 6351W        W23875   7.091   0.304  15.380 -0.0722  0.0226  0.2869
 6352W        W23876   6.451   5.163  13.006  0.0613 -0.1519 -0.0987
 6353W        W23877   0.252  10.461  17.544  0.2064  0.2760 -0.0777
 6354W        W23878  11.858   1.659   5.779  0.0880 -0.1944 -0.0901
 6355W        W23879   6.234   1.206   4.694  0.0605 -0.0672 -0.0470
 6356W        W23880  16.697  11.587   4.136 -0.0406  0.1728  0.1372
 6357W        W23881  13.390   4.646  13.213  0.1374 -0.2558 -0.0661
 6358W        W23882   8.717  10.734  14.202  0.1044 -0.1708  0.1475
 6359W        W23883  12.917  12.608   4.472  0.1934 -0.1322 -0.0800
 6360W        W23884   8.573   9.414  15.842 -0.1058 -0.2316 -0.2892
 6361W        W23885  13.623  16.844   2.578 -0.1244  0.1720 -0.0280
 6362W        W23886  13.976  15.860   0.219  0.1486 -0.0550  0.0618
 6363W        W23887   0.113   3.728  15.699 -0.2264  0.0899 -0.0451
 6364W        W23888  15.920  15.065  12.158 -0.3761 -0.2131  0.1047
 6365W        W23889   2.925   4.675   4.233  0.1551  0.1338  0.1380
 6366W        W23890   6.117   6.325   0.375  0.2333  0.5640 -0.0219
 6367W        W23891   2.848   9.038  12.238 -0.1527  0.2485  0.0892
 6368W        W23892  12.346   8.179  15.931 -0.0330 -0.0221  0.4800
 6369W        W23893  13.218   4.110  15.962 -0.0064 -0.1926 -0.0832
 6370W        W23894   4.463  15.703   4.120  0.0367  0.1578  0.0385
 6371W        W23895  12.973  11.641   2.706 -0.1865  0.1276 -0.1223
 6372W        W23896  15.401   5.575  13.330  0.2132 -0.2255  0.2043
 6373W        W23897  13.029   2.804   2.138 -0.0832  0.1303  0.0755
 6374W        W23898   5.569   1.394   5.566  0.4818  0.0431  0.0428
 6375W        W23899   2.834  14.002   2.769 -0.1727 -0.1389  0.1443
 6376W        W23900   0.334   3.365  14.596  0.1004  0.0243  0.0690
 6377W        W23901  16.932   2.096  13.414 -0.3076 -0.2197  0.1661
 6378W        W23902  11.285  10.703  12.203 -0.1154 -0.1767  0.0747
 6379W        W23903  13.961   4.250   0.170 -0.2098 -0.0851 -0.0950
 6380W        W23904  13.990  14.855   1.835 -0.1084  0.1496  0.0091
 6381W        W23905  16.666  13.942  14.446 -0.1210  0.0127  0.1052
 6382W        W23906   3.752   7.111  13.281  0.3302 -0.3047 -0.3400
 6383W        W23907  14.584   5.563  17.063  0.1934 -0.0952 -0.3783
 6384W        W23908   3.922  10.358  15.276  0.1409 -0.0667  0.0025
 6385W        W23909  16.609   0.047   2.785  0.1837  0.0237  0.0415
 6386W        W23910   7.710   3.992   4.807  0.2442 -0.1464 -0.1361
 6387W        W23911   6.705   7.556  13.846  0.0141  0.2283  0.1876
 6388W        W23912   2.177   3.385  13.588 -0.1731  0.4080 -0.1925
 6389W        W23913   1.660  12.201   4.524 -0.0618 -0.0037 -0.0693
 6390W        W23914  13.409   8.762   4.937 -0.2099 -0.0523 -0.1638
 6391W        W23915   4.102  11.665   3.416  0.0325  0.3452 -0.0655
 6392W        W23916   2.018  14.366   3.150 -0.0636 -0.0881 -0.1508
 6393W        W23917  14.208   7.477   0.554 -0.1364 -0.1652  0.2337
 6394W        W23918   1.151   5.324  13.328  0.0833  0.0451 -0.2088
 6395W        W23919   3.917   5.105  14.190 -0.0714 -0.0100 -0.2794
 6396W        W23920  13.487   7.069  12.279 -0.1502 -0.4674  0.3493
 6397W        W23921  14.327  16.383   5.155 -0.1293 -0.0311  0.0146
 6398W        W23922   5.128   9.098   0.241 -0.0334  0.2194  0.0719
 6399W        W23923   9.245   0.443   3.003 -0.1207 -0.1305  0.0518
 6400W        W23924  12.622   5.875   1.957  0.0177 -0.3344 -0.0334
 6401W        W23925   6.626  13.881   3.803  0.2057  0.3044  0.1449
 6402W        W23926   2.330   7.452   2.774  0.0168 -0.2889 -0.0351
 6403W        W23927   7.290  12.261   4.967  0.1923 -0.0859  0.5100
 6404W        W23928   8.159  16.045   3.549 -0.4323  0.1723 -0.5193
 6405W        W23929   0.289  11.506   4.549  0.0998 -0.0119 -0.2381
 6406W        W23930   2.772   3.946  16.209  0.2400 -0.1864  0.0965
 6407W        W23931   8.643   6.795   4.164  0.4020  0.1064  0.0591
 6408W        W23932  11.816   6.145  16.601 -0.1569  0.4883  0.0314
 6409W        W23933   4.571   3.728   2.249 -0.0780  0.0717  0.0362
 6410W        W23934  15.198  15.025   1.750 -0.1883 -0.2079 -0.0567
 6411W        W23935   3.731   4.044   3.252 -0.4362 -0.0780  0.2042
 6412W        W23936   8.489  11.767   2.428  0.2126  0.0415 -0.2370
 6413W        W23937  13.892  11.326   0.370  0.1789  0.1456  0.0031
 6414W        W23938  14.707  11.639   2.759  0.0240 -0.2599 -0.2799
 6415W        W23939  16.449   7.629   1.871 -0.1340 -0.0068 -0.0047
 6416W        W23940  13.721   9.490   1.321  0.0174 -0.0577 -0.0476
 6417W        W23941   1.904  10.810  14.420 -0.2527  0.1589  0.0452
 6418W        W23942   5.159   1.959   3.215  0.0837  0.1567  0.4602
 6419W        W23943   1.815   4.924  12.963 -0.3375  0.2467  0.0108
 6420W        W23944  13.117  14.324   5.669  0.1129 -0.0696  0.0485
 6421W        W23945   7.697   5.786   2.862 -0.2150  0.0354  0.0105
 6422W        W23946  11.317  10.112   3.375  0.3113 -0.0373  0.0621
 6423W        W23947   6.197   2.377  13.915  0.1711 -0.0907 -0.1481
 6424W        W23948   0.824  13.210   4.215  0.0320  0.0263 -0.2514
 6425W        W23949   4.873   8.959  16.498 -0.2770 -0.2454 -0.0119
 6426W        W23950  12.174   0.149   0.977  0.3214 -0.1293 -0.1480
 6427W        W23951   2.592   8.052  14.105 -0.1290 -0.1834  0.0296
 6428W        W23952   9.222  12.976   1.427 -0.1515 -0.1711 -0.1158
 6429W        W23953  12.742  11.994   3.759  0.2248  0.0995  0.1389
 6430W        W23954   3.590   5.323   0.766 -0.1403 -0.0075  0.2500
 6431W        W23955   8.306  10.255  15.318  0.0631  0.0512  0.1707
 6432W        W23956  14.052   0.219   2.136  0.2276  0.0990  0.2217
 6433W        W23957   2.133  16.462  16.001 -0.3103 -0.0976  0.4592
 6434W        W23958   9.376   6.041  12.174  0.5182 -0.1829  0.1255
 6435W        W23959  11.389  14.661  12.495  0.3462 -0.4473  0.1661
 6436W        W23960  13.800   5.149  16.917  0.0182 -0.2509 -0.1831
 6437W        W23961  12.795   0.903  15.132  0.2446  0.3401  0.1380
 6438W        W23962  16.832   6.297  16.909  0.2922 -0.3893  0.1430
 6439W        W23963  15.312  12.429   3.567  0.3434 -0.0937 -0.1179
 6440W        W23964   2.036   1.702   2.074 -0.0368 -0.0404  0.2488
 6441W        W23965   7.354  10.505   4.735  0.0260  0.1433  0.0552
 6442W        W23966   9.000  12.071   2.236 -0.2858  0.1800  0.1408
 6443W        W23967   0.057   0.359   4.541  0.1026 -0.1617 -0.0706
 6444W        W23968   7.593   0.870   3.847 -0.1573  0.0353 -0.0925
 6445W        W23969   5.995   1.659  12.609  0.2107 -0.2790 -0.2397
 6446W        W23970  16.780   1.997  14.667  0.0669 -0.0611 -0.0679
 6447W        W23971   5.357   6.787   1.450  0.0284 -0.2352 -0.3581
 6448W        W23972  12.398  11.978   0.073 -0.2989 -0.0216  0.2551
 6449W        W23973   3.048   7.401  14.564 -0.0675 -0.1744 -0.1730
 6450W        W23974   7.948   6.078  17.444 -0.0849  0.0443  0.1137
 6451W        W23975  14.419   2.201   5.871  0.1422 -0.3464 -0.0307
 6452W        W23976  12.181  11.355   5.149  0.2386 -0.1348 -0.1095
 6453W        W23977  13.527  13.747  14.609  0.0950  0.2198 -0.1265
 6454W        W23978   3.003   8.679   1.699  0.4246  0.0893  0.1716
 6455W        W23979  12.179  15.540   0.653  0.3526 -0.0263 -0.2084
 6456W        W23980  15.529   1.585  14.006 -0.1077  0.1844 -0.3026
 6457W        W23981   7.020  15.236  17.423 -0.0590 -0.0239  0.1954
 6458W        W23982  12.575   2.783  12.347 -0.0512  0.0621  0.3680
 6459W        W23983  14.651   8.491   2.350  0.0690  0.1053  0.1697
 6460W        W23984   1.686  11.982  13.882  0.1365 -0.0599 -0.2030
 6461W        W23985   4.042   6.419  15.673 -0.1314 -0.1287  0.1287
 6462W        W23986   1.948  10.162  17.238  0.0892 -0.3506 -0.2396
 6463W        W23987  12.501   1.397   1.909 -0.1807  0.2474  0.0694
 6464W        W23988  16.833   7.286   4.566  0.0404 -0.3392 -0.0581
 6465W        W23989   6.872  16.800  15.521 -0.0276  0.0315  0.0231
 6466W        W23990   3.631   1.930  15.696 -0.0263  0.0770 -0.1265
 6467W        W23991   4.704  11.688   4.981 -0.0027  0.0456 -0.1833
 6468W        W23992  16.556   4.764  16.137  0.2262 -0.1045  0.1290
 6469W        W23993  15.936  15.268   0.180  0.1688 -0.1721 -0.1922
 6470W        W23994   8.710  11.057  12.705  0.1017  0.0200 -0.1236
 6471W        W23995  15.013  13.295   0.761  0.0213  0.0926 -0.0725
 6472W        W23996   2.982  14.371   4.057 -0.1409 -0.0060  0.2598
 6473W        W23997  11.505   6.275   1.368  0.2310 -0.2066 -0.0687
 6474W        W23998  16.298   4.933  12.562  0.1020  0.1731 -0.0462
 6475W        W23999   4.765   7.417   0.875 -0.0247 -0.0674  0.1925
 6476W        W24000  14.423  16.062  14.173  0.0273 -0.1738 -0.0440
 6477W        W24001   6.709   6.326  17.546 -0.0966  0.0031 -0.2455
 6478W        W24002   8.505   6.535  15.560  0.0313 -0.2963  0.1961
 6479W        W24003   8.813   6.787   3.707 -0.0886 -0.0132 -0.0923
 6480W        W24004  16.324   0.744  16.088 -0.1258 -0.0250  0.1419
 6481W        W24005  13.700   6.284  13.427 -0.3952 -0.1217  0.3189
 6482W        W24006  13.857  15.100   3.823 -0.0875 -0.2172  0.1144
 6483W        W24007  13.528  11.961  16.167 -0.3508 -0.1341  0.0256
 6484W        W24008   5.635  11.307   0.836 -0.1743 -0.3801  0.2569
 6485W        W24009   7.314   1.940   4.571  0.0620 -0.3884 -0.4117
 6486W        W24010  10.545   9.557   3.573  0.2567 -0.0984 -0.0830
 6487W        W24011  12.891  15.960  13.893  0.0762  0.0809  0.0143
 6488W        W24012  12.236   4.598   4.459 -0.0601 -0.0487 -0.4119
 6489W        W24013   5.522  10.340   0.905  0.0484  0.1903 -0.0753
 6490W        W24014   5.474   4.898  15.809  0.1183 -0.0808  0.2240
 6491W        W24015  15.640  14.886  14.218 -0.0215  0.0136  0.0129
 6492W        W24016  11.442   5.063   0.794  0.0546 -0.1479  0.2468
 6493W        W24017   6.072   0.028  15.029  0.1653  0.1175 -0.0277
 6494W        W24018   9.908   1.177  12.497  0.2234 -0.0765  0.1018
 6495W        W24019   4.885   0.459   3.508 -0.2406 -0.2248  0.2532
 6496W        W24020  12.336   7.040   3.503  0.0344 -0.0823 -0.0281
 6497W        W24021   6.629  11.014   1.224 -0.1181  0.1096 -0.1617
 6498W        W24022   4.845   2.647  13.818  0.0508 -0.0581  0.3107
 6499W        W24023  13.851  16.955   1.165  0.0254  0.0245  0.3579
 6500W        W24024  15.259  10.771  13.208  0.2066 -0.0838 -0.2518
 6501W        W24025   2.626   5.966   3.619 -0.1146  0.2387  0.2841
 6502W        W24026   3.097   6.259  13.138 -0.1844 -0.2459  0.2241
 6503W        W24027  11.129   0.056  16.894  0.0332 -0.0729 -0.1730
 6504W        W24028  11.512   1.588  15.081 -0.2286  0.0256 -0.0720
 6505W        W24029   9.044  13.303  17.241  0.0949  0.2632  0.2954
 6506W        W24030   4.678   1.937   5.505 -0.1959  0.0154  0.1237
 6507W        W24031   0.471   5.646   2.784  0.2355  0.0786 -0.0260
 6508W        W24032   0.734  11.073  14.174  0.1936  0.0662 -0.1798
 6509W        W24033   8.899  15.999  12.669 -0.0977 -0.1225 -0.0246
 6510W        W24034   3.952   8.260   3.554 -0.1646  0.0600 -0.0374
 6511W        W24035   6.260  12.412  12.365  0.1114 -0.1890  0.0710
 6512W        W24036  15.978  13.360   1.064  0.2507  0.0251  0.0015
 6513W        W24037   8.550   0.431   2.279 -0.2700 -0.1744  0.3188
 6514W        W24038   7.252   3.478   2.695 -0.0694 -0.1275 -0.2202
 6515W        W24039   8.537   2.349  16.764 -0.2796  0.2072  0.0141
 6516W        W24040  15.724  15.568  12.412  0.1371  0.2096  0.2331
 6517W        W24041   8.172  15.966  17.723  0.2634 -0.0940 -0.0815
 6518W        W24042  13.185   3.060  17.123 -0.2281  0.0195  0.1753
 6519W        W24043   3.762   6.944   0.278 -0.2171 -0.0642 -0.3335
 6520W        W24044   5.115   6.193   0.960 -0.0786 -0.0050 -0.0307
 6521W        W24045   2.108  15.787   3.149  0.0817 -0.0329 -0.0651
 6522W        W24046   1.856   1.437  16.676 -0.0949  0.2478  0.0387
 6523W        W24047  16.876   5.591  16.175  0.1395 -0.0509  0.0755
 6524W        W24048   6.571   2.459   2.540 -0.2955 -0.0950 -0.1630
 6525W        W24049  16.822  10.664  13.086  0.1591 -0.1600  0.2451
 6526W        W24050   9.119   6.317   3.868  0.1790  0.0715  0.2288
 6527W        W24051   6.111  11.678   5.824  0.5231  0.0607 -0.0729
 6528W        W24052   9.164   8.526  17.670 -0.1194 -0.1687 -0.1356
 6529W        W24053  12.802  10.946  13.890 -0.0977 -0.0757  0.1654
 6530W        W24054  16.886  16.237   2.775 -0.0606 -0.1016  0.1661
 6531W        W24055  14.906   8.077   2.805  0.0514 -0.1519  0.0939
 6532W        W24056  15.052   6.090  12.073 -0.3460 -0.1055  0.0217
 6533W        W24057   8.114  15.537  16.854  0.3599 -0.1518 -0.0379
 6534W        W24058   1.392   1.041  15.769 -0.4989  0.1162 -0.0276
 6535W        W24059   2.286  11.762  14.537 -0.2995  0.1220  0.2320
 6536W        W24060   2.596   0.591  15.242 -0.0568 -0.0343 -0.1770
 6537W        W24061  12.005   2.022   0.083  0.1195  0.0085 -0.1277
 6538W        W24062   1.954  13.594   5.545  0.3287  0.0771 -0.0556
 6539W        W24063   1.120   6.278  15.022 -0.0173  0.2430  0.2305
 6540W        W24064  13.540  11.701  15.555 -0.0678  0.1727 -0.1696
 6541W        W24065  15.443   7.854  16.833  0.0241  0.1705 -0.2943
 6542W        W24066  10.272   1.494   4.601 -0.0921 -0.0562 -0.0960
 6543W        W24067   7.333   3.506   2.149  0.4118 -0.0527 -0.0010
 6544W        W24068  14.349   6.045  14.539  0.3127 -0.0007 -0.0114
 6545W        W24069  12.371  11.352   3.794 -0.0056  0.1044  0.1084
 6546W        W24070  16.215   8.570  16.042 -0.3354  0.2811 -0.1047
 6547W        W24071  10.320   5.078   3.794 -0.1217 -0.3187  0.4501
 6548W        W24072  16.203   4.269   4.517 -0.0358 -0.0372  0.0708
 6549W        W24073   2.116   7.750  13.879 -0.1615  0.0379 -0.2022
 6550W        W24074  10.870  15.555  13.182  0.0905  0.3110 -0.1463
 6551W        W24075   7.440   0.780  13.162  0.2958 -0.0671 -0.0453
 6552W        W24076   1.602   5.670   5.032 -0.0331 -0.4200 -0.0877
 6553W        W24077   0.796  13.876  14.404  0.2998 -0.2372  0.0135
 6554W        W24078  14.115  11.181  16.816  0.1124 -0.0847 -0.0181
 6555W        W24079   8.243  12.056  11.683 -0.0240 -0.0384 -0.0910
 6556W        W24080   8.348   5.113   2.287 -0.0211  0.2501  0.0987
 6557W        W24081   8.645  11.906   1.572  0.0275 -0.2353  0.0428
 6558W        W24082   2.230  12.024   3.691 -0.1246 -0.2548  0.2415
 6559W        W24083   6.021   4.908   0.883 -0.2849  0.1131 -0.0445
 6560W        W24084   7.013   8.505   6.689  0.4268 -0.3290 -0.1002
 6561W        W24085  13.156   6.415  14.052 -0.2706  0.0684  0.1099
 6562W        W24086   2.244  15.517   6.501  0.1378  0.0790 -0.0742
 6563W        W24087  14.216  13.275  16.256  0.3936  0.0811  0.0783
 6564W        W24088  10.791  10.645  12.410  0.2195  0.1320  0.1016
 6565W        W24089   0.936  15.888   4.413 -0.1283  0.1327 -0.0115
 6566W        W24090   2.406  15.970   2.736 -0.1780  0.3477  0.2215
 6567W        W24091   4.311   4.037  14.815  0.0327  0.2831  0.3197
 6568W        W24092   9.039  13.872  12.824 -0.0498 -0.0233  0.0523
 6569W        W24093   2.804   3.890   5.411  0.3909 -0.0120  0.0600
 6570W        W24094   0.399  12.001   3.269 -0.2661 -0.1193 -0.3366
 6571W        W24095   4.645  15.432   1.141  0.0656 -0.1895 -0.3864
 6572W        W24096   7.121  14.480  13.613  0.0501 -0.1874  0.0721
 6573W        W24097   8.570   3.777  13.975  0.0214  0.0388  0.0304
 6574W        W24098   8.481   5.431  13.866 -0.1847  0.1734  0.0258
 6575W        W24099   5.615   4.329   1.360 -0.0128  0.0735  0.2281
 6576W        W24100  11.460   1.389  15.559  0.0011  0.2405 -0.1937
 6577W        W24101   6.055  14.842   0.839  0.0582 -0.0507  0.4340
 6578W        W24102   7.009   1.340   3.143 -0.0083 -0.0090 -0.0385
 6579W        W24103  16.511   4.551   5.196  0.0664  0.1334  0.1975
 6580W        W24104  14.230   3.967   3.203  0.0554  0.2223 -0.0199
 6581W        W24105  16.674  14.977  17.261  0.0077 -0.0107 -0.0273
 6582W        W24106   1.349  14.529   4.717 -0.0172  0.1287 -0.2974
 6583W        W24107   0.102   0.407   1.033  0.1347  0.1034  0.3919
 6584W        W24108   5.302   5.657   4.441 -0.0151  0.1644  0.0143
 6585W        W24109   8.895   3.224  12.212  0.0735 -0.1082  0.3276
 6586W        W24110  13.017  10.840   3.835  0.1649  0.0806  0.0464
 6587W        W24111  16.177   2.862  12.973 -0.1960  0.0127  0.0372
 6588W        W24112   5.716   9.764  15.318  0.0149  0.1343  0.1239
 6589W        W24113  14.780   2.844   6.403  0.1122  0.1713 -0.0720
 6590W        W24114  15.958   4.618  13.525  0.4669  0.1772 -0.0159
 6591W        W24115   1.656  11.743   3.210 -0.2497 -0.0241 -0.1287
 6592W        W24116   0.040   7.296  14.883  0.1130  0.2884  0.1379
 6593W        W24117  14.897   4.027  15.092 -0.1798  0.1051 -0.2100
 6594W        W24118  12.912  14.456  15.616  0.1132  0.1945  0.0120
 6595W        W24119  16.986   0.243   5.579 -0.0865 -0.0162 -0.1207
 6596W        W24120   7.810   3.411   5.282  0.0571 -0.1667 -0.0969
 6597W        W24121  14.587   1.907   4.867 -0.0304  0.2803  0.1910
 6598W        W24122  10.641  11.660  14.481 -0.2273 -0.0656  0.0255
 6599W        W24123   9.402   8.294   1.984  0.0874  0.1465 -0.0154
 6600W        W24124  10.943   9.218  13.394  0.1034  0.1164 -0.1902
 6601W        W24125   7.715   1.402  16.097  0.0863  0.0366  0.0932
 6602W        W24126   2.149   0.161   1.807 -0.0809  0.0024  0.2280
 6603W        W24127  11.189   7.163   4.401  0.0965  0.3870  0.1048
 6604W        W24128  10.384   2.792   1.772  0.2894 -0.0984 -0.1261
 6605W        W24129  10.266   8.239  15.488  0.0128  0.0522  0.1680
 6606W        W24130  16.878  16.730  15.202  0.0986  0.0244 -0.2311
 6607W        W24131   3.164  11.109  15.046 -0.0158 -0.0254 -0.0768
 6608W        W24132  12.538   7.397   4.177  0.1587 -0.3774  0.0633
 6609W        W24133  15.932  17.129  17.029  0.0960  0.0258 -0.0501
 6610W        W24134   8.624  11.685  15.680  0.1852 -0.1907 -0.2753
 6611W        W24135   4.659   4.301   3.502 -0.3257  0.1530 -0.0470
 6612W        W24136   4.405  10.258  15.530  0.1579  0.0932 -0.1355
 6613W        W24137   6.562   9.185  15.710  0.3330 -0.2042 -0.1186
 6614W        W24138   3.208  11.058  17.490  0.0886  0.2075 -0.0374
 6615W        W24139   6.997   2.730  16.241 -0.3180  0.0690 -0.2166
 6616W        W24140   0.505  15.682  16.658  0.0512 -0.2184 -0.2442
 6617W        W24141  11.391   5.474   0.374 -0.1007 -0.1113 -0.0528
 6618W        W24142   7.082  12.238  13.635 -0.1509  0.1494 -0.0641
 6619W        W24143   5.094  14.580  17.378 -0.1662 -0.0991  0.1766
 6620W        W24144  13.145  12.513   2.942 -0.3378  0.1824 -0.0118
 6621W        W24145  15.394   4.617  14.621  0.2438  0.0092 -0.0411
 6622W        W24146  16.010   2.222  11.774 -0.1333 -0.0501 -0.1238
 6623W        W24147  14.495   3.570  15.154  0.0631 -0.0266  0.0111
 6624W        W24148  12.372  15.082   1.031 -0.1940 -0.0718 -0.1889
 6625W        W24149   1.201   9.329  14.086  0.2623  0.0748 -0.0643
 6626W        W24150   9.423   8.936  17.163 -0.0471 -0.0609  0.2013
 6627W        W24151   9.804  13.152   5.016 -0.0627  0.1657  0.0281
 6628W        W24152  16.778   9.227   1.141 -0.0783 -0.0710  0.2285
 6629W        W24153   9.905   8.643   1.247  0.0797 -0.0704  0.0517
 6630W        W24154   8.595  12.049   1.075 -0.0049 -0.3195  0.1090
 6631W        W24155   8.533   4.204   4.274  0.2073 -0.0839 -0.2571
 6632W        W24156   6.491   2.762  17.685  0.4499 -0.1298 -0.3005
 6633W        W24157  13.285  12.108   1.541 -0.1911 -0.0968  0.0139
 6634W        W24158  15.389  16.547   2.832  0.2743 -0.2805  0.0247
 6635W        W24159  13.921  12.829  12.720 -0.0624  0.0243  0.0987
 6636W        W24160   3.528   7.522   2.435  0.0108  0.0476 -0.0935
 6637W        W24161  14.820   4.473   5.144  0.1788  0.0700  0.1264
 6638W        W24162   9.500   7.212  11.190 -0.1690  0.1563  0.0617
 6639W        W24163  14.004   2.818   3.188  0.0500  0.1629 -0.0520
 6640W        W24164   1.331   5.940   5.889  0.1659 -0.1857  0.0020
 6641W        W24165  14.912   7.792  16.410  0.1884 -0.2425 -0.0755
 6642W        W24166   8.145  14.397   3.053 -0.1478  0.0040 -0.0817
 6643W        W24167  13.994  13.600   4.671  0.2292 -0.2420 -0.2057
 6644W        W24168   0.863   8.946   2.403 -0.1231  0.0674 -0.0573
 6645W        W24169  10.309   8.097  16.631 -0.2083  0.2741  0.2172
 6646W        W24170   4.507   4.010  16.924 -0.2866 -0.1832 -0.0948
 6647W        W24171   8.574   5.436  12.711 -0.1669  0.1998  0.1870
 6648W        W24172  16.546   6.295  15.394 -0.2812 -0.2993 -0.2895
 6649W        W24173   7.902   4.384   3.767  0.1090  0.4259 -0.0475
 6650W        W24174   6.581   8.638   1.986 -0.0526  0.0141 -0.0153
 6651W        W24175   9.248   4.560  16.652  0.0484  0.1218 -0.1885
 6652W        W24176  10.461   5.187  14.033 -0.1980 -0.3389 -0.2814
 6653W        W24177  11.568   9.323   2.637  0.0597 -0.1908  0.1953
 6654W        W24178   5.821   7.834   2.845  0.0630 -0.1846  0.0752
 6655W        W24179   2.157  10.761   2.163 -0.1504  0.0792  0.1213
 6656W        W24180   3.825  12.514   0.238 -0.1776 -0.1384 -0.2523
 6657W        W24181   3.072   8.804  13.577  0.2277 -0.0056 -0.1525
 6658W        W24182   7.284  15.337   0.096 -0.1772 -0.0576 -0.0846
 6659W        W24183   3.875   6.799  12.343  0.0305 -0.1580 -0.2487
 6660W        W24184  14.717  16.346  16.787 -0.1802  0.1215  0.0107
 6661W        W24185   3.467   5.601   4.031  0.0753 -0.1555 -0.0146
 6662W        W24186   3.749  11.454   4.769  0.0263  0.1323 -0.0540
 6663W        W24187  11.453   8.504  13.286  0.0616  0.0015  0.1513
 6664W        W24188   5.447   9.172  17.617  0.3681  0.0393  0.0167
 6665W        W24189  12.034   8.985  12.215 -0.0158  0.3028 -0.2171
 6666W        W24190  17.130   2.037  12.413 -0.0990 -0.0925 -0.0156
 6667W        W24191  13.832  11.145  12.064  0.1875 -0.0856  0.0189
 6668W        W24192   3.061   6.519   0.921  0.2001 -0.1600  0.0072
 6669W        W24193   5.939   5.200   4.984 -0.0574 -0.0478  0.4204
 6670W        W24194  11.777  14.387  17.231 -0.5225 -0.0984  0.0113
 6671W        W24195   2.858   1.874   3.507 -0.1553 -0.0627 -0.0859
 6672W        W24196   6.361   1.532   5.273  0.0236  0.1652 -0.1896
 6673W        W24197  11.953   5.534  14.990 -0.1043 -0.2202  0.2776
 6674W        W24198   5.337   5.096  17.001 -0.1137  0.0791 -0.1747
 6675W        W24199   8.531   3.074  16.143 -0.0438  0.0780 -0.0932
 6676W        W24200   3.141   0.054   0.943 -0.1717  0.0124  0.0082
 6677W        W24201  15.790   5.645  17.248 -0.2030  0.0802 -0.1047
 6678W        W24202  13.034   8.120   0.880 -0.3071  0.0031  0.2838
 6679W        W24203   8.262  14.560  13.420 -0.0237  0.0184 -0.0468
 6680W        W24204  10.952   6.537   1.459 -0.1205  0.3549 -0.1163
 6681W        W24205   3.645   1.205   5.043  0.2422 -0.1499 -0.0824
 6682W        W24206  16.130   5.975   4.760  0.2139  0.1143 -0.4508
 6683W        W24207   4.798   1.988   2.759  0.0679  0.0798  0.1444
 6684W        W24208   4.054   0.616  16.801  0.1271  0.0035  0.0518
 6685W        W24209   6.039   4.749  13.824  0.2600  0.4354  0.3550
 6686W        W24210   3.517   8.046   4.371 -0.0219  0.1826  0.0613
 6687W        W24211  11.602  13.307   2.595 -0.2218 -0.1865 -0.0547
 6688W        W24212   3.190  10.078   0.455 -0.2917  0.0228 -0.2558
 6689W        W24213   5.496  14.663  16.457 -0.1171 -0.1747  0.1567
 6690W        W24214   8.071  14.154  14.322 -0.1602 -0.0579  0.0287
 6691W        W24215  15.717   6.202  17.560  0.0904 -0.0881  0.1359
 6692W        W24216  13.287   9.063  12.878  0.1452  0.0312  0.0736
 6693W        W24217   2.556   8.865  13.216  0.3637 -0.2941  0.0516
 6694W        W24218   4.420   6.152   2.962 -0.1453  0.0615  0.1773
 6695W        W24219  17.058  16.775   3.243  0.0795  0.3097  0.2547
 6696W        W24220   2.925  11.808   5.022  0.1779  0.1684 -0.1041
 6697W        W24221  16.423   9.350  15.947  0.2664 -0.0639 -0.2947
 6698W        W24222   0.800   5.605   2.030 -0.1178 -0.0100 -0.0708
 6699W        W24223  12.202   0.201  15.002  0.4483  0.1149  0.1810
 6700W        W24224  12.267  14.705   1.824  0.1936  0.0264  0.2769
 6701W        W24225   6.898  16.213   3.588  0.0209  0.2785  0.0553
 6702W        W24226   0.201   5.261  17.336 -0.2332 -0.0933  0.0555
 6703W        W24227  11.408  14.118   0.729  0.1004 -0.1268 -0.1847
 6704W        W24228  12.744   5.143  13.816  0.0770  0.0750  0.0494
 6705W        W24229   4.960  14.985   0.305  0.2251  0.0768 -0.3203
 6706W        W24230  16.129   0.984   0.642  0.0862 -0.3261  0.2838
 6707W        W24231  15.201   4.184   5.053  0.0700  0.0241  0.0152
 6708W        W24232  12.636   8.612  14.677  0.0558  0.1300 -0.1912
 6709W        W24233  12.008  16.770   1.225  0.1592  0.2649 -0.0461
 6710W        W24234   2.114  16.807   5.163 -0.2680  0.0981 -0.2464
 6711W        W24235  15.238   2.267  16.813 -0.1265  0.2361 -0.1957
 6712W        W24236  12.343   7.990   2.605 -0.0128 -0.1530 -0.2557
 6713W        W24237   4.183   0.575   4.033 -0.1451  0.1975 -0.1437
 6714W        W24238   3.063  16.297   1.980  0.0821 -0.3198 -0.2375
 6715W        W24239   6.279   1.250  14.234 -0.3661  0.2618 -0.2781
 6716W        W24240   9.847  16.623  13.643  0.2251 -0.0572 -0.3472
 6717W        W24241   7.060  14.828   3.068  0.1206  0.0631 -0.0412
 6718W        W24242   4.080  13.858  14.617  0.0157 -0.0098  0.1808
 6719W        W24243   5.383   5.836   3.444 -0.1353  0.3315  0.1241
 6720W        W24244  16.401  15.762  15.802  0.3090 -0.0279 -0.0735
 6721W        W24245  10.592   5.179   1.971  0.1588  0.0688  0.1767
 6722W        W24246   6.228   0.897  15.235 -0.2308 -0.1862 -0.1662
 6723W        W24247   1.125   5.679   5.135 -0.2140  0.0122  0.0163
 6724W        W24248  15.385   5.411   2.928  0.0654 -0.2552 -0.0813
 6725W        W24249   9.773  13.935   4.576  0.0515 -0.1662  0.0670
 6726W        W24250  12.333  16.000   0.856  0.0528 -0.2960  0.3104
 6727W        W24251  16.431   7.630   4.826  0.2181  0.1400 -0.0856
 6728W        W24252   3.693  13.742   4.581  0.1113 -0.2559 -0.2676
 6729W        W24253   9.600   0.126   0.964 -0.3003  0.0275 -0.1176
 6730W        W24254   1.576   6.476   4.728 -0.1822 -0.3168 -0.0183
 6731W        W24255  11.909   9.271  15.891 -0.1275  0.0856 -0.1433
 6732W        W24256   7.589   6.040  17.139 -0.1868 -0.2550  0.0899
 6733W        W24257   7.909   2.224  15.791 -0.2854  0.0048 -0.2080
 6734W        W24258   9.133   4.426  12.149  0.3278 -0.1446 -0.3342
 6735W        W24259  15.333   6.020   0.179 -0.3675  0.0098  0.1821
 6736W        W24260   8.998   8.415   1.612 -0.1595 -0.4040  0.1117
 6737W        W24261   9.662   1.936   5.309  0.0566 -0.0812  0.0892
 6738W        W24262  11.910   1.308   1.216 -0.1213  0.0523 -0.0151
 6739W        W24263  12.842   2.318   5.341 -0.0393 -0.2954  0.1170
 6740W        W24264   0.702  10.060  12.987  0.0891 -0.2863  0.0723
 6741W        W24265   0.943   8.725  12.716 -0.0227  0.0850  0.0231
 6742W        W24266   5.715  12.020   1.343 -0.0094 -0.0876  0.0046
 6743W        W24267  12.406   8.331   3.009  0.0641 -0.2728 -0.0538
 6744W        W24268   1.087  13.134  15.338 -0.2080 -0.2472  0.2899
 6745W        W24269  11.955  15.936   2.828  0.0665 -0.2469  0.3114
 6746W        W24270  14.847  11.813   4.096 -0.1551  0.0393  0.2051
 6747W        W24271  15.700   2.317   3.314  0.3305  0.0123  0.0272
 6748W        W24272   8.092  13.542  14.159 -0.2099  0.2490  0.2354
 6749W        W24273  14.668   0.884   0.357  0.1602  0.1845  0.0910
 6750W        W24274  14.360   3.178   2.815 -0.1171  0.0950  0.1090
 6751W        W24275   5.927  10.220   2.233  0.1939  0.0271  0.1192
 6752W        W24276   0.633  15.411   0.782  0.2333  0.3107 -0.0199
 6753W        W24277   0.784  11.189   5.589 -0.0289  0.0248  0.3929
 6754W        W24278   1.442  14.666  12.965  0.2243 -0.1162 -0.0180
 6755W        W24279   8.929  15.634  17.117  0.1322  0.2250  0.1283
 6756W        W24280  14.486  13.615  14.997  0.2440 -0.2504 -0.1185
 6757W        W24281  10.762  14.139   3.295 -0.1108  0.1638 -0.2363
 6758W        W24282  13.183   6.770   5.288 -0.0192 -0.1037 -0.2032
 6759W        W24283   9.780   0.989   3.193 -0.2697  0.1602 -0.2216
 6760W        W24284   6.561   6.685   3.203 -0.0606 -0.1835 -0.3810
 6761W        W24285  12.516   7.413  16.927  0.1070 -0.1409 -0.2528
 6762W        W24286   5.320  10.825   3.082 -0.1696 -0.0371  0.0058
 6763W        W24287  13.399  15.960  17.411 -0.1918  0.5034  0.0980
 6764W        W24288   4.213   8.155  15.491  0.0658  0.1014  0.0817
 6765W        W24289   1.645   7.921  17.711  0.1275 -0.0927 -0.1641
 6766W        W24290   6.352   7.461   1.552  0.0880 -0.1664  0.5077
 6767W        W24291   3.290  10.291  16.915  0.3289  0.3927 -0.0382
 6768W        W24292   5.465   3.989   4.438 -0.1926  0.1370  0.3311
 6769W        W24293  12.028  16.889   0.174 -0.0721  0.0092 -0.1065
 6770W        W24294   4.217  15.015  13.011 -0.0621 -0.2742 -0.1813
 6771W        W24295  15.751   5.951  12.485 -0.0381 -0.1160 -0.0797
 6772W        W24296   7.560  10.844  16.230  0.0313 -0.1805 -0.1223
 6773W        W24297  16.618   0.589   1.979 -0.0593  0.4023  0.0531
 6774W        W24298  10.649   5.077   1.407 -0.0134  0.1712 -0.2425
 6775W        W24299   4.942   0.966   3.178 -0.1089 -0.0684 -0.1791
 6776W        W24300   9.190  16.620   4.135 -0.3867  0.2662 -0.0434
 6777W        W24301  17.056  16.716  16.759  0.2271  0.0721  0.1654
 6778W        W24302   2.160   3.367   6.696  0.0657  0.1369  0.0004
 6779W        W24303   0.366  14.404   3.715 -0.3075 -0.1688  0.0371
 6780W        W24304  15.751  16.992   5.468 -0.1287  0.1178  0.3252
 6781W        W24305  12.369   7.170   5.093 -0.1011  0.1632  0.0232
 6782W        W24306  15.988   7.588  17.728  0.1127 -0.3559 -0.3379
 6783W        W24307  16.389   3.077  17.243  0.0343  0.1437 -0.2236
 6784W        W24308   2.047   6.387   1.629 -0.1136  0.5344 -0.1554
 6785W        W24309   3.191  14.979  15.026  0.0263  0.1651  0.1016
 6786W        W24310  10.623  14.842  15.754 -0.1770  0.0443 -0.0066
 6787W        W24311  11.467   6.419  14.832  0.0611  0.0843 -0.0140
 6788W        W24312   0.349  10.416  14.898  0.0575 -0.3214  0.0073
 6789W        W24313  13.735  12.665   2.298 -0.2651  0.0164 -0.0039
 6790W        W24314  11.449   4.585   1.070  0.1093 -0.1281  0.2032
 6791W        W24315   7.860   9.519  15.254  0.0816  0.0945 -0.1742
 6792W        W24316   5.268   5.649  12.475 -0.3211  0.2739  0.1177
 6793W        W24317  13.530  16.250  12.200  0.1006 -0.0009  0.1241
 6794W        W24318   2.685  12.862  16.540 -0.2162  0.4850  0.0301
 6795W        W24319  14.771  15.004  15.643  0.1944 -0.2037 -0.2943
 6796W        W24320   5.707  13.550   4.801 -0.0715  0.0277 -0.1228
 6797W        W24321   1.408   6.358  15.441  0.1074 -0.0364  0.1929
 6798W        W24322   5.835   4.079   0.615  0.1053 -0.0187  0.1091
 6799W        W24323  16.722   2.633   4.642 -0.0975 -0.0759 -0.3378
 6800W        W24324  15.657   4.640   1.585  0.1865  0.2223 -0.0812
 6801W        W24325   0.156   6.415  14.658  0.0930  0.2974  0.4754
 6802W        W24326  10.130  13.570   3.257  0.0285  0.1889  0.1716
 6803W        W24327  12.967   2.411  12.512 -0.4265  0.2209 -0.2286
 6804W        W24328   6.567  12.577   5.327  0.0892 -0.1428  0.1190
 6805W        W24329   0.437  10.968  16.762 -0.0063  0.1443 -0.3127
 6806W        W24330   7.629   7.404  12.226  0.0305 -0.0741 -0.2725
 6807W        W24331  15.273  15.186  16.237  0.1567 -0.0310 -0.3923
 6808W        W24332   0.242  13.277   5.519 -0.0883 -0.3328  0.2464
 6809W        W24333  11.159  14.036  14.843 -0.0562  0.0568  0.0313
 6810W        W24334  14.484   0.819  13.201  0.0680 -0.0658  0.3399
 6811W        W24335  15.159  15.956  17.401  0.5245 -0.0084  0.0547
 6812W        W24336   8.056  13.186   1.645  0.0018  0.0958  0.0947
 6813W        W24337   9.969   2.657  15.157  0.1432 -0.1779 -0.1229
 6814W        W24338   6.074  16.267  16.401 -0.0295 -0.2994 -0.4298
 6815W        W24339   4.916   4.155   2.978  0.2860 -0.1310  0.0956
 6816W        W24340  10.885   3.794  14.959  0.1582  0.2792 -0.1432
 6817W        W24341   4.568   1.819  13.373  0.2262  0.2703 -0.0734
 6818W        W24342   4.092   2.563   0.631  0.0329 -0.0998  0.0658
 6819W        W24343  10.420   9.880   0.014  0.0051  0.1274  0.1691
 6820W        W24344   3.995  15.915  13.398 -0.0639 -0.4171 -0.0284
 6821W        W24345   9.187   4.660   2.580  0.0506 -0.2260 -0.0924
 6822W        W24346   6.228   0.481  14.888  0.2423  0.1943  0.0457
 6823W        W24347   1.033   4.199   6.005  0.1635  0.0688  0.0457
 6824W        W24348  16.300  14.621   3.088 -0.2053  0.0486 -0.0273
 6825W        W24349  16.488   3.630   4.636 -0.1234  0.0890  0.0204
 6826W        W24350   6.937   1.245  15.535 -0.1771 -0.0395  0.2145
 6827W        W24351   7.223  15.466   4.557 -0.3232  0.2195 -0.0992
 6828W        W24352  16.498  13.455   5.443 -0.2127  0.0814  0.3178
 6829W        W24353  15.503  11.433  13.890 -0.3425 -0.0771  0.0863
 6830W        W24354   0.625  10.917  14.681 -0.0120 -0.1394  0.1082
 6831W        W24355   2.116  10.403  13.546  0.1325  0.2694 -0.0485
 6832W        W24356   3.755   0.021  15.576  0.0360  0.2481  0.0144
 6833W        W24357  13.154   9.350  13.284 -0.1005 -0.0223 -0.1485
 6834W        W24358  16.744   3.958   6.423  0.4120 -0.2107  0.2562
 6835W        W24359  16.417   3.269   5.730 -0.4267 -0.0343 -0.0659
 6836W        W24360  12.905   7.486  17.197  0.0126  0.1319  0.3766
 6837W        W24361   9.251   7.929   2.867 -0.1616 -0.0985  0.1347
 6838W        W24362  16.861   7.349   2.605 -0.1835 -0.0232  0.2265
 6839W        W24363   0.998  10.524  15.685 -0.2118 -0.1062  0.2882
 6840W        W24364   4.704  15.960   3.116  0.2283  0.1717 -0.1599
 6841W        W24365  16.133   4.849   3.732 -0.2025 -0.1677  0.3541
 6842W        W24366   6.211  13.306  16.635  0.0977 -0.2879  0.1351
 6843W        W24367   0.783   1.223   3.574 -0.1911 -0.2036  0.0076
 6844W        W24368   2.943  14.336  12.604  0.2069 -0.2326  0.1263
 6845W        W24369  12.181   6.241  15.634  0.0716 -0.2603 -0.2083
 6846W        W24370   3.011   3.713  13.634  0.0916 -0.0219 -0.0164
 6847W        W24371   5.776   4.542   0.328  0.2540  0.3256 -0.0191
 6848W        W24372   0.433   5.333  15.875 -0.2059 -0.2374 -0.3420
 6849W        W24373   5.500   4.464   5.400 -0.2021  0.0333  0.2052
 6850W        W24374   8.961   0.155   0.373 -0.1087 -0.1630 -0.3241
 6851W        W24375   8.239  10.813  15.146  0.0790  0.1868  0.3847
 6852W        W24376  16.734   6.595   0.723  0.2902  0.1631 -0.0304
 6853W        W24377  15.777   1.643   4.665 -0.1160 -0.0528 -0.0268
 6854W        W24378  16.220  12.777  17.021  0.3078 -0.6302  0.0756
 6855W        W24379  13.716   8.822   3.410 -0.1192  0.1977  0.0672
 6856W        W24380   8.596   5.405  12.085 -0.1310 -0.2480  0.0150
 6857W        W24381  13.923  12.954   1.407  0.1225 -0.0821  0.2745
 6858W        W24382   9.703  13.038  15.342  0.1683 -0.0366  0.2472
 6859W        W24383  14.654  12.530   4.795  0.1468  0.1561 -0.0117
 6860W        W24384  10.876   3.727  11.950 -0.0493  0.1658 -0.0459
 6861W        W24385   6.639   0.173  12.770 -0.1128 -0.1271 -0.0506
 6862W        W24386  14.846   6.265  15.923 -0.2553 -0.0187  0.2180
 6863W        W24387   7.948   3.224  12.041  0.2416 -0.1509 -0.1223
 6864W        W24388   0.510  13.125   2.704 -0.0211  0.0491 -0.1607
 6865W        W24389   9.482  12.807  12.161 -0.0998  0.2826 -0.3640
 6866W        W24390  12.903   5.988  12.242  0.0093 -0.1134  0.1654
 6867W        W24391   8.392  14.654   3.378 -0.1489  0.0537  0.1653
 6868W        W24392   6.418  16.555  15.677  0.0341 -0.0251  0.4686
 6869W        W24393   5.347  13.238  15.246 -0.1013 -0.3281  0.2768
 6870W        W24394  12.567  14.585  17.409 -0.1863  0.0018  0.0060
 6871W        W24395  12.979   5.703   2.241  0.0243 -0.1848 -0.1200
 6872W        W24396  10.827  10.281   1.757  0.0863  0.0913  0.2531
 6873W        W24397   9.100   0.606   4.591  0.0492 -0.2281 -0.3195
 6874W        W24398   4.270   4.070   5.131  0.0107  0.1304  0.1377
 6875W        W24399  15.456  13.656  12.474  0.0793  0.0475  0.0406
 6876W        W24400   5.407  15.717   1.868  0.1726  0.1594 -0.0411
 6877W        W24401   4.449  10.036  12.996  0.1798  0.0599 -0.1603
 6878W        W24402  13.617   9.335  13.133  0.2397  0.0950  0.0639
 6879W        W24403   8.275  10.466   6.039  0.0484 -0.2783  0.1311
 6880W        W24404   1.046   2.190  15.156  0.2152 -0.2208  0.0598
 6881W        W24405   7.848   7.192   4.518 -0.3251  0.2548 -0.0277
 6882W        W24406  14.311  15.191  16.313 -0.2050  0.2410 -0.3796
 6883W        W24407  16.274  10.351   5.766 -0.0504  0.1420  0.1902
 6884W        W24408   1.818   1.394  17.581  0.2839 -0.1380 -0.0351
 6885W        W24409   6.979   1.466  15.048 -0.2388  0.0240  0.1093
 6886W        W24410  11.870  15.606   1.961 -0.0869  0.1432  0.0266
 6887W        W24411  11.617   4.135  13.271  0.0115  0.0655  0.1062
 6888W        W24412   7.125   1.018  13.836  0.0801 -0.1141  0.0170
 6889W        W24413  16.522   6.199   3.744 -0.1633  0.0203 -0.1872
 6890W        W24414   5.971   6.728   3.924 -0.0693 -0.0312  0.1369
 6891W        W24415   8.492   8.164  13.835  0.1161 -0.0745 -0.2323
 6892W        W24416  10.708   7.298   3.592  0.2783 -0.0163  0.2044
 6893W        W24417   1.701  13.020  12.446  0.2699  0.1812  0.1692
 6894W        W24418   3.700   0.118  13.285  0.0886 -0.0390 -0.1235
 6895W        W24419  11.001  12.150   1.643  0.0857 -0.1863  0.1259
 6896W        W24420   7.660   2.843   0.631 -0.0594  0.3848 -0.1360
 6897W        W24421  14.308  14.812  13.753 -0.1204 -0.1481  0.0197
 6898W        W24422  10.305   9.424   2.272 -0.1168 -0.2742  0.2598
 6899W        W24423  11.530  15.407  16.009 -0.1396  0.2970  0.1780
 6900W        W24424   4.848   1.726   4.563  0.3283 -0.1230  0.1959
 6901W        W24425  14.598   6.698  13.667 -0.1822  0.1627  0.0019
 6902W        W24426   5.557   3.479  13.898 -0.0006 -0.2036 -0.1609
 6903W        W24427  16.428   5.671   3.223  0.2005 -0.2486 -0.1828
 6904W        W24428  15.475   3.230   1.243  0.0761  0.0343  0.1410
 6905W        W24429   0.607   6.688   1.911 -0.0962 -0.0853  0.2160
 6906W        W24430   6.510   6.098   1.771 -0.1774  0.1202  0.0082
 6907W        W24431  12.662   8.420   1.717 -0.0239  0.1192  0.1083
 6908W        W24432  12.505   3.219  15.747 -0.0699  0.3096 -0.3042
 6909W        W24433   5.569  16.740  13.626 -0.0888 -0.3382 -0.0641
 6910W        W24434   2.424   0.687  13.776 -0.1398  0.1802 -0.3423
 6911W        W24435   8.948   6.935  13.159 -0.1566  0.1036  0.0939
 6912W        W24436   2.774  13.389   4.907 -0.0001 -0.2472 -0.3335
 6913W        W24437  12.916  11.020   3.286 -0.0839  0.0119 -0.2114
 6914W        W24438  16.060  12.977   0.092  0.0848  0.0863  0.2816
 6915W        W24439   4.073  16.189   2.135  0.0897  0.4532 -0.2030
 6916W        W24440   2.546   4.419   1.154 -0.0020  0.0332  0.2418
 6917W        W24441  10.362  13.290   0.112  0.3919 -0.2166 -0.0548
 6918W        W24442  13.749  15.831   2.108 -0.0815 -0.2206 -0.1659
 6919W        W24443   4.900  12.497  14.422 -0.1577  0.0151  0.1692
 6920W        W24444   1.258  13.586   0.578  0.0584  0.1897 -0.1222
 6921W        W24445   2.811  10.142  14.020  0.1749  0.3079  0.3078
 6922W        W24446  12.447   3.577   1.152 -0.0402  0.2087 -0.1282
 6923W        W24447   0.741   7.038   1.066 -0.0261 -0.4204 -0.0028
 6924W        W24448  10.270   0.900   4.415 -0.0525  0.0114  0.1939
 6925W        W24449  11.809   0.265  15.911 -0.2443  0.1848 -0.1804
 6926W        W24450   4.276  11.941  17.544  0.1120 -0.0770 -0.2430
 6927W        W24451  16.873  15.117   4.906 -0.2643 -0.1169  0.2636
 6928W        W24452   6.829   0.730   0.156 -0.1330 -0.0314  0.1363
 6929W        W24453  16.291   1.868   1.215 -0.1325 -0.0341  0.1128
 6930W        W24454  17.139  15.446   4.677 -0.0957 -0.0984  0.0302
 6931W        W24455   1.351   6.982  13.106 -0.0378 -0.0792 -0.0325
 6932W        W24456  16.359   4.281  16.888 -0.0725 -0.1726  0.0450
 6933W        W24457   2.906   1.276  13.194  0.0956 -0.0222  0.1002
 6934W        W24458  16.765  12.866   1.506 -0.0814 -0.0336 -0.1771
 6935W        W24459  10.651  11.940  13.946 -0.0714  0.1021 -0.2921
 6936W        W24460   8.301  10.435  16.646  0.0561 -0.2666  0.3037
 6937W        W24461  13.577   6.019   5.001  0.3839 -0.1416 -0.0248
 6938W        W24462   5.076  12.915   3.328  0.0745  0.1776  0.0664
 6939W        W24463   3.606   2.963  16.775  0.3204  0.3335  0.2916
 6940W        W24464   0.382   7.275  16.254 -0.0554 -0.3217  0.0218
 6941W        W24465   8.315  13.189   3.139 -0.2307  0.1022  0.0070
 6942W        W24466  13.112   1.048   6.557  0.2936  0.2636  0.0143
 6943W        W24467   3.079   8.210   0.603 -0.0036  0.0083  0.2632
 6944W        W24468   3.190  16.960   4.847 -0.0650  0.3070 -0.2079
 6945W        W24469   3.083   1.406  11.265 -0.0391  0.0215 -0.3655
 6946W        W24470   5.983  15.831  14.669  0.1272 -0.1437  0.2559
 6947W        W24471  16.303  15.128   3.759 -0.1374  0.0355 -0.0621
 6948W        W24472   7.955  10.373   3.962 -0.0650  0.0312  0.0051
 6949W        W24473  14.338  16.028  17.641  0.2826  0.0797  0.1032
 6950W        W24474   6.807   1.960   1.954 -0.2361 -0.1339 -0.2508
 6951W        W24475   9.725   8.178   2.783  0.2857  0.2091  0.0105
 6952W        W24476  15.253  16.362   4.974 -0.0775 -0.0024 -0.0008
 6953W        W24477   5.259   9.697   3.312 -0.0561  0.0147  0.2101
 6954W        W24478   1.007  13.097  17.053  0.0766 -0.0669 -0.1663
 6955W        W24479   3.192   7.422  17.041  0.0669  0.4522 -0.0543
 6956W        W24480  14.452   0.404  16.244 -0.1206  0.1268  0.2796
 6957W        W24481  12.631  16.240   1.723 -0.0339  0.0774  0.2755
 6958W        W24482   7.198  15.213   4.982 -0.1303  0.0362  0.1125
 6959W        W24483   9.847   9.671   2.335 -0.0937 -0.1098  0.0169
 6960W        W24484   9.361  13.448  12.746 -0.2379 -0.1957  0.1159
 6961W        W24485   4.791   4.941   5.682  0.0211  0.1625  0.0370
 6962W        W24486  15.189   0.573  16.528 -0.0243  0.1182  0.3498
 6963W        W24487   2.930  11.128   5.808  0.1700 -0.0807 -0.2771
 6964W        W24488   5.625   7.846  12.391  0.1834 -0.2750 -0.2198
 6965W        W24489   4.509   1.547   3.796 -0.1071  0.3475  0.0764
 6966W        W24490  13.772   8.175   2.064 -0.0428 -0.1838 -0.1354
 6967W        W24491   6.770  14.934  12.296  0.1657 -0.1128 -0.1488
 6968W        W24492  13.558  14.469  15.223 -0.0004  0.1286 -0.0847
 6969W        W24493   9.249  15.962   0.098  0.0755 -0.0873  0.1626
 6970W        W24494   1.462   8.812  17.221 -0.1173  0.0534 -0.0597
 6971W        W24495   6.018  10.306   1.150 -0.0746  0.1826 -0.1048
 6972W        W24496  10.273  15.799   4.557 -0.1138  0.0332  0.1131
 6973W        W24497   5.671   2.559   1.559  0.0358 -0.1976 -0.0437
 6974W        W24498  12.088   9.065  13.626 -0.0048 -0.0362 -0.2434
 6975W        W24499   3.739   3.536   3.094 -0.0734 -0.0402  0.0872
 6976W        W24500  11.458   6.681  14.061 -0.1804  0.3181  0.0512
 6977W        W24501  12.932   4.624  15.850  0.3907  0.0478  0.0667
 6978W        W24502   4.106  12.212  16.611 -0.0349  0.1548  0.2808
 6979W        W24503   8.982   3.403   1.444 -0.2300  0.0943 -0.2000
 6980W        W24504   5.002   1.747  13.165 -0.1713  0.0448  0.0510
 6981W        W24505  12.495   0.750   3.506 -0.1534 -0.0225  0.3334
 6982W        W24506   8.333  16.370  14.956  0.0555  0.1127 -0.0484
 6983W        W24507   4.403   9.019  12.963 -0.2016  0.1640 -0.1892
 6984W        W24508  14.133  12.514   0.414  0.1110  0.0078  0.0177
 6985W        W24509   1.252  15.224   2.888  0.1484 -0.1710 -0.1002
 6986W        W24510   4.958   6.558   1.218  0.0082  0.1741  0.1971
 6987W        W24511   4.581   6.884   1.093 -0.1228  0.3420 -0.2213
 6988W        W24512   1.738   0.385  14.193 -0.2881 -0.1286  0.0456
 6989W        W24513  11.327   1.464   5.673  0.1260 -0.0787  0.1819
 6990W        W24514  12.811  14.309   0.264 -0.0031 -0.0215  0.0081
 6991W        W24515  11.730  14.027   3.116  0.1013 -0.1516  0.0526
 6992W        W24516  14.191   7.660   4.208  0.1427  0.0718  0.0169
 6993W        W24517  11.900  12.483  13.194 -0.2716  0.2076  0.0369
 6994W        W24518   9.511  12.082   1.003 -0.1101 -0.2518 -0.0442
 6995W        W24519  16.968   4.950  12.923  0.0641 -0.1671  0.3696
 6996W        W24520  12.483   9.809  16.456  0.2355 -0.1416  0.0908
 6997W        W24521  13.340  16.456  13.097 -0.2642 -0.1349  0.0380
 6998W        W24522   4.010   4.191   4.691  0.4342 -0.0083 -0.2198
 6999W        W24523   3.299   5.588   3.197  0.2391  0.1638  0.0097
 7000W        W24524  16.422   2.244   4.528  0.1292  0.0755 -0.0664
 7001W        W24525   8.142   5.850   4.172 -0.0443  0.0354  0.1489
 7002W        W24526  16.586   5.757   5.110  0.1354  0.0222 -0.1661
 7003W        W24527   9.004   5.278  12.401  0.0934  0.2608 -0.0523
 7004W        W24528   7.060  11.430  17.495  0.1730  0.0839  0.0357
 7005W        W24529   7.813   8.116  12.801 -0.1150  0.1582  0.1666
 7006W        W24530   1.369  15.686   2.677 -0.3704  0.2582  0.3589
 7007W        W24531   9.705  12.180   5.049  0.1532  0.2007 -0.0039
 7008W        W24532  10.430   3.030   0.847  0.1141  0.1468  0.1762
 7009W        W24533  15.395  14.223  15.976 -0.0402  0.4577  0.2495
 7010W        W24534   0.568   4.836   2.159  0.0592 -0.3343 -0.0501
 7011W        W24535   2.336   1.877  15.921 -0.1392  0.0081 -0.0513
 7012W        W24536   7.431   7.659   4.545  0.1442  0.0780  0.2346
 7013W        W24537  12.322   0.159   5.323 -0.2378  0.0605  0.0617
 7014W        W24538  11.410  11.207   2.504 -0.2320 -0.2310 -0.0485
 7015W        W24539  14.702  13.234   2.044  0.2329 -0.1222 -0.0711
 7016W        W24540   9.185  13.314   3.481 -0.0414 -0.0334 -0.2576
 7017W        W24541  16.631  15.865   5.271  0.3504  0.1118 -0.0729
 7018W        W24542  10.032   4.180  15.373 -0.0944 -0.1638 -0.1268
 7019W        W24543   9.829   1.133   0.035  0.1729  0.0064  0.1301
 7020W        W24544  15.533  10.784  14.370 -0.0163  0.0434 -0.1068
 7021W        W24545   1.416  15.690  12.637  0.0867  0.0460  0.0264
 7022W        W24546   9.605  16.868   4.874  0.0994 -0.1625  0.0465
 7023W        W24547   6.121   9.836   1.492  0.1044  0.0630 -0.1676
 7024W        W24548  16.056   3.988  16.504  0.1310  0.0366 -0.1875
 7025W        W24549   8.786  10.072  15.131  0.0184  0.2149 -0.0087
 7026W        W24550   9.443  14.450   5.040  0.0284 -0.4314  0.2715
 7027W        W24551   4.279   0.589   0.499 -0.1966  0.3033  0.0338
 7028W        W24552  15.738   9.296   1.563  0.1168 -0.1066  0.0838
 7029W        W24553   2.583   2.580   2.923  0.0375  0.1735 -0.0983
 7030W        W24554  10.856   3.580   4.703  0.0185 -0.2173 -0.1292
 7031W        W24555   4.520   7.559  16.651 -0.0635 -0.2724  0.1608
 7032W        W24556  14.791   5.110  16.989  0.0338 -0.0178 -0.2578
 7033W        W24557  11.504   1.279   1.503 -0.1253  0.1459  0.0966
 7034W        W24558  11.531   5.473   4.579  0.4212 -0.2047  0.0527
 7035W        W24559   4.619  12.637  15.410  0.2540  0.1762  0.1775
 7036W        W24560   5.507  16.651   5.549  0.0352 -0.2434 -0.1887
 7037W        W24561   4.177  15.879  17.343 -0.0355  0.0642  0.0381
 7038W        W24562   8.521  13.338   4.083 -0.0224  0.0278  0.2105
 7039W        W24563   0.220   7.430  13.681 -0.2251  0.2904  0.3064
 7040W        W24564   2.876  14.009   3.627 -0.2578  0.1171 -0.1570
 7041W        W24565   3.842   8.664   5.194  0.1611 -0.2359  0.2308
 7042W        W24566  16.961   0.066   0.195  0.0079 -0.1252 -0.2007
 7043W        W24567   9.936  16.883  15.487 -0.3396 -0.2465  0.0489
 7044W        W24568   0.609   5.977   0.230  0.2334  0.1818 -0.0664
 7045W        W24569  14.773  17.053   0.144 -0.0030 -0.0428 -0.2738
 7046W        W24570   5.490  11.190   4.607 -0.1138 -0.0706 -0.1385
 7047W        W24571   3.193   5.588  14.404  0.0498 -0.0509 -0.0972
 7048W        W24572  11.298   2.064   1.853  0.1240 -0.2912 -0.0463
 7049W        W24573   9.815   6.864  16.452  0.0737  0.0739  0.1081
 7050W        W24574   6.661   1.430  16.428 -0.0592 -0.0508  0.2366
 7051W        W24575  14.603   0.018   0.640  0.2086  0.1681 -0.2177
 7052W        W24576  16.290  14.569  14.839 -0.1461  0.0654 -0.0711
 7053W        W24577  12.160   8.553   1.599  0.3668  0.0594 -0.1960
 7054W        W24578   0.171   7.047  13.330 -0.1376  0.1662 -0.1927
 7055W        W24579  12.043   3.803  16.484  0.0297  0.1338  0.2717
 7056W        W24580  16.815   2.537  13.806  0.0044 -0.2217  0.2291
 7057W        W24581  16.137   6.811   4.875  0.3858 -0.0076 -0.1914
 7058W        W24582  11.244   5.679   4.930  0.0564  0.2661 -0.2131
 7059W        W24583   7.358  12.249   0.702 -0.1676 -0.1720 -0.2085
 7060W        W24584  16.050  14.568   4.756 -0.1336 -0.1392 -0.3758
 7061W        W24585   8.867   3.316  14.942 -0.2064 -0.2255  0.0055
 7062W        W24586   2.888   6.208   5.781 -0.1158  0.1786 -0.0284
 7063W        W24587   3.065   7.151  16.161  0.0981  0.0137 -0.0889
 7064W        W24588   2.540  14.536  14.688 -0.2098  0.1782 -0.0381
 7065W        W24589  11.672   1.948   0.604 -0.0630 -0.1588 -0.0561
 7066W        W24590   2.897   1.985  15.136  0.1435  0.0451 -0.0294
 7067W        W24591  10.889   7.338   4.928 -0.2117  0.0512  0.0001
 7068W        W24592   8.628   3.512  13.024 -0.1142 -0.2264  0.0383
 7069W        W24593   7.355  14.864   1.918  0.2167 -0.3177  0.0164
 7070W        W24594   9.227   8.825  13.574 -0.0218 -0.1343 -0.0326
 7071W        W24595   8.351   1.672  15.116 -0.0144 -0.0897 -0.0018
 7072W        W24596   1.443   3.058   3.481  0.1172 -0.1403  0.2964
 7073W        W24597  13.082   9.897   3.376  0.2409 -0.2523 -0.1016
 7074W        W24598   0.627   5.836  16.120 -0.1608 -0.1685  0.1299
 7075W        W24599  10.861  12.712  16.012 -0.2818  0.0731  0.0179
 7076W        W24600   1.669  13.144  14.424 -0.0448  0.2686 -0.0377
 7077W        W24601   2.964  15.626  14.164 -0.1128  0.1015 -0.2889
 7078W        W24602  16.626   2.698   2.184  0.0339  0.0924  0.0183
 7079W        W24603  12.562   8.889   0.766 -0.1345  0.0995 -0.1854
 7080W        W24604  16.455   2.849  14.035 -0.1083 -0.0103 -0.3193
 7081W        W24605  13.324  11.347   2.212  0.1667 -0.2845 -0.1548
 7082W        W24606   8.007  16.854   0.209  0.1091  0.0257  0.0986
 7083W        W24607  15.555   4.617  16.798  0.1333 -0.2843 -0.1212
 7084W        W24608  17.119  15.472   0.345 -0.0771  0.2332  0.2779
 7085W        W24609   0.930   3.909  12.955  0.0554  0.1034 -0.2231
 7086W        W24610  13.078   2.748  15.545  0.1549 -0.3143 -0.1395
 7087W        W24611  15.255   2.693  17.222 -0.1475 -0.2513 -0.0512
 7088W        W24612  14.382  16.420   3.838 -0.2832  0.0175 -0.1498
 7089W        W24613   9.398   8.302   0.975  0.2418  0.0656  0.1858
 7090W        W24614  10.765   2.692   2.508 -0.0910  0.0138  0.0091
 7091W        W24615  14.911   2.255  13.632  0.1236  0.0997 -0.1909
 7092W        W24616   8.893   0.959  13.976 -0.0274  0.1067 -0.0792
 7093W        W24617   7.466  10.606   1.667 -0.1788 -0.0823 -0.0581
 7094W        W24618   2.358   7.522  12.890  0.0079  0.0824  0.1071
 7095W        W24619  17.049   1.551  15.849 -0.0671  0.1811 -0.0503
 7096W        W24620   5.798   2.050   1.481  0.0920 -0.0184 -0.0717
 7097W        W24621  14.225   0.436   1.663  0.1200 -0.1624 -0.0030
 7098W        W24622  16.260   1.832  17.675 -0.1352  0.0057 -0.0755
 7099W        W24623  12.061  10.333  16.180 -0.3219  0.2003 -0.1364
 7100W        W24624   8.526   3.959   2.703 -0.0127  0.0107  0.2867
 7101W        W24625   5.977   7.526  16.017  0.2176 -0.2684 -0.0244
 7102W        W24626   9.213  10.611   0.452 -0.3326 -0.2933  0.0279
 7103W        W24627  12.581   3.215  12.917  0.2426  0.1194  0.1031
 7104W        W24628  16.155  16.776   0.530  0.1340 -0.0662 -0.1728
 7105W        W24629  14.309  17.101  13.978  0.1458  0.0057  0.4378
 7106W        W24630  13.163  16.260   4.088  0.5317 -0.2624 -0.1406
 7107W        W24631   6.948   9.325   1.293 -0.0604  0.1045 -0.1400
 7108W        W24632   2.822   2.304   0.891  0.1162 -0.2415  0.0489
 7109W        W24633   4.312  13.287   5.090  0.1220  0.0285 -0.3083
 7110W        W24634   6.665  12.095  12.791  0.1327  0.1306  0.1586
 7111W        W24635   6.472   5.606   3.899  0.2961  0.2009 -0.1385
 7112W        W24636  13.544  14.239  14.451  0.0730  0.2394 -0.1862
 7113W        W24637  10.156  16.956  12.206  0.2408 -0.3007 -0.2479
 7114W        W24638   2.589   6.802   1.925  0.1462 -0.0426  0.2102
 7115W        W24639  11.496  15.145  11.580  0.0391 -0.1615  0.0443
 7116W        W24640  16.860   3.078  14.000 -0.2938 -0.1127  0.1870
 7117W        W24641   5.307   9.198  17.030 -0.0076 -0.0409  0.2106
 7118W        W24642   1.475  14.950   0.400  0.0999  0.0011 -0.2158
 7119W        W24643  14.282  15.780   2.298  0.2063 -0.0571 -0.0729
 7120W        W24644  12.435   2.092   0.725 -0.4511  0.0805 -0.0486
 7121W        W24645  12.097  14.439  14.514 -0.0002  0.0114  0.2252
 7122W        W24646   1.688   8.253   3.209  0.1658 -0.0156  0.4132
 7123W        W24647  12.382   8.376  16.378  0.1933  0.0126  0.0205
 7124W        W24648  13.079  12.301  14.392  0.0878  0.1586  0.3872
 7125W        W24649   8.491   6.345  14.669 -0.1619 -0.0591  0.1955
 7126W        W24650   7.438   7.544   5.556 -0.1958  0.0410  0.1435
 7127W        W24651   1.790  11.051   4.098 -0.2251  0.0176 -0.0696
 7128W        W24652  13.896  15.412   1.778  0.2930  0.0354 -0.0081
 7129W        W24653   3.782   4.319  13.410  0.3814 -0.0505 -0.2796
 7130W        W24654  16.258   8.545  14.854 -0.3466 -0.0668 -0.1402
 7131W        W24655   8.605   4.532  17.718 -0.1062  0.0294 -0.2951
 7132W        W24656  12.774   3.159  13.618 -0.1407 -0.2113  0.0856
 7133W        W24657   9.140  11.740   0.771  0.1679  0.0540 -0.1041
 7134W        W24658   9.439  14.752  14.477  0.2500 -0.1618 -0.0738
 7135W        W24659   6.393  12.596   0.156  0.1768  0.0635 -0.2803
 7136W        W24660  11.945   6.563  13.088 -0.0891  0.0338  0.1301
 7137W        W24661   9.511  11.951  13.499  0.3706 -0.2697  0.0487
 7138W        W24662   3.438   3.974   2.273  0.0837 -0.0916 -0.0365
 7139W        W24663  10.364   3.886  12.740  0.1943 -0.2045  0.1338
 7140W        W24664  16.867   2.620  17.328  0.1534  0.2139  0.0311
 7141W        W24665   1.945  14.516  16.555 -0.1468  0.1761  0.1728
 7142W        W24666   4.557  17.075  15.947 -0.1229  0.3520 -0.1473
 7143W        W24667   2.740   1.006   5.775 -0.1000  0.1254 -0.0666
 7144W        W24668  15.633   7.702   2.927 -0.1264 -0.0113  0.0270
 7145W        W24669   2.365  11.473   1.841 -0.1291 -0.2787  0.0933
 7146W        W24670  10.167  17.067   5.442 -0.4439  0.0539 -0.5175
 7147W        W24671  16.356   5.934  13.550  0.1370 -0.2573  0.0833
 7148W        W24672   7.495  15.827   2.884 -0.2171 -0.1159  0.2329
 7149W        W24673   8.100   3.248  14.327  0.0163 -0.3042  0.0931
 7150W        W24674  13.071   8.819   3.407  0.0962  0.0717 -0.1491
 7151W        W24675   8.872   4.410  17.239 -0.0870  0.0159  0.3993
 7152W        W24676  14.707   2.387   2.323 -0.0931 -0.0742 -0.2090
 7153W        W24677   2.856   1.550  17.381 -0.2621  0.0034  0.1062
 7154W        W24678   0.308  12.085  16.570  0.0204  0.1226  0.1861
 7155W        W24679   2.424   3.885   3.218 -0.0539 -0.0748 -0.0429
 7156W        W24680   4.716   8.323   2.225  0.0735 -0.0836 -0.1205
 7157W        W24681  14.296  13.160   1.748  0.1674  0.3056 -0.0170
 7158W        W24682   3.579  16.319   5.392  0.0242  0.0757  0.0604
 7159W        W24683   1.339   5.819  13.341  0.0224  0.1818 -0.0217
 7160W        W24684   8.366  15.044  13.329  0.0166  0.2002  0.0099
 7161W        W24685  15.040   4.362   4.166 -0.0894  0.3516  0.2657
 7162W        W24686  15.855   4.431   2.381  0.0889  0.0184 -0.3749
 7163W        W24687  15.302  13.514   4.234  0.0765 -0.2451  0.0012
 7164W        W24688  13.765   9.530  13.533 -0.1051 -0.0325 -0.0077
 7165W        W24689  13.525   0.103  16.316 -0.1152  0.1713 -0.3466
 7166W        W24690   8.593   7.217  15.227 -0.1303 -0.2999  0.3541
 7167W        W24691   2.824   2.702  16.280  0.1431 -0.0246  0.1483
 7168W        W24692   9.529  11.304  12.924  0.0958  0.1521 -0.1671
 7169W        W24693   4.334   4.066   3.837  0.1027 -0.2187 -0.3012
 7170W        W24694  11.193   7.166  13.077 -0.0702 -0.1288  0.1357
 7171W        W24695   9.363   1.169   5.159  0.0775  0.1425 -0.0564
 7172W        W24696   4.064   0.536  15.005 -0.2910  0.2776 -0.0337
 7173W        W24697   2.995  12.804   0.006 -0.3739 -0.0350  0.3863
 7174W        W24698   3.786  14.756   1.834  0.0236  0.1777  0.0607
 7175W        W24699  11.470   2.383   2.450 -0.0150  0.1160  0.2100
 7176W        W24700   1.026   0.598  14.326  0.0637 -0.2532 -0.0037
 7177W        W24701  14.803   8.004   6.630 -0.1742  0.0720 -0.1224
 7178W        W24702  12.459   7.044   0.565  0.1077  0.0464 -0.0164
 7179W        W24703   7.974   9.634   2.517  0.0238  0.0491  0.0815
 7180W        W24704  10.762   3.065  13.600  0.1828 -0.1194  0.1324
 7181W        W24705   7.729   1.184   2.449  0.2449 -0.0662 -0.0885
 7182W        W24706  13.267   6.155   6.331  0.0892 -0.1227  0.2216
 7183W        W24707  16.178  10.402   5.283  0.3975  0.2664 -0.1019
 7184W        W24708   4.069  10.235  14.783 -0.1542  0.0654  0.1789
 7185W        W24709   2.554   3.220  17.131 -0.1831 -0.1283 -0.1828
 7186W        W24710  14.389  16.114   3.336  0.1327  0.0598 -0.1521
 7187W        W24711  16.168   0.056   5.342 -0.0896  0.0453  0.0907
 7188W        W24712  16.193   9.556  16.785  0.1596  0.0806 -0.3774
 7189W        W24713  15.898  13.277  13.434  0.0068  0.0678  0.1250
 7190W        W24714  12.045  12.137  16.408 -0.3151  0.1708  0.1552
 7191W        W24715  16.228   6.027  15.027  0.0375 -0.0725 -0.0940
 7192W        W24716  10.711   9.568   2.007 -0.0115  0.1376  0.0971
 7193W        W24717  15.999   9.424  12.411 -0.1399  0.0668 -0.2781
 7194W        W24718   3.906   1.396  13.119  0.0084  0.0632 -0.0304
 7195W        W24719  12.653   1.357   2.793 -0.3094  0.2364 -0.1108
 7196W        W24720  12.181  13.874   4.527  0.0073 -0.0393 -0.0391
 7197W        W24721   5.928   1.113  17.425  0.1078 -0.0619 -0.2773
 7198W        W24722  14.713  14.762   0.767 -0.0379  0.0327 -0.1298
 7199W        W24723   0.754   5.125   1.775 -0.0257 -0.2043 -0.6362
 7200W        W24724  10.341   0.293  13.441  0.0125 -0.2633 -0.1285
 7201W        W24725  16.634   3.539   6.168  0.0204 -0.0987 -0.1804
 7202W        W24726   2.754  12.336  15.798  0.1062  0.3726 -0.2120
 7203W        W24727  16.113  14.180  15.109 -0.0386 -0.2125 -0.0409
 7204W        W24728   0.175  14.688   1.404 -0.1573  0.0980  0.2434
 7205W        W24729   0.432  11.361   0.433  0.0648  0.3197  0.2543
 7206W        W24730   3.541  10.807  13.636  0.0067 -0.0856  0.1303
 7207W        W24731   9.836  16.198   4.845  0.0081 -0.1468  0.1479
 7208W        W24732   9.465  15.389   5.491  0.1124  0.0019 -0.0973
 7209W        W24733   6.656   1.582   4.874  0.1236 -0.2376 -0.0185
 7210W        W24734  13.285   9.942  17.471 -0.1401  0.0162  0.0605
 7211W        W24735  15.451   5.318  16.558 -0.2400  0.1816 -0.0126
 7212W        W24736   2.918   5.802  15.444 -0.0292 -0.1187 -0.1251
 7213W        W24737   9.651   6.205   2.210  0.0495  0.0111  0.2182
 7214W        W24738  11.505   8.184   4.235 -0.0137  0.1766  0.1254
 7215W        W24739   7.744   0.029  14.668 -0.0773  0.0318  0.2292
 7216W        W24740   7.153   4.486  16.721 -0.0015  0.0969 -0.0820
 7217W        W24741   5.986   8.031   5.852 -0.0359 -0.0426 -0.0082
 7218W        W24742   9.296  15.656   2.804  0.0424 -0.1246  0.3583
 7219W        W24743  12.676  12.689   3.222 -0.2746 -0.2710 -0.0739
 7220W        W24744   8.422  16.178  13.998 -0.0707 -0.1368  0.1549
 7221W        W24745  10.152  16.756  16.939 -0.4582 -0.0094 -0.1853
 7222W        W24746  10.223  12.269   5.087 -0.1377  0.1852  0.1518
 7223W        W24747  11.359   4.026   4.063  0.0532 -0.1691  0.2092
 7224W        W24748   4.796   3.698   1.683  0.3537  0.1529 -0.1030
 7225W        W24749  14.982  11.439  13.996  0.0533  0.1782 -0.2500
 7226W        W24750   2.151   5.208   0.853 -0.1159  0.0430 -0.1192
 7227W        W24751  16.679   1.955   0.222 -0.1049  0.0642  0.1251
 7228W        W24752  10.515  10.151  13.314  0.0767  0.0231  0.1610
 7229W        W24753   3.375   6.453  11.758  0.0418 -0.1877 -0.0259
 7230W        W24754  15.666   9.442  11.854 -0.2387 -0.0642 -0.3777
 7231W        W24755   9.068  10.517  14.967 -0.0236 -0.0341  0.0488
 7232W        W24756   0.410  12.297   1.821 -0.2727 -0.1347  0.2132
 7233W        W24757  16.485   3.809  15.196 -0.1979  0.2392  0.0271
 7234W        W24758   0.566   8.993  12.957 -0.0065  0.1730  0.1039
 7235W        W24759   5.903  15.732  12.840  0.0600  0.1421 -0.0607
 7236W        W24760   0.573   8.569   5.413  0.1159  0.1187  0.2900
 7237W        W24761  12.051   1.772   2.001  0.1610 -0.1603  0.0484
 7238W        W24762  11.932   4.447   4.868 -0.2370 -0.2897 -0.3818
 7239W        W24763   4.883   7.913  13.347  0.0616 -0.0150 -0.3549
 7240W        W24764   5.127   9.426   1.342 -0.0138 -0.0648 -0.1180
 7241W        W24765  12.657   1.099   6.192 -0.4543 -0.0977 -0.0273
 7242W        W24766   7.606  16.492  14.195 -0.1481  0.1542  0.4533
 7243W        W24767  15.284   0.795   4.175  0.0056  0.1561 -0.3301
 7244W        W24768  15.517  10.934   4.323  0.0624 -0.2737  0.1104
 7245W        W24769   5.321   6.977  12.375 -0.0807 -0.0595 -0.2153
 7246W        W24770   9.922   7.312   4.871 -0.0625  0.0228 -0.2843
 7247W        W24771  16.874  12.023  17.504 -0.0869 -0.0218  0.1540
 7248W        W24772   2.903   3.330   0.361  0.1610  0.0675 -0.1039
 7249W        W24773  12.749   3.625   2.951  0.1593 -0.0124  0.0411
 7250W        W24774   3.988   4.577   5.789 -0.1135 -0.1134  0.1424
 7251W        W24775   3.876   3.290  16.506  0.0055  0.0858  0.1244
 7252W        W24776  10.148   6.618  11.602 -0.0180  0.0843  0.2202
 7253W        W24777   7.212  12.536   3.047  0.0627  0.0629  0.0620
 7254W        W24778  16.579   7.418   0.869  0.1552  0.2265  0.2490
 7255W        W24779   1.897  12.072  16.959 -0.1065 -0.0696 -0.0612
 7256W        W24780  10.293   4.888   1.669  0.0718  0.1320 -0.0911
 7257W        W24781  10.825   2.331  14.324  0.0740  0.2912  0.1493
 7258W        W24782   3.999   4.678  13.771 -0.0086 -0.0419 -0.1055
 7259W        W24783   7.949   7.111   2.030 -0.0717  0.5354  0.0722
 7260W        W24784   1.407   3.744   5.255 -0.1467 -0.0057 -0.2022
 7261W        W24785  10.730  10.842   1.125  0.0251 -0.2101  0.2427
 7262W        W24786   1.987   8.713  13.947  0.3411 -0.0462 -0.2592
 7263W        W24787   1.505  11.989   1.999 -0.2000  0.0781 -0.0158
 7264W        W24788  14.829   9.504   1.164  0.0614 -0.1490 -0.2320
 7265W        W24789  12.941   3.752   3.375  0.1626 -0.0704  0.0663
 7266W        W24790   3.874  16.869  16.647 -0.1660  0.0400  0.0411
 7267W        W24791   8.757   4.936  12.050 -0.0310 -0.0539  0.0156
 7268W        W24792   6.137   3.630  13.158  0.1831  0.0662  0.1664
 7269W        W24793   1.220   2.048  17.688  0.0963 -0.4437  0.0012
 7270W        W24794   9.552   9.098   2.085  0.3161  0.1882 -0.3644
 7271W        W24795  15.262   4.595   0.453 -0.1440  0.1023 -0.0390
 7272W        W24796  14.006   6.904  14.340 -0.1097  0.2400  0.0455
 7273W        W24797   8.689   5.317   5.922 -0.0327  0.0197 -0.0882
 7274W        W24798  17.058  16.114   0.844 -0.1084 -0.0320 -0.1484
 7275W        W24799  10.384  15.593  13.122  0.1995  0.2881  0.1962
 7276W        W24800   9.131  11.384  14.528 -0.4091  0.0244  0.2270
 7277W        W24801   7.184  16.444   4.569 -0.0407 -0.0640 -0.2446
 7278W        W24802   9.196  17.115   1.208 -0.2682  0.0458 -0.0546
 7279W        W24803   4.626   1.177   5.224 -0.4127  0.0228 -0.0678
 7280W        W24804   0.377   6.281   2.430 -0.3100 -0.0359 -0.0690
 7281W        W24805  10.524  16.734  15.442  0.2726 -0.1601 -0.3350
 7282W        W24806   0.165   1.574   0.225 -0.0097 -0.0644 -0.2710
 7283W        W24807   4.479   1.562  15.968  0.0800 -0.0374  0.1074
 7284W        W24808   8.631   9.320   2.199 -0.0941  0.1956 -0.1569
 7285W        W24809  17.109  13.053   1.946  0.0166  0.2856 -0.0441
 7286W        W24810   2.784  14.314   0.324  0.0682 -0.0360  0.0399
 7287W        W24811  17.065   2.676   0.943 -0.2302 -0.0795  0.2074
 7288W        W24812  16.437  11.549   5.620  0.0473 -0.1231  0.4495
 7289W        W24813   3.389   6.948  12.441 -0.1870 -0.0095  0.0584
 7290W        W24814   0.287   0.113   4.897  0.1491 -0.0191 -0.2304
 7291W        W24815   1.656  14.918  16.268 -0.3695 -0.0111 -0.1016
 7292W        W24816  16.815   5.835   4.146 -0.0643 -0.0685  0.2572
 7293W        W24817  11.645  17.081  13.161  0.1546 -0.1392 -0.1378
 7294W        W24818  10.104   5.016  16.960  0.1640 -0.0953  0.1902
 7295W        W24819   9.140  10.257   0.108 -0.1929  0.1349  0.0919
 7296W        W24820  16.132   1.567   5.041  0.1364  0.0784  0.0451
 7297W        W24821   5.337   0.139  13.038  0.0706  0.0076  0.1803
 7298W        W24822  13.658   4.066  15.677 -0.1043  0.0756  0.0599
 7299W        W24823  11.366  16.566   3.307 -0.0590 -0.2914  0.6235
 7300W        W24824   2.723   8.872  12.715  0.0161 -0.2566 -0.2953
 7301W        W24825   1.194   4.095   2.075 -0.1038  0.0830  0.0812
 7302W        W24826   9.823   2.595  17.047  0.0072  0.1057 -0.0226
 7303W        W24827   2.051   5.644   2.765  0.0118  0.1191  0.1725
 7304W        W24828   8.693   8.738   4.425  0.3774 -0.0624 -0.3301
 7305W        W24829  12.287   0.768   0.416  0.0793  0.2277 -0.0928
 7306W        W24830  10.991  10.897   3.809  0.1394  0.2775  0.1911
 7307W        W24831   1.894   9.202  11.779 -0.3147  0.0276  0.0424
 7308W        W24832   1.392   7.398  16.482  0.1274 -0.1693  0.1529
 7309W        W24833  16.952  11.397  14.523 -0.0171 -0.3709 -0.0173
 7310W        W24834  11.796   9.734  14.431 -0.0485  0.3632 -0.0513
 7311W        W24835   2.871   0.405   0.498 -0.0784  0.0796  0.2080
 7312W        W24836  13.835   9.108   2.720  0.1778 -0.0406  0.0177
 7313W        W24837  12.080   6.587   4.241 -0.5194 -0.1668 -0.3217
 7314W        W24838  16.590  14.987  14.328 -0.2457  0.2265  0.1596
 7315W        W24839  15.138  10.764   5.245  0.0548  0.2698 -0.1368
 7316W        W24840   7.901  14.942   1.794  0.1375  0.4126  0.1573
 7317W        W24841   7.966   0.537  17.206 -0.1725  0.2319 -0.0712
 7318W        W24842   0.974   0.717  15.588  0.1100 -0.3769 -0.0339
 7319W        W24843  16.334   2.352   5.705 -0.2356  0.2703 -0.2388
 7320W        W24844  13.302   7.475  16.362  0.0665  0.0988  0.1905
 7321W        W24845   8.317   7.271  15.674 -0.0852  0.0833 -0.1478
 7322W        W24846   2.881  13.764   6.119  0.0397 -0.0669 -0.2552
 7323W        W24847  13.026  10.890  15.160 -0.2296 -0.4856  0.0250
 7324W        W24848  15.378   8.784   2.616  0.1125  0.1674 -0.1472
 7325W        W24849  12.435  12.809  12.443 -0.2028 -0.1449  0.0387
 7326W        W24850  15.805   1.472  17.723 -0.0012  0.1361  0.2204
 7327W        W24851  16.612  11.969   1.973  0.0083 -0.0334 -0.3775
 7328W        W24852  13.069   7.306  12.420  0.0018  0.0665 -0.0374
 7329W        W24853  15.630   8.069   2.037  0.2667  0.1790 -0.3189
 7330W        W24854  14.165   0.653  17.031  0.1502  0.1508  0.0196
 7331W        W24855  12.008   1.409  16.325  0.0324 -0.3681 -0.1626
 7332W        W24856  16.512   3.698   2.427  0.2401  0.1568  0.0393
 7333W        W24857   1.601   9.232  16.090 -0.2794 -0.3372  0.0649
 7334W        W24858   8.314  10.988  17.704  0.0422 -0.0068 -0.2794
 7335W        W24859   2.991  14.022   2.288  0.0650  0.2252  0.0605
 7336W        W24860   2.956   0.730   5.411  0.0482 -0.2774  0.2765
 7337W        W24861   1.465   0.914  13.661  0.4129  0.2004  0.0173
 7338W        W24862  15.876  16.920  14.433  0.1192 -0.3198 -0.0668
 7339W        W24863   5.813   8.195  12.094 -0.3362 -0.0449 -0.2999
 7340W        W24864   4.564   9.502   5.017 -0.0263  0.0420  0.2343
 7341W        W24865   6.513   3.320   2.037  0.0267  0.1931  0.2174
 7342W        W24866   5.928   1.542  15.752 -0.0176  0.3086  0.1956
 7343W        W24867   0.664  14.748  15.607  0.0304  0.0054 -0.2445
 7344W        W24868  12.815  16.290  16.286 -0.2442  0.1245 -0.0031
 7345W        W24869   4.610   9.851  15.326 -0.1592  0.3053  0.1888
 7346W        W24870  13.676   1.262  14.903 -0.0655  0.3461  0.3477
 7347W        W24871  15.970   3.280   2.452  0.0694  0.3276  0.0459
 7348W        W24872   5.403   2.362   2.825  0.1630  0.0252 -0.1555
 7349W        W24873  10.242   3.252  13.517  0.2138 -0.2688 -0.3221
 7350W        W24874   2.561   8.602   1.956  0.0241 -0.0788  0.1914
 7351W        W24875   6.881   6.759   2.835  0.1703 -0.1302 -0.3247
 7352W        W24876  11.134  14.182   1.177  0.1005 -0.0083  0.2138
 7353W        W24877   4.980   6.770  16.179 -0.1082 -0.2303  0.1037
 7354W        W24878   6.890   5.221   3.165  0.1425 -0.0836 -0.0914
 7355W        W24879  16.912  13.087  12.631  0.1171  0.2452 -0.0231
 7356W        W24880   5.779   9.730   2.445  0.2435 -0.0565  0.0177
 7357W        W24881  13.685   0.118   5.778 -0.0717 -0.2885  0.0272
 7358W        W24882   5.723   3.222   0.344  0.0254  0.1639 -0.4051
 7359W        W24883   7.804   6.038   3.377  0.2871  0.0129  0.2258
 7360W        W24884   4.747   8.804   2.053  0.1180 -0.1607  0.1009
 7361W        W24885   0.374  15.436   5.442  0.3701 -0.4613 -0.0864
 7362W        W24886   4.711   7.411  15.752  0.2226  0.0683 -0.2442
 7363W        W24887   9.128  14.781  16.560  0.0348  0.1932  0.2675
 7364W        W24888  16.985   1.624  15.143 -0.1481  0.3128  0.2473
 7365W        W24889   8.131  13.867  12.310  0.0649  0.0910 -0.1413
 7366W        W24890   8.117  13.433   4.393 -0.3663  0.0168 -0.0028
 7367W        W24891   9.152   9.457   3.946  0.1138 -0.0607  0.0672
 7368W        W24892   8.431  11.482   0.159  0.1035 -0.0866 -0.2806
 7369W        W24893   4.601  11.744   3.624 -0.0242  0.4037  0.3249
 7370W        W24894   5.654  16.048   3.131 -0.0120 -0.2631  0.0035
 7371W        W24895   4.831   9.327  16.164  0.1348  0.0463  0.2999
 7372W        W24896   0.944  14.534  16.275  0.1435 -0.1240 -0.0267
 7373W        W24897  15.744  12.548   4.046  0.0034  0.0643  0.0000
 7374W        W24898   6.625   8.614  16.724  0.0776 -0.1140  0.1037
 7375W        W24899  10.181   8.540   2.134 -0.3025 -0.3920 -0.0525
 7376W        W24900   6.180  14.967  16.803  0.0321  0.1073  0.0692
 7377W        W24901   4.955   8.682   4.465 -0.2934 -0.0218  0.0382
 7378W        W24902   2.750   7.045  14.629 -0.0842 -0.1683 -0.4793
 7379W        W24903  13.445  10.390   5.301  0.0606 -0.0987 -0.0223
 7380W        W24904   0.098  11.357  13.214  0.1454  0.3811 -0.0105
 7381W        W24905  10.143   9.874  14.212  0.0346 -0.0102 -0.3951
 7382W        W24906   6.783  16.618   0.919 -0.2831  0.0331  0.2428
 7383W        W24907   6.692  14.102   2.670  0.0976 -0.2096  0.1928
 7384W        W24908   9.513  14.418  12.299  0.2398 -0.1878 -0.5044
 7385W        W24909   2.621   9.776   4.575  0.0686 -0.2635  0.0793
 7386W        W24910   5.069   2.388  14.574  0.0020 -0.0280  0.0899
 7387W        W24911   5.684   3.261  17.535  0.2850  0.0555 -0.0631
 7388W        W24912  16.567   9.133  13.991  0.0009 -0.1280  0.4097
 7389W        W24913   3.866   6.386   4.238 -0.4779  0.2901  0.3348
 7390W        W24914   6.355  11.138   1.713  0.2632  0.1355  0.2895
 7391W        W24915   9.384   4.037  12.214  0.2583 -0.3696 -0.3164
 7392W        W24916  16.104   7.764  15.087  0.0853  0.0919  0.0589
 7393W        W24917   5.523  12.096  17.020 -0.0437  0.2006  0.0958
 7394W        W24918   5.919   7.709   2.287  0.0288 -0.1931 -0.2534
 7395W        W24919   6.731  13.799   4.671  0.0387 -0.0346  0.0991
 7396W        W24920  11.547   8.601   1.855  0.0653  0.2978 -0.1871
 7397W        W24921  12.503   0.670  12.226 -0.0804  0.0683  0.2727
 7398W        W24922   4.201  16.337  13.668  0.0359 -0.4300 -0.1426
 7399W        W24923   5.940   5.245   1.362 -0.2039  0.0476  0.0118
 7400W        W24924  15.528   3.398   5.537  0.2108  0.1095  0.0333
 7401W        W24925  14.880   3.110  17.341  0.1627 -0.2031 -0.0671
 7402W        W24926   3.412  17.018  13.653 -0.0003  0.0319  0.0481
 7403W        W24927  11.184   9.530  17.678  0.1048  0.1159  0.1463
 7404W        W24928   4.779   4.460  13.398 -0.0451 -0.0225  0.0326
 7405W        W24929   9.016   0.912   6.400 -0.1609  0.2563 -0.0476
 7406W        W24930   9.019  15.760   4.631  0.1697  0.2666  0.0225
 7407W        W24931   3.490   8.435   5.538 -0.0043 -0.4123  0.1462
 7408W        W24932   6.841   1.490   2.274 -0.0472  0.0590 -0.2852
 7409W        W24933   1.123  15.001   4.353  0.0889 -0.2497 -0.0868
 7410W        W24934   0.446   8.493  13.708 -0.0071 -0.2415 -0.2134
 7411W        W24935   1.227  13.224  16.625 -0.0544  0.2028 -0.0842
 7412W        W24936  10.201  14.407   4.474  0.0630 -0.1052  0.1182
 7413W        W24937  12.275  10.294  14.092  0.2038 -0.3468 -0.0898
 7414W        W24938  13.275  15.558   2.966 -0.0562  0.1087  0.0137
 7415W        W24939  14.649  12.267   3.262  0.1463 -0.3639 -0.1731
 7416W        W24940  13.016  16.542   1.584  0.1511 -0.0348  0.1045
 7417W        W24941  16.195   5.873   3.663 -0.1875  0.1691 -0.2576
 7418W        W24942  15.314   9.612  14.989  0.0838  0.0821  0.0291
 7419W        W24943   0.291  13.808  12.659 -0.0682 -0.2305  0.0189
 7420W        W24944  13.994  13.323   4.247 -0.0597 -0.3158 -0.2763
 7421W        W24945   6.907   8.631  14.541  0.6215 -0.0686 -0.1290
 7422W        W24946   6.933   8.024   4.465 -0.0467  0.1597 -0.0751
 7423W        W24947   3.789  12.821   6.167 -0.2931  0.1968  0.1388
 7424W        W24948   3.394   6.647   4.381 -0.1095 -0.2621  0.0629
 7425W        W24949   6.386  11.930  14.128  0.3228 -0.3134 -0.0857
 7426W        W24950   5.659  13.745   0.624  0.0566 -0.0501 -0.0368
 7427W        W24951   1.253   3.839   3.965 -0.1818 -0.2446 -0.1214
 7428W        W24952   2.127   1.025  13.454  0.1270 -0.5280 -0.1577
 7429W        W24953  12.716  14.824   1.916  0.1457 -0.0036  0.2314
 7430W        W24954  10.124  12.950  17.210 -0.1749  0.2621  0.4111
 7431W        W24955   5.397  12.857   3.768 -0.1303  0.2212  0.1583
 7432W        W24956   2.554   2.298   5.163  0.1220  0.0952 -0.1495
 7433W        W24957   8.836   3.879   0.995 -0.1518  0.0597 -0.2438
 7434W        W24958   6.087   6.827  14.301  0.1098 -0.3161  0.3950
 7435W        W24959   0.411   8.343   0.528  0.1229 -0.1079  0.0661
 7436W        W24960   8.049   3.619   4.867 -0.0864  0.2010  0.0220
 7437W        W24961  15.115   7.190  14.257  0.2309 -0.2531  0.1075
 7438W        W24962   8.737   7.599   2.739  0.1045  0.2251  0.0253
 7439W        W24963  10.470   0.251  16.097 -0.0292  0.0547  0.0662
 7440W        W24964   8.300  12.762  16.934 -0.1401 -0.2578 -0.1678
 7441W        W24965   3.341  14.462  15.360 -0.1678  0.2650 -0.2464
 7442W        W24966   9.554  13.853  14.156 -0.1694  0.3136  0.1562
 7443W        W24967   3.113   8.336  15.093  0.1653  0.1206 -0.2873
 7444W        W24968  10.697   2.895  15.585 -0.3280  0.0018  0.2352
 7445W        W24969  16.548  11.959  16.043 -0.0691  0.0767 -0.0721
 7446W        W24970   1.931  12.050  17.464 -0.2276  0.2594  0.1922
 7447W        W24971   4.948   5.626  15.671  0.1013  0.1006  0.0764
 7448W        W24972   6.430   6.379  16.248 -0.0185 -0.5832 -0.0352
 7449W        W24973   1.167  13.023  14.805 -0.0931 -0.0431  0.2200
 7450W        W24974   8.996   4.339   1.264 -0.1691 -0.2183 -0.2391
 7451W        W24975  13.849  16.617  12.228  0.0668  0.2224 -0.1886
 7452W        W24976  13.367  15.190  11.305  0.2257 -0.3399 -0.1695
 7453W        W24977   2.590   2.216  16.189 -0.0551 -0.1590  0.0885
 7454W        W24978  16.299   8.043  13.093 -0.0794  0.1186  0.2084
 7455W        W24979   0.685   4.439  12.352  0.2025  0.0301  0.0640
 7456W        W24980   0.556   7.794  16.308  0.2242  0.2195 -0.0549
 7457W        W24981  14.382   9.914   1.890 -0.0279  0.2773 -0.0787
 7458W        W24982   0.321   6.112  14.232  0.0841  0.1825 -0.0345
 7459W        W24983   6.082  14.874  16.344 -0.1150 -0.1213 -0.0731
 7460W        W24984  11.601   4.240   3.111  0.0655  0.3129  0.0937
 7461W        W24985   3.951   2.657  14.040  0.3096 -0.0846 -0.0460
 7462W        W24986   8.072   2.323   1.525  0.0274 -0.2529  0.3437
 7463W        W24987  11.271   4.478  14.963 -0.1023  0.1540 -0.2152
 7464W        W24988  12.069   5.125  11.604 -0.1218 -0.0290  0.0869
 7465W        W24989   1.941   3.916  12.922  0.1134 -0.0645 -0.0976
 7466W        W24990  10.440   5.796  14.001  0.0486  0.0950  0.0023
 7467W        W24991  11.885  16.703   4.240 -0.0589 -0.0603  0.1850
 7468W        W24992   0.691   4.807  14.005 -0.0509  0.1095 -0.0203
 7469W        W24993   1.522   0.823  15.341 -0.0324 -0.0578 -0.2015
 7470W        W24994  17.100   9.025   0.552  0.0653 -0.1287 -0.1874
 7471W        W24995  13.757  12.493  15.464  0.0671  0.1763 -0.0834
 7472W        W24996   8.022   7.562  12.570 -0.1141  0.2444  0.3194
 7473W        W24997   3.764   8.311   1.091  0.0936 -0.2707 -0.1731
 7474W        W24998   5.217   7.172   2.846  0.0900 -0.1974  0.1459
 7475W        W24999   0.935   2.262   2.279 -0.0892 -0.0224  0.0211
 7476W        W25000   1.468  12.727   4.861 -0.0489  0.0053 -0.4887
 7477W        W25001   3.925  14.122   4.952  0.0253 -0.2211  0.0462
 7478W        W25002  13.552   5.405  17.326 -0.0698 -0.2185  0.0156
 7479W        W25003   8.091   7.172  12.246  0.3175  0.1330  0.0108
 7480W        W25004  16.998  15.726  12.750 -0.1196 -0.1040  0.0318
 7481W        W25005   7.655  13.967  14.752 -0.2245  0.0219  0.0532
 7482W        W25006   8.112   5.221   5.317  0.0323  0.0614 -0.1829
 7483W        W25007   4.509   5.388  12.644 -0.1377 -0.0663 -0.0644
 7484W        W25008  12.901  13.633   5.101  0.0510  0.1412  0.1389
 7485W        W25009   7.565  14.918   3.125 -0.1377  0.3189  0.1838
 7486W        W25010   7.851   3.143   4.838  0.0860 -0.1796 -0.4470
 7487W        W25011   9.487   1.803  12.936 -0.3089  0.1661 -0.1647
 7488W        W25012   3.557   0.468  14.397 -0.1484  0.0665  0.1810
 7489W        W25013  16.048   2.046   2.436 -0.0120  0.0725 -0.0113
 7490W        W25014   5.043   6.976  17.378 -0.3075  0.2772  0.0627
 7491W        W25015  16.575  16.267   0.736  0.1854 -0.0010  0.1862
 7492W        W25016   4.748   9.707   2.324 -0.0146 -0.2235 -0.0001
 7493W        W25017   5.388  15.105  17.575  0.0834 -0.1567 -0.0566
 7494W        W25018   1.000  11.387  12.122  0.0709  0.0317  0.4771
 7495W        W25019   3.073   1.170   0.214  0.0988 -0.1338  0.1961
 7496W        W25020   9.037  12.779  12.413 -0.1775 -0.3203  0.2072
 7497W        W25021   0.760   9.842   1.973 -0.0948  0.1242  0.4631
 7498W        W25022   6.243   9.909   3.468 -0.1987  0.2938  0.1422
 7499W        W25023   3.270  16.531   0.087  0.1330 -0.1840 -0.0746
 7500W        W25024  10.618  16.677  12.350  0.3438 -0.0776  0.0972
 7501W        W25025  13.919  15.437   4.806  0.0065  0.0040  0.1203
 7502W        W25026  13.977   5.484   5.283  0.1934 -0.2955 -0.1774
 7503W        W25027  12.956  14.354   4.771  0.1416 -0.0676 -0.1454
 7504W        W25028  12.462   2.093   5.116  0.0826 -0.1061  0.2932
 7505W        W25029   4.717  15.394  16.670  0.1939  0.1813 -0.0252
 7506W        W25030   3.708   1.737  13.917 -0.0299  0.1038  0.0061
 7507W        W25031  15.074   9.448   5.486 -0.0948 -0.1031  0.2453
 7508W        W25032  13.094  16.148  14.310  0.1326  0.1314  0.2951
 7509W        W25033  13.941   1.557   2.312 -0.1636  0.0601 -0.2314
 7510W        W25034   6.802   6.769  16.334 -0.1279 -0.1205  0.3432
 7511W        W25035   9.101   2.508   4.880 -0.0863  0.0616 -0.0727
 7512W        W25036   8.543  15.392  11.186  0.0699 -0.1748  0.2423
 7513W        W25037   2.576  12.852  17.427  0.1858  0.0260  0.3206
 7514W        W25038  13.567   1.671  17.181  0.3507  0.0368  0.4133
 7515W        W25039  10.616  14.213   6.133  0.1655 -0.2226 -0.0142
 7516W        W25040   8.447   9.127  16.590 -0.1970  0.0180 -0.0334
 7517W        W25041   8.815   0.536  13.175 -0.4082  0.0115 -0.1237
 7518W        W25042   6.482   7.887  16.551 -0.0872  0.1619  0.0507
 7519W        W25043  10.362   1.995  14.923 -0.0483 -0.1144 -0.0879
 7520W        W25044   5.008   3.606  13.056 -0.0565  0.2724 -0.3094
 7521W        W25045   1.423  14.849  12.494 -0.4125  0.0118  0.1475
 7522W        W25046  15.934  10.965   0.358 -0.3046  0.0985 -0.1467
 7523W        W25047   9.918   7.092   3.148  0.2460  0.0126  0.1246
 7524W        W25048   8.473   1.879  16.989 -0.1535 -0.0971  0.1058
 7525W        W25049  13.020   2.684   0.141  0.2459 -0.0637 -0.1333
 7526W        W25050   7.585   0.377  13.841  0.2052  0.1654  0.2779
 7527W        W25051  14.182   9.201  12.760 -0.1774  0.4512  0.0914
 7528W        W25052  11.153   8.308  12.506 -0.1712 -0.2125  0.0884
 7529W        W25053  11.105   7.230   2.325 -0.1308 -0.1173 -0.0481
 7530W        W25054   3.628   9.895   0.322 -0.1873  0.0684  0.1456
 7531W        W25055   3.697   5.115  17.322  0.0950 -0.0889  0.0923
 7532W        W25056  11.976  13.962  14.399  0.0537 -0.0026  0.2077
 7533W        W25057   0.279   5.602  16.409 -0.1609  0.0702  0.1803
 7534W        W25058   4.118   1.773   5.757  0.2232  0.0996 -0.0731
 7535W        W25059   7.545  14.850  13.822 -0.5713 -0.1717  0.1502
 7536W        W25060   1.052   0.115  17.450 -0.1339 -0.1387 -0.3788
 7537W        W25061   8.556   1.727  13.294 -0.0336 -0.0138  0.0374
 7538W        W25062   3.148  14.641   0.382  0.1550 -0.0128 -0.0266
 7539W        W25063   0.940   4.351   4.789 -0.0756  0.1492 -0.0061
 7540W        W25064   5.882   3.238  15.078 -0.0608  0.0211  0.1916
 7541W        W25065   3.097  11.564   4.554  0.2705  0.0274  0.2091
 7542W        W25066   9.702   7.363  16.533 -0.0833  0.0921  0.2715
 7543W        W25067  11.860  13.275  11.922  0.0043 -0.0127 -0.0579
 7544W        W25068  12.105  11.676   1.730  0.0817 -0.0326  0.0614
 7545W        W25069   1.008   3.024   5.917  0.0140  0.1102  0.1748
 7546W        W25070   8.601  14.394   5.232 -0.1720  0.0540 -0.0202
 7547W        W25071  12.972  13.676   0.980  0.3418 -0.1979 -0.0085
 7548W        W25072  16.043  12.619  15.128 -0.0944 -0.0254  0.0109
 7549W        W25073   2.826   3.383   5.608  0.0754  0.1968 -0.1411
 7550W        W25074   1.440   3.112  16.254 -0.2091  0.2450 -0.0604
 7551W        W25075   0.068   5.705  17.111 -0.0028 -0.0377  0.2543
 7552W        W25076  11.760   6.620   0.435 -0.0405 -0.0439 -0.1079
 7553W        W25077   9.395  13.049   4.203 -0.1796  0.2751  0.2729
 7554W        W25078   0.318   5.534   0.327  0.1358  0.0739 -0.1081
 7555W        W25079   5.787   0.028  13.692 -0.0333  0.1696  0.1081
 7556W        W25080   1.401   6.064  16.368 -0.0866 -0.0998 -0.1029
 7557W        W25081   2.774  14.126   5.725 -0.2014  0.1570  0.4133
 7558W        W25082   1.148  11.479   2.090 -0.2208 -0.0495  0.1860
 7559W        W25083   6.255   7.082  15.857 -0.4773  0.1272  0.2264
 7560W        W25084  14.031   4.520  13.109  0.1545 -0.0073  0.2534
 7561W        W25085  11.082  14.227  14.348 -0.0820  0.0839 -0.2300
 7562W        W25086   6.836  15.551   0.843 -0.0621 -0.0272 -0.3081
 7563W        W25087   2.829   4.045  15.656 -0.0785  0.3148 -0.1402
 7564W        W25088   2.930   3.487  16.972  0.0823  0.1071  0.0954
 7565W        W25089   0.045   7.393   4.903  0.1361  0.0582  0.1612
 7566W        W25090  12.373  12.400  16.042  0.1998 -0.2416 -0.1723
 7567W        W25091  12.173   7.872  12.222 -0.1949 -0.1400  0.0749
 7568W        W25092   6.842   8.093   1.196  0.0149  0.1110  0.2733
 7569W        W25093  10.696   6.289  13.153 -0.2375  0.0871 -0.0120
 7570W        W25094   1.492   2.995  17.411  0.2104 -0.2540  0.2011
 7571W        W25095   8.477   0.419   1.643  0.2130  0.2494  0.3823
 7572W        W25096   8.932   4.985  17.687  0.2844  0.4415 -0.2945
 7573W        W25097  15.345   3.954   2.165 -0.0663 -0.0768 -0.2318
 7574W        W25098   5.503   7.548   5.332  0.1797  0.0951  0.1374
 7575W        W25099  16.527   0.100   5.733 -0.0906  0.1103  0.0901
 7576W        W25100  11.380   4.413   0.228  0.2419 -0.3339 -0.0692
 7577W        W25101  14.859  16.118   0.156 -0.2026  0.2274  0.0090
 7578W        W25102   8.423   8.475  14.260  0.0719 -0.4593  0.3476
 7579W        W25103   6.684   3.818   4.844  0.1629 -0.0846  0.1342
 7580W        W25104   4.489   9.961  17.520 -0.2764  0.0288 -0.0273
 7581W        W25105   3.308  12.010   1.700 -0.1246  0.1283  0.0900
 7582W        W25106   9.169   1.269   3.517  0.0077  0.1645  0.0075
 7583W        W25107   8.404   7.295   2.354 -0.3254 -0.0056  0.1014
 7584W        W25108   1.389   9.075  15.139 -0.1124 -0.2019 -0.2057
 7585W        W25109   2.773  12.252   5.169 -0.3548  0.1543 -0.0321
 7586W        W25110   6.706  16.233  12.189 -0.4322 -0.0834 -0.0092
 7587W        W25111   6.753   8.627  15.269  0.2749 -0.0166  0.1371
 7588W        W25112   2.019   7.972  16.785  0.5320 -0.4469 -0.2110
 7589W        W25113  11.479   0.020  15.423  0.0209 -0.0474 -0.1455
 7590W        W25114   3.689  16.168  13.699 -0.1536  0.2099 -0.2135
 7591W        W25115   6.677   5.660   1.898  0.0542 -0.0868 -0.0559
 7592W        W25116   4.671   9.454  17.460 -0.2018 -0.2000 -0.0441
 7593W        W25117  15.787  15.381   3.050 -0.2800  0.3930 -0.2100
 7594W        W25118   4.437   4.307   1.190  0.0123  0.0970 -0.1646
 7595W        W25119   3.344   2.720  14.912  0.1274 -0.1203 -0.2404
 7596W        W25120   5.933   0.289   2.310  0.1887 -0.1037  0.2275
 7597W        W25121  11.159   3.038   2.443  0.0222  0.0075 -0.2299
 7598W        W25122  11.953   3.763  12.985 -0.1482 -0.0413  0.1195
 7599W        W25123   7.761   4.419  17.505  0.0021  0.1805 -0.0613
 7600W        W25124  14.309   0.319   0.329 -0.1712 -0.1391 -0.3929
 7601W        W25125   3.267   6.185  15.867  0.0115  0.0312 -0.3191
 7602W        W25126  16.121   1.251   4.542  0.2402 -0.3867 -0.1933
 7603W        W25127   0.581   3.508  17.404  0.0996 -0.1396  0.3020
 7604W        W25128   6.384   4.597  16.128 -0.3928  0.1391 -0.0798
 7605W        W25129   1.336  14.667   3.226 -0.0121  0.0399 -0.1540
 7606W        W25130   3.928  15.453  12.337  0.0774 -0.0408 -0.3328
 7607W        W25131   7.569  11.437   2.640 -0.0155 -0.2942 -0.2062
 7608W        W25132   0.584   3.561  15.621  0.3642 -0.0097 -0.1584
 7609W        W25133  12.752  12.853   1.398  0.0676  0.0063  0.0396
 7610W        W25134  14.820   9.809  12.117 -0.0824 -0.2083  0.1287
 7611W        W25135   9.783  15.626   4.291 -0.0772 -0.0353  0.1164
 7612W        W25136  12.680  12.795   5.303  0.1031  0.1178  0.1566
 7613W        W25137  13.463  12.871   1.032  0.1819  0.0294  0.2038
 7614W        W25138   8.711  15.002  17.473 -0.0307  0.2545 -0.1231
 7615W        W25139  10.281   8.248  12.838 -0.0043  0.0308  0.0348
 7616W        W25140   8.068   1.009   4.954 -0.1912  0.2325 -0.2494
 7617W        W25141   6.769   3.422  16.431  0.2906  0.0789 -0.0765
 7618W        W25142  13.569  15.676   1.413  0.2372  0.0545  0.0355
 7619W        W25143   4.442   7.755   4.208  0.0260 -0.1764  0.1689
 7620W        W25144   5.443   6.232  16.342  0.0691  0.0606 -0.3117
 7621W        W25145   5.665   7.926  12.910  0.0627  0.1672 -0.0163
 7622W        W25146  12.004   5.197  16.732 -0.3215  0.1138 -0.2180
 7623W        W25147  17.132  10.823  16.685  0.1921  0.0341 -0.2415
 7624W        W25148   3.661   8.447  17.347  0.0015 -0.2058  0.3779
 7625W        W25149   6.900  11.846  13.195  0.0199  0.0548 -0.0575
 7626W        W25150  10.861   7.381  14.916  0.1498  0.1673  0.0200
 7627W        W25151  10.690   4.983  13.054 -0.1707  0.1874  0.2484
 7628W        W25152   8.123  17.059   2.332 -0.0160  0.0790  0.2202
 7629W        W25153   0.934  16.260  14.675 -0.0852 -0.2839  0.0626
 7630W        W25154  15.190  16.762  15.601  0.2172  0.0194 -0.0899
 7631W        W25155  10.938  11.373  16.923 -0.0086  0.3718  0.2686
 7632W        W25156  15.912   3.244  12.678 -0.1114  0.2530 -0.0871
 7633W        W25157   2.208  14.539   0.053 -0.2833 -0.1422  0.1560
 7634W        W25158   5.112  14.444   4.207 -0.2482  0.0134 -0.2228
 7635W        W25159  15.553   4.590  16.224 -0.3267 -0.3019  0.0609
 7636W        W25160   4.061  10.326   4.167 -0.2611  0.1110 -0.3368
 7637W        W25161   2.856  14.756  16.063  0.1631 -0.3109 -0.2863
 7638W        W25162  14.926   0.766   5.996  0.2458  0.1556 -0.2395
 7639W        W25163   0.310  12.438   4.680  0.4004 -0.1058  0.0312
 7640W        W25164  14.320   1.505   1.907 -0.2086  0.2467  0.0568
 7641W        W25165   1.352   5.133  12.764 -0.0741 -0.1293 -0.0829
 7642W        W25166   4.343   8.713  14.796  0.2165  0.2007  0.2821
 7643W        W25167   7.122   1.453   4.553 -0.0041  0.3422 -0.2033
 7644W        W25168   6.750  16.798  15.988  0.0242  0.1639  0.2418
 7645W        W25169   7.833  12.923   2.457 -0.2372  0.0079  0.0622
 7646W        W25170   7.017   8.553  13.674  0.1369  0.0548  0.1063
 7647W        W25171   4.069  14.563   0.208 -0.1966 -0.0661 -0.1048
 7648W        W25172  13.388  15.778  13.951 -0.2457  0.0713  0.3755
 7649W        W25173   5.961   7.476  13.281 -0.1991  0.0654 -0.0421
 7650W        W25174   5.007  12.511  15.750 -0.2052  0.1472  0.0276
 7651W        W25175   2.804   1.138   2.679 -0.0350  0.0171 -0.3426
 7652W        W25176   2.351  15.037  15.370 -0.2982 -0.0691 -0.0060
 7653W        W25177   9.385  12.604   2.423 -0.3356  0.1863  0.0797
 7654W        W25178   2.712  12.404  16.321 -0.2559  0.0522  0.0817
 7655W        W25179   6.574   3.460   0.823  0.3192 -0.0086  0.1591
 7656W        W25180  10.958   3.810   5.705 -0.0221 -0.1628  0.4148
 7657W        W25181   8.984  15.488  12.998  0.0643 -0.0228  0.0146
 7658W        W25182  12.490   2.268   4.659 -0.3486 -0.2028 -0.0632
 7659W        W25183   8.826  15.980  17.579  0.1316  0.0862 -0.0350
 7660W        W25184  12.882  11.450   1.021 -0.2523 -0.1765 -0.0935
 7661W        W25185  13.344   0.185   3.493 -0.0867 -0.3222  0.1417
 7662W        W25186  10.035  12.772   5.263 -0.0736 -0.0081  0.0471
 7663W        W25187  14.901  15.610   5.353  0.1032 -0.1221 -0.2305
 7664W        W25188  16.508  14.207   1.395 -0.1986  0.1400  0.0911
 7665W        W25189   6.596   5.910  13.336 -0.0711 -0.0420 -0.2490
 7666W        W25190   9.864  12.322   1.249 -0.3885 -0.1135 -0.1988
 7667W        W25191  11.330   9.628  12.161  0.0475  0.1177 -0.0754
 7668W        W25192   2.911  15.037  16.908  0.2580 -0.4312  0.0217
 7669W        W25193   2.253   7.159  17.543 -0.1572 -0.3776  0.4967
 7670W        W25194   2.692  12.083   1.560  0.2383  0.0780  0.1654
 7671W        W25195   3.537   9.983  15.200  0.3908  0.0718  0.3271
 7672W        W25196  12.425  12.807  13.734 -0.0651 -0.1406  0.0389
 7673W        W25197   2.283   0.811   0.223  0.1992  0.3118 -0.2682
 7674W        W25198  16.314  15.032   0.610 -0.2101 -0.1290 -0.1555
 7675W        W25199  14.383   7.711   0.052 -0.2238 -0.1522  0.0815
 7676W        W25200   9.187   8.130  15.018 -0.3901 -0.1014 -0.0110
 7677W        W25201   9.964  13.159   6.081 -0.0093  0.0465  0.2624
 7678W        W25202  13.631  10.333  17.260  0.0006 -0.1929  0.1180
 7679W        W25203   4.899   7.567   5.111  0.3797 -0.0734 -0.1641
 7680W        W25204   1.399   0.377   6.175  0.0797  0.3637  0.0829
 7681W        W25205   4.273  16.658   2.094  0.0437  0.0887 -0.0182
 7682W        W25206   0.066  12.000  15.575 -0.1056 -0.1009  0.1346
 7683W        W25207   5.760  15.337  17.730 -0.2571 -0.0976  0.0032
 7684W        W25208   1.253   8.362  12.932 -0.1594  0.3951 -0.3379
 7685W        W25209   5.084   2.665   5.138 -0.0595 -0.1384  0.0822
 7686W        W25210   4.776   7.759   3.182  0.1112 -0.0274  0.0837
 7687W        W25211   8.080   6.859   0.256  0.0810 -0.2529  0.0215
 7688W        W25212  10.353   7.131  15.747  0.2155 -0.0689  0.1685
 7689W        W25213   1.498   8.952  15.690 -0.1098  0.0208 -0.0558
 7690W        W25214   6.685   0.900   4.789  0.1597 -0.0267 -0.2294
 7691W        W25215   3.922   6.363   1.554 -0.2231  0.2824  0.1393
 7692W        W25216   8.324   2.761   1.190 -0.2002 -0.0585 -0.1937
 7693W        W25217   9.195   0.554   5.107 -0.0948  0.2571 -0.2910
 7694W        W25218   9.515   0.053  16.458 -0.0618  0.0333  0.1017
 7695W        W25219  15.451  10.822  16.108  0.0627 -0.4788 -0.0161
 7696W        W25220   2.455   8.806   1.473  0.2609 -0.1135 -0.0896
 7697W        W25221   2.554  14.421  11.703  0.0036  0.1934 -0.2421
 7698W        W25222   2.355   7.995  17.144 -0.1038 -0.3088 -0.2619
 7699W        W25223   6.870   1.313   5.345  0.0883  0.2225 -0.1728
 7700W        W25224  12.409   1.094   0.938  0.0145  0.0559  0.0833
 7701W        W25225  12.344  11.388   2.479  0.0609 -0.0944  0.0605
 7702W        W25226   4.366   4.208  15.592  0.2660  0.1654 -0.0121
 7703W        W25227  12.635   4.438   1.761  0.2324  0.0242 -0.0693
 7704W        W25228   3.112  10.127  15.873  0.0407 -0.1894  0.1588
 7705W        W25229   6.902  16.759  14.071  0.0754 -0.3066 -0.0626
 7706W        W25230  10.291   9.828   2.518 -0.0883 -0.0392 -0.0613
 7707W        W25231   7.893  13.079  16.235 -0.0482 -0.1588  0.0317
 7708W        W25232  12.699   7.030  17.253 -0.0304 -0.0256  0.7577
 7709W        W25233  10.426  17.086  12.628 -0.0665  0.1554 -0.1588
 7710W        W25234  12.531   9.595  14.574  0.0684 -0.4137  0.0490
 7711W        W25235   8.089   4.936   2.705 -0.0554  0.0211 -0.1542
 7712W        W25236   6.405  14.895  15.599  0.2326  0.3756  0.0391
 7713W        W25237  13.914   5.338   1.883  0.3850 -0.0053 -0.0797
 7714W        W25238   1.233   4.366   3.868 -0.2942  0.2453  0.0611
 7715W        W25239  12.310   1.584   0.888  0.2457 -0.2648 -0.0766
 7716W        W25240   4.154  14.523   1.441 -0.2015  0.2299 -0.2293
 7717W        W25241   3.645  13.318  11.443 -0.1869  0.0442  0.2108
 7718W        W25242   2.478   8.152   0.383 -0.0388  0.1801  0.0337
 7719W        W25243  13.719   7.561   5.479  0.2691  0.0912 -0.2895
 7720W        W25244  11.749   9.010  17.593 -0.0865  0.1308  0.0970
 7721W        W25245  15.433  15.837   2.356 -0.2383  0.2095  0.0644
 7722W        W25246   9.505  10.854  14.824 -0.1995  0.0322 -0.0607
 7723W        W25247   5.228   6.140  13.458 -0.0428  0.0910  0.0357
 7724W        W25248   2.033   9.929  17.691 -0.1297 -0.2595 -0.2172
 7725W        W25249  12.970   3.521  12.785  0.2951 -0.3246  0.3995
 7726W        W25250  16.791  15.312   1.223  0.2050  0.4166  0.0670
 7727W        W25251   4.891   5.792  13.414 -0.1001 -0.1950  0.0103
 7728W        W25252   5.439   6.247   4.950  0.1379  0.0056  0.0366
 7729W        W25253  15.193   8.329   0.465  0.1483 -0.0612  0.1865
 7730W        W25254   6.649   3.256   0.385 -0.1412  0.1695 -0.3023
 7731W        W25255   5.875  11.496   4.458 -0.3245 -0.0565 -0.2141
 7732W        W25256   3.997  13.011   3.623  0.1457 -0.1886  0.3713
 7733W        W25257  11.393  12.533   4.647 -0.0071 -0.3198 -0.0219
 7734W        W25258  11.079  10.902  16.672 -0.0214 -0.1481 -0.0016
 7735W        W25259   5.953  16.934   4.725 -0.1005  0.1536 -0.0452
 7736W        W25260   0.857  10.864   4.735 -0.0976  0.0183  0.0497
 7737W        W25261   3.332   1.077   5.396  0.0785 -0.0013  0.1626
 7738W        W25262   0.021   0.565  14.742 -0.0604  0.1706  0.0668
 7739W        W25263  13.617  10.568   3.180  0.0911  0.0038  0.1756
 7740W        W25264  12.299  10.214  12.830  0.1110  0.0171 -0.1939
 7741W        W25265   7.339  11.043  17.164  0.1902  0.0243  0.1476
 7742W        W25266   6.583   6.873  12.292  0.1942 -0.0562  0.0517
 7743W        W25267   3.325   4.998   4.318  0.1632 -0.1345 -0.0290
 7744W        W25268  13.660   1.027   2.357 -0.1532 -0.0583 -0.2339
 7745W        W25269   4.064  11.053   1.657  0.2296  0.1867  0.0828
 7746W        W25270   0.247   1.478  13.041 -0.0822  0.3899 -0.3875
 7747W        W25271  11.652   0.037   4.301  0.0526  0.0097  0.1319
 7748W        W25272   3.163   1.077   3.622 -0.1288  0.0008  0.2590
 7749W        W25273   4.282   2.697   5.184  0.0536  0.1365 -0.0274
 7750W        W25274   9.967   8.980  13.773 -0.1413 -0.3299  0.0015
 7751W        W25275  14.247   7.643  13.382  0.0444 -0.0326 -0.0720
 7752W        W25276  12.598  16.868  13.376 -0.1991  0.2416 -0.2744
 7753W        W25277  15.720   8.539   5.365 -0.0863 -0.0670 -0.2836
 7754W        W25278  11.165  13.807  12.051  0.3269 -0.1424 -0.2234
 7755W        W25279  15.470   5.882   6.062 -0.1720 -0.0491  0.3896
 7756W        W25280   1.710   5.214   2.217  0.0745  0.1432 -0.0520
 7757W        W25281   9.792   0.337  12.180  0.1610  0.1327 -0.0322
 7758W        W25282  12.313  10.323   0.506 -0.0386 -0.0686 -0.1150
 7759W        W25283   5.382  16.945   5.164 -0.1830 -0.1340  0.2749
 7760W        W25284  15.494   9.005  13.737 -0.0087  0.2183 -0.0906
 7761W        W25285  16.516   0.836  16.936 -0.1159  0.0285 -0.0444
 7762W        W25286   4.656  14.677   4.347 -0.0601  0.1291 -0.0421
 7763W        W25287   9.682  16.461  17.080  0.0496  0.0553 -0.0321
 7764W        W25288   3.430   2.249  14.789 -0.0485  0.2010  0.0705
 7765W        W25289   8.139   2.272  12.656  0.2842 -0.0552  0.1660
 7766W        W25290  15.575  10.591  12.845 -0.1051  0.1914 -0.1322
 7767W        W25291   1.660   0.055   0.388  0.1286 -0.2321  0.0232
 7768W        W25292   2.586   2.597  13.475  0.1158  0.0109  0.0714
 7769W        W25293   0.421  10.417  15.972  0.0871  0.3702  0.1505
 7770W        W25294  14.684   9.080  12.146  0.1789 -0.1907  0.0012
 7771W        W25295   1.634  10.074   5.101  0.2190  0.1468  0.3435
 7772W        W25296   2.057  12.656   5.667 -0.1552  0.2768 -0.0947
 7773W        W25297  12.931  10.807  17.499 -0.1974  0.2081 -0.1577
 7774W        W25298  14.146  11.647  15.010 -0.3565  0.1967 -0.0092
 7775W        W25299   3.330   5.506   5.741 -0.2611 -0.2042 -0.1562
 7776W        W25300  12.535  10.401  16.387 -0.0974 -0.0655  0.0778
 7777W        W25301  16.348   5.267  14.205  0.0105  0.0751  0.2717
 7778W        W25302   1.409  11.388   2.955 -0.1119  0.0428 -0.0538
 7779W        W25303  17.013   7.293  13.047 -0.2875  0.1169  0.2965
 7780W        W25304  14.621   3.880  12.762 -0.0283  0.2184  0.1080
 7781W        W25305   1.914  16.439  16.442 -0.2748 -0.1073  0.0769
 7782W        W25306   4.117  10.854   4.076  0.0986 -0.0343  0.0078
 7783W        W25307   4.992  15.894  12.359  0.0503 -0.0443 -0.0209
 7784W        W25308   8.741  16.911  12.923 -0.1248  0.0120 -0.2238
 7785W        W25309  14.203   0.879   3.705  0.0115 -0.1524  0.0532
 7786W        W25310  15.259  13.771   4.688 -0.2532 -0.2275 -0.4078
 7787W        W25311  12.210   2.930  14.551  0.0834 -0.1254  0.3099
 7788W        W25312  10.223   8.598  16.806  0.2898 -0.1303 -0.1091
 7789W        W25313   5.418  15.346   4.777  0.2250 -0.1326  0.0724
 7790W        W25314   6.116  10.768  11.757 -0.1857 -0.1178  0.0118
 7791W        W25315   3.327   0.261   4.651 -0.0090 -0.2344  0.1762
 7792W        W25316   7.640  12.343  12.270 -0.0282 -0.0945 -0.3167
 7793W        W25317  11.101  13.537  16.504 -0.3812  0.3002 -0.3196
 7794W        W25318  13.264  14.171  16.870 -0.1625  0.1467  0.1041
 7795W        W25319   7.255   8.457  15.999  0.1604  0.4893  0.0706
 7796W        W25320  16.098   1.187  16.100  0.0700 -0.1626  0.2782
 7797W        W25321   1.286   9.084  13.652 -0.0867  0.1217 -0.3497
 7798W        W25322   4.393  16.099  15.165  0.0367 -0.2635  0.0428
 7799W        W25323  11.908   9.252  11.823 -0.1466 -0.0856  0.2152
 7800W        W25324  12.993  10.480  14.725 -0.0713 -0.1557 -0.2053
 7801W        W25325   7.632   5.138   5.153 -0.2648  0.1348  0.1871
 7802W        W25326  16.972   1.681   0.525 -0.1036  0.0856  0.2212
 7803W        W25327   8.506  13.718   2.311 -0.1146 -0.0264  0.1145
 7804W        W25328   2.792   2.794   4.607  0.0741  0.1485 -0.2185
 7805W        W25329   3.960   4.695  16.899  0.0493 -0.0617  0.0119
 7806W        W25330   3.111  16.187   4.448  0.1248  0.0153 -0.0053
 7807W        W25331   9.485   5.146   4.469  0.2208 -0.1233 -0.2641
 7808W        W25332  13.860   5.973   5.395  0.0174 -0.0239 -0.1066
 7809W        W25333  11.400  15.196  12.440 -0.0223 -0.2405  0.1595
 7810W        W25334  16.613   1.441   1.358  0.3812  0.1484 -0.0345
 7811W        W25335   0.104   1.914   3.922 -0.2068  0.0172 -0.2912
 7812W        W25336   0.052   0.163  13.514 -0.1551 -0.1192 -0.4494
 7813W        W25337   0.839   3.906   5.031 -0.0640  0.4029  0.2352
 7814W        W25338   0.714  16.790   3.749  0.0082  0.2386 -0.0045
 7815W        W25339  16.752   3.727   2.956 -0.1995  0.3080  0.0379
 7816W        W25340  10.594  10.674  16.334 -0.0361 -0.3446 -0.0532
 7817W        W25341   0.495   3.852   0.980 -0.2769  0.2095  0.3479
 7818W        W25342   2.864  10.641   5.821 -0.2860 -0.0816 -0.0179
 7819W        W25343   6.177   7.732   0.915 -0.0863  0.1576 -0.1349
 7820W        W25344   2.311  15.416  17.388  0.0473  0.2228 -0.0135
 7821W        W25345   4.826   4.115   1.933 -0.2313  0.0275  0.1553
 7822W        W25346  10.003  13.841  15.048  0.0327  0.3299  0.0978
 7823W        W25347   2.975   5.898   6.316  0.0220  0.0856 -0.1234
 7824W        W25348   7.183  16.067  12.462 -0.1007  0.2158 -0.1677
 7825W        W25349  13.726  14.641  12.297  0.2929  0.1198  0.0288
 7826W        W25350  12.959  11.844   0.132 -0.1730 -0.1551  0.0811
 7827W        W25351   2.039   0.673   1.034  0.0611 -0.1316  0.1578
 7828W        W25352   2.415  12.554  14.326  0.1640 -0.1785  0.1414
 7829W        W25353   4.092   3.483   6.565  0.1467 -0.3362  0.2411
 7830W        W25354   7.593   0.794   0.545 -0.2563  0.0085 -0.0975
 7831W        W25355   7.379  10.721  16.677 -0.2545 -0.1323  0.2521
 7832W        W25356  10.716  10.699   3.387 -0.1444  0.3951 -0.1610
 7833W        W25357   6.467   4.858   3.104  0.1578  0.1510 -0.2296
 7834W        W25358   4.451  11.293   2.397  0.0578  0.2302  0.1349
 7835W        W25359  10.176   4.648   0.578 -0.0087 -0.3147  0.1996
 7836W        W25360  14.497   8.111  16.078 -0.1308  0.1506 -0.0831
 7837W        W25361  12.688   2.361  15.696  0.2994  0.1319  0.1375
 7838W        W25362  14.714  13.884   3.480  0.0153  0.0614  0.1298
 7839W        W25363  16.940   1.806   2.274  0.0374  0.0638 -0.1572
 7840W        W25364   1.361  15.786  16.908 -0.3062  0.4009 -0.5313
 7841W        W25365   8.489  11.669   4.761 -0.0196 -0.2250  0.0914
 7842W        W25366   3.171   9.715  12.741  0.1258  0.3180  0.1023
 7843W        W25367  14.363   0.207  16.726 -0.0582  0.6217 -0.0303
 7844W        W25368   3.295  10.267   0.952  0.2382  0.0778  0.1280
 7845W        W25369   0.670   2.040   0.658  0.2866  0.1589  0.1003
 7846W        W25370  15.348   4.177  16.020 -0.1149 -0.1775  0.0918
 7847W        W25371   8.633   0.769  13.610  0.0979 -0.0543  0.0870
 7848W        W25372   2.708   6.392   1.249  0.1278  0.0844  0.0034
 7849W        W25373  17.000  14.420  15.615 -0.0625 -0.1663 -0.2576
 7850W        W25374  12.786  17.106  12.126  0.0067  0.3658  0.1333
 7851W        W25375  14.960   7.595  14.503 -0.0674 -0.1718  0.2703
 7852W        W25376  14.183   6.899   4.909 -0.1092  0.1322  0.1694
 7853W        W25377   2.249   2.998   2.850 -0.0117 -0.0551 -0.0709
 7854W        W25378  12.546  15.220  17.028  0.0269 -0.2111  0.1599
 7855W        W25379   5.757   5.104  17.266  0.0008  0.0437  0.0230
 7856W        W25380   3.762  16.428  13.298  0.2154  0.2855  0.0104
 7857W        W25381  12.001   4.641  15.426 -0.0492 -0.5605  0.4011
 7858W        W25382   2.868   4.445   5.429 -0.1158  0.0849  0.0496
 7859W        W25383  13.577   0.657   5.795  0.2526 -0.3261  0.0406
 7860W        W25384   3.658   5.888   2.359  0.1153 -0.0605  0.3651
 7861W        W25385  14.414   5.862   0.220  0.0236 -0.0524  0.1315
 7862W        W25386   2.746   1.251  14.487 -0.0396  0.2876 -0.2638
 7863W        W25387   0.220   4.967   5.306  0.2017 -0.1278 -0.1211
 7864W        W25388   9.153  17.019  12.538  0.2237 -0.1534  0.1789
 7865W        W25389   2.821   3.577   3.274 -0.4931  0.1769  0.0738
 7866W        W25390   4.059   9.619  12.818  0.0180  0.0431  0.1379
 7867W        W25391  12.179   5.153   3.985 -0.1471  0.0247  0.3666
 7868W        W25392   7.310  12.990   2.313  0.3204 -0.0529  0.2599
 7869W        W25393   9.455  10.589   4.631 -0.1145  0.0425  0.1524
 7870W        W25394  14.055   2.173  14.154  0.1359 -0.1544 -0.1532
 7871W        W25395   3.796   1.750   3.806  0.0326  0.1264  0.0830
 7872W        W25396   6.330   7.742  13.526  0.2308 -0.1712  0.1299
 7873W        W25397   2.859   9.660  17.380 -0.0342  0.3976 -0.0541
 7874W        W25398   1.077  13.737   3.679  0.1828 -0.0555  0.0611
 7875W        W25399  12.057   5.996   2.310  0.2398 -0.1329 -0.1075
 7876W        W25400  16.676   2.917  12.991  0.0207 -0.2537 -0.1175
 7877W        W25401   3.520   5.007  13.899  0.0425  0.1848  0.0237
 7878W        W25402   6.991   0.672  13.495 -0.3372  0.0773  0.1132
 7879W        W25403   4.088  13.686  12.645  0.0739 -0.0421  0.1126
 7880W        W25404  13.278  11.141   1.229  0.0848  0.0691 -0.2767
 7881W        W25405   0.822   6.344   4.655 -0.1574 -0.1385 -0.1996
 7882W        W25406   0.712   3.671   2.584  0.4568  0.3511 -0.1452
 7883W        W25407   5.261  12.176  13.801  0.3010  0.3035  0.1624
 7884W        W25408  13.304   8.271  13.926  0.0596  0.0611 -0.0377
 7885W        W25409   8.817  15.768   0.811  0.0871  0.0381 -0.3499
 7886W        W25410   4.451   5.888   0.192  0.0712  0.1059  0.0427
 7887W        W25411   9.531  10.786   1.685 -0.3765 -0.2975  0.0004
 7888W        W25412  14.390   1.958   5.418  0.0466 -0.0858  0.3487
 7889W        W25413  12.674  16.923  14.308 -0.1033  0.0880 -0.1785
 7890W        W25414   0.296   5.478   1.797 -0.0332  0.1335 -0.3618
 7891W        W25415  12.577   8.819   3.838  0.0415  0.1033 -0.0189
 7892W        W25416   8.129  11.814   1.109  0.0040  0.0576  0.0604
 7893W        W25417  16.251  10.120  16.404  0.1021 -0.0141  0.1939
 7894W        W25418   1.868   7.330   2.119  0.0717 -0.3058 -0.0614
 7895W        W25419   6.339   0.946  13.216  0.0068  0.0346  0.0932
 7896W        W25420  12.211  17.121   3.319 -0.2751 -0.1671  0.1206
 7897W        W25421   0.887   2.802   1.957  0.1725  0.0024  0.3607
 7898W        W25422   1.138   8.948   3.903 -0.2800  0.0816  0.0102
 7899W        W25423   1.583   5.836  14.462 -0.1550 -0.0075 -0.1010
 7900W        W25424   1.457   3.645  16.738  0.2150  0.2794 -0.1249
 7901W        W25425   9.381   7.421   4.846 -0.0627 -0.0987  0.2005
 7902W        W25426  11.214   0.253   3.438  0.0116  0.0775 -0.0341
 7903W        W25427  14.729   8.221   1.420 -0.0309  0.0814  0.2506
 7904W        W25428  10.402   4.242   5.147  0.0302  0.0880  0.1583
 7905W        W25429   6.342   6.979  16.347  0.2639  0.1635  0.0384
 7906W        W25430   8.179   8.713   2.139  0.3658 -0.0509 -0.0465
 7907W        W25431   6.744  13.538   0.148  0.0948  0.2980  0.1080
 7908W        W25432   8.423   8.091  11.660 -0.0514  0.2519  0.2282
 7909W        W25433   1.714  10.659  13.636  0.0841  0.1434  0.1439
 7910W        W25434   1.430  13.514  17.673 -0.0398  0.0865 -0.0620
 7911W        W25435  14.853   2.032   6.102 -0.1383  0.0340  0.0431
 7912W        W25436  16.290   3.006   1.305 -0.0961 -0.1990 -0.1994
 7913W        W25437   5.856   0.784   2.110  0.1537 -0.0440  0.2725
 7914W        W25438   1.916  10.070  13.277 -0.0313  0.2989  0.2398
 7915W        W25439  11.147   2.299   3.554 -0.3778  0.0459 -0.0695
 7916W        W25440  13.382   2.422   0.818 -0.2656  0.2218  0.1617
 7917W        W25441   8.409  15.898  15.995  0.1489  0.0076 -0.2214
 7918W        W25442  14.851  13.571  17.548  0.1612  0.0778  0.3261
 7919W        W25443   0.089  13.089   5.047  0.3627  0.2550 -0.1850
 7920W        W25444   9.494   1.742   4.499 -0.4118  0.2439 -0.2649
 7921W        W25445   1.741   3.488   1.804  0.0296 -0.0582 -0.0371
 7922W        W25446  13.660   6.116   3.747 -0.2488  0.0808 -0.1192
 7923W        W25447   9.962  14.432   3.363  0.2055 -0.0052  0.3217
 7924W        W25448   8.571   3.863   1.801  0.1272 -0.1922 -0.1046
 7925W        W25449   0.716  15.694  15.409  0.0514  0.1660  0.1216
 7926W        W25450  13.162  16.491   2.508 -0.1391 -0.0314  0.0836
 7927W        W25451  15.471  13.582  13.474 -0.0927 -0.1203 -0.1325
 7928W        W25452  12.033  11.400  14.937 -0.1413  0.1539 -0.2908
 7929W        W25453  11.964   4.956   4.641 -0.0048  0.0543  0.0367
 7930W        W25454   8.079  13.293   2.308  0.2105 -0.2823  0.1978
 7931W        W25455  14.676  10.712   1.731 -0.1366 -0.0111 -0.1142
 7932W        W25456  11.740   6.349  12.731 -0.3796  0.0107  0.1279
 7933W        W25457  10.099  10.731  15.753  0.2787 -0.3097  0.1847
 7934W        W25458   5.375   4.022  12.934  0.1741  0.1797  0.1479
 7935W        W25459   7.408   6.467  16.410 -0.0319 -0.0202 -0.0004
 7936W        W25460   9.612  15.275  11.993 -0.1734 -0.2206 -0.1036
 7937W        W25461   7.245   8.233   0.905  0.2717  0.1306  0.0153
 7938W        W25462   5.623  16.714  14.632  0.4285 -0.1187  0.2526
 7939W        W25463   9.793   3.278  15.719  0.0330  0.0051  0.3162
 7940W        W25464  12.155   1.979   4.374  0.0127 -0.0789 -0.0682
 7941W        W25465  13.279   5.057  16.401  0.1674  0.4272 -0.1187
 7942W        W25466  13.301  12.326   5.875  0.0707 -0.1069  0.1404
 7943W        W25467   5.578   8.788  16.279 -0.2627 -0.3987  0.1962
 7944W        W25468  15.169   8.992   5.706 -0.1765  0.1746  0.0260
 7945W        W25469  16.685  17.054   4.337 -0.3388 -0.0970  0.3300
 7946W        W25470   7.484   9.032   3.862  0.0006 -0.0138  0.0258
 7947W        W25471   9.258  10.681  16.216 -0.1598  0.2852 -0.1301
 7948W        W25472  17.136   8.744  13.547 -0.1796  0.1285  0.1172
 7949W        W25473   9.060  11.988   1.226 -0.3277 -0.0285 -0.1804
 7950W        W25474  14.315   0.678  12.170  0.1158 -0.0099  0.0333
 7951W        W25475   5.761   7.644   4.856 -0.1851 -0.0914 -0.2013
 7952W        W25476   3.215  17.045  15.677  0.1760  0.0318  0.1064
 7953W        W25477   0.010   4.910  14.573  0.0078 -0.3071  0.1704
 7954W        W25478  11.818  15.840  12.249 -0.0299 -0.0278 -0.1799
 7955W        W25479  10.700  15.682   0.758  0.3909 -0.0221  0.1647
 7956W        W25480   1.128   8.018  17.075 -0.2662  0.0386 -0.1134
 7957W        W25481  12.815   9.962  17.275  0.2490  0.2010 -0.2196
 7958W        W25482   6.749  11.713   3.848  0.1327  0.0528 -0.1902
 7959W        W25483   9.999  15.885   2.273 -0.2529  0.0101  0.1129
 7960W        W25484   7.270  12.534   4.424  0.0748 -0.1321  0.1281
 7961W        W25485   6.864   3.010   5.083 -0.0786 -0.0309  0.1659
 7962W        W25486   4.930   1.456   3.077 -0.0383  0.0094 -0.3796
 7963W        W25487  16.955  14.158   3.016 -0.2021 -0.0760 -0.0700
 7964W        W25488   8.289  12.469  13.004  0.2619 -0.1284  0.1406
 7965W        W25489   8.084   4.512   1.459  0.1124 -0.3195  0.0843
 7966W        W25490   0.415   9.463  13.215 -0.0177 -0.0163  0.1386
 7967W        W25491   2.423  15.979   1.268 -0.2185  0.1439 -0.0288
 7968W        W25492  13.263   4.169  15.094  0.0914 -0.2901  0.0637
 7969W        W25493   5.176   8.538   2.348 -0.2372  0.3319  0.1117
 7970W        W25494   1.456   5.519  13.765  0.0085 -0.0908 -0.0803
 7971W        W25495   0.047   0.077   3.645  0.0008 -0.1824 -0.1162
 7972W        W25496   0.407  14.848   3.328  0.0071  0.0198  0.0914
 7973W        W25497   3.967  10.651  13.439 -0.1041  0.1594 -0.1000
 7974W        W25498   9.123  15.429   3.670 -0.3351  0.1558  0.0808
 7975W        W25499   5.327  10.636  13.278  0.0849  0.3136  0.2907
 7976W        W25500  15.606  14.790  15.210  0.2204 -0.0829 -0.1212
 7977W        W25501  14.694  10.400   0.526 -0.0073 -0.0860 -0.0526
 7978W        W25502   5.467   7.543   3.877  0.0141  0.0104  0.2107
 7979W        W25503   0.495   8.451   3.739 -0.0095 -0.0349 -0.4449
 7980W        W25504   9.579  11.431   2.808  0.0814  0.0027 -0.2322
 7981W        W25505   5.207   5.391   3.246 -0.2263  0.1751  0.0256
 7982W        W25506  15.629   3.367  15.149  0.1243  0.1802  0.0624
 7983W        W25507   8.491  16.777   0.026 -0.0887 -0.1387 -0.1341
 7984W        W25508  15.092  12.119  17.576 -0.1335  0.2833  0.1669
 7985W        W25509  14.868  15.195   3.045 -0.1171  0.0359 -0.1443
 7986W        W25510   5.563   5.926   1.036  0.0535  0.0121  0.0947
 7987W        W25511   9.871  14.799  14.826  0.0643 -0.0021 -0.1497
 7988W        W25512  15.585  10.972   0.757 -0.0900 -0.1054  0.2171
 7989W        W25513   6.932  16.634   3.175  0.0613 -0.2078 -0.1057
 7990W        W25514  17.141   4.084  14.004  0.0213 -0.0783 -0.1613
 7991W        W25515  11.956  16.197  15.119  0.0648 -0.0911 -0.2109
 7992W        W25516  17.117   5.302  15.340 -0.1073 -0.4897 -0.0182
 7993W        W25517   2.692  13.889   0.801  0.2208  0.1261  0.0308
 7994W        W25518  13.044   3.107   0.439  0.0591  0.2154 -0.0819
 7995W        W25519   1.112   4.612  15.862  0.0102 -0.3812  0.3508
 7996W        W25520  16.874  11.940   4.457  0.2005  0.0326 -0.2765
 7997W        W25521  10.081  16.811   1.020 -0.2310 -0.2100 -0.2919
 7998W        W25522   3.249   1.656  13.041 -0.0952  0.2802  0.3025
 7999W        W25523   9.413  16.409   1.303  0.2483  0.0083 -0.1069
 8000W        W25524   1.380   7.508  17.606  0.1673  0.4968  0.0089
 8001W        W25525   9.930   1.564  12.874  0.0649 -0.0460 -0.2287
 8002W        W25526  12.290   3.540  14.514 -0.0098 -0.0643  0.1181
 8003W        W25527  10.017   0.579   3.580  0.3145  0.3586 -0.0619
 8004W        W25528   5.477   0.730  14.491  0.1614 -0.0725  0.0686
 8005W        W25529   0.892  15.285   1.220  0.1981  0.1027 -0.5062
 8006W        W25530  16.484  14.349   2.376  0.0704  0.0891  0.0064
 8007W        W25531   6.826  15.402   1.304  0.0324  0.0508  0.0004
 8008W        W25532  13.482   8.899   0.449 -0.1455  0.1531  0.0179
 8009W        W25533   6.032   3.498   2.302 -0.2516  0.0392  0.1423
 8010W        W25534  12.723   5.773  15.123 -0.0521  0.0163  0.2006
 8011W        W25535   6.644  15.952   6.219 -0.3027  0.0021 -0.0302
 8012W        W25536   1.181   0.194   0.229  0.2877  0.1051  0.2235
 8013W        W25537   1.688   4.158   0.686  0.2732  0.0016  0.1708
 8014W        W25538   9.892   1.989   4.760  0.0896 -0.0094  0.1868
 8015W        W25539   9.175  16.487   0.805  0.2221  0.2545  0.1041
 8016W        W25540  10.102  16.442  15.695  0.3254 -0.1298  0.1641
 8017W        W25541  13.954   8.073   1.071 -0.0419 -0.0897 -0.0056
 8018W        W25542  16.522   6.725   3.895 -0.0893 -0.1538 -0.2716
 8019W        W25543  12.038   9.123   3.358 -0.1700  0.3347  0.2195
 8020W        W25544   7.659   9.830   2.035  0.0823 -0.0873  0.3895
 8021W        W25545  13.238   3.887  16.479  0.0277 -0.0186  0.3245
 8022W        W25546   9.155   1.040  15.996  0.1606  0.2875  0.2964
 8023W        W25547   4.395   9.461   4.410  0.1574 -0.1813  0.1142
 8024W        W25548  12.118   7.437  12.497 -0.0683  0.0465  0.1079
 8025W        W25549  16.736  16.407   6.070 -0.0587  0.1819  0.0150
 8026W        W25550   9.907  15.112  15.287 -0.0325 -0.1903  0.1705
 8027W        W25551   2.115  15.723  14.312  0.2653 -0.2810  0.0167
 8028W        W25552   2.779   8.383  13.777 -0.2862  0.0514 -0.2842
 8029W        W25553  14.435  10.676   1.311  0.1727 -0.0266  0.0425
 8030W        W25554   2.692  15.940  14.988  0.2588  0.0167 -0.3039
 8031W        W25555  14.916   0.947  12.830  0.0310 -0.2288  0.1496
 8032W        W25556   2.670   3.071   4.186  0.0313 -0.0860  0.1898
 8033W        W25557   1.953  10.700   0.999  0.0003  0.1140 -0.1887
 8034W        W25558  11.782   5.440   4.184  0.2126  0.1039  0.4091
 8035W        W25559   5.939   8.244  12.641  0.0746  0.1713 -0.2737
 8036W        W25560  16.526   3.579   5.147  0.0471 -0.0399 -0.0547
 8037W        W25561  14.864   3.117  15.717 -0.0695 -0.1912  0.1968
 8038W        W25562  14.121   4.366  17.425  0.0115 -0.1529  0.1393
 8039W        W25563  13.409  13.728  15.802  0.2448  0.1578  0.1811
 8040W        W25564   4.407   2.658   4.358  0.1169 -0.1473  0.1310
 8041W        W25565  16.402   5.487   2.446  0.0068 -0.1554 -0.1910
 8042W        W25566   9.604   1.023  15.775 -0.3935 -0.1254  0.2058
 8043W        W25567   9.745  16.524   3.231 -0.2598  0.5918  0.1223
 8044W        W25568  10.243   1.706  15.364 -0.0356 -0.0504 -0.3616
 8045W        W25569   6.457  16.498  13.088  0.2470  0.2503 -0.0912
 8046W        W25570   5.316  15.214   1.768 -0.0169 -0.1833  0.0166
 8047W        W25571  16.756  10.103   2.924 -0.2005 -0.0730 -0.0971
 8048W        W25572   7.354   8.995  13.730 -0.2549  0.0993  0.2245
 8049W        W25573   2.715  15.774   2.212 -0.1917 -0.1692  0.0609
 8050W        W25574   7.253  10.706   3.001  0.1693  0.0795  0.0015
 8051W        W25575  10.754   0.748   5.724 -0.0338 -0.0781  0.3081
 8052W        W25576   1.702   7.051   4.043 -0.2003 -0.0609  0.2591
 8053W        W25577   5.242   6.612   4.012 -0.1588  0.1463  0.1506
 8054W        W25578  11.919   7.464   0.409  0.0719 -0.0152  0.1119
 8055W        W25579   5.756  12.286  12.294 -0.0507  0.0264 -0.2220
 8056W        W25580   3.921  13.155   2.800  0.0875 -0.1373  0.0472
 8057W        W25581  11.331   1.969   0.217  0.1063 -0.0837 -0.4617
 8058W        W25582   3.754   5.479   2.082  0.1879 -0.1284  0.0131
 8059W        W25583  13.146  16.118   2.829  0.2509  0.1003  0.1193
 8060W        W25584   6.533   6.641   4.242 -0.3352 -0.1144  0.2633
 8061W        W25585   5.213   2.402   4.736  0.1749  0.1963  0.0325
 8062W        W25586  11.028   3.231   3.287  0.1616  0.1993  0.1228
 8063W        W25587  13.056  14.508  15.123 -0.2540  0.0016  0.1801
 8064W        W25588  13.989  15.864  14.450 -0.0285  0.0380  0.0186
 8065W        W25589   3.711  16.942  16.152 -0.1426 -0.0483  0.5181
 8066W        W25590  11.468   8.268  16.634  0.0675  0.1103  0.1969
 8067W        W25591  15.622   4.717  13.165 -0.1463 -0.0156 -0.2128
 8068W        W25592  14.974   0.924  13.394  0.0845  0.0112  0.3569
 8069W        W25593   7.693   2.888  14.423  0.0321 -0.1405  0.1656
 8070W        W25594  16.226  15.108   3.231 -0.1170 -0.0194 -0.0798
 8071W        W25595  13.545   6.386  17.120 -0.1147  0.3529  0.1373
 8072W        W25596   4.773  16.117   2.544 -0.0957 -0.0440  0.0392
 8073W        W25597   9.407   3.853  17.153  0.1507 -0.0558 -0.0059
 8074W        W25598  10.461   0.420   3.390  0.0180  0.0127  0.0348
 8075W        W25599   3.674  12.043  14.493 -0.1645  0.0426 -0.1119
 8076W        W25600   9.149  10.241  16.010 -0.2029  0.1379 -0.0575
 8077W        W25601   0.078  15.472  13.648  0.0387 -0.0992 -0.0348
 8078W        W25602   1.975   0.181  14.638  0.1481  0.2429  0.1751
 8079W        W25603   3.450  16.635  16.729  0.2144  0.1344  0.0521
 8080W        W25604   0.732  10.529   1.490 -0.2367  0.3130 -0.0627
 8081W        W25605   5.494   9.541  13.209  0.1957  0.2172 -0.2733
 8082W        W25606   8.609  13.168   0.745 -0.2330 -0.2374  0.0121
 8083W        W25607   3.158   2.126  16.804 -0.1392  0.0281  0.4460
 8084W        W25608  13.821  13.386   0.099  0.2439  0.0880  0.2188
 8085W        W25609  14.776   1.341   1.631 -0.3030 -0.1414 -0.0068
 8086W        W25610   5.138  15.888   5.234  0.0861  0.1900  0.2105
 8087W        W25611  11.497   0.602  15.671 -0.1047  0.2183  0.1879
 8088W        W25612  12.972  15.742  14.610 -0.0891  0.0442  0.1502
 8089W        W25613   7.014  13.113  15.049  0.2305  0.0496 -0.0972
 8090W        W25614  10.217  13.078   2.318  0.2733 -0.1294  0.0064
 8091W        W25615   3.743   6.073  15.612 -0.2748 -0.2681  0.3199
 8092W        W25616  12.103  16.894   5.203  0.0047  0.0224 -0.0321
 8093W        W25617   2.099   6.612   5.003  0.2292 -0.0404  0.0809
 8094W        W25618  17.096  11.489  16.076 -0.3478  0.3970  0.2288
 8095W        W25619   4.791  12.461   1.002 -0.0267 -0.5078  0.0084
 8096W        W25620  13.062  15.324  13.706  0.1188 -0.0294 -0.3777
 8097W        W25621  13.681   6.876  17.056  0.0430  0.1127  0.2147
 8098W        W25622  11.691   9.459  13.711 -0.1977 -0.2620 -0.1715
 8099W        W25623  14.846  12.570  12.606  0.3013  0.1238 -0.0846
 8100W        W25624   6.365  14.405   5.384  0.1217 -0.3665 -0.0650
 8101W        W25625  15.687  11.670  13.390 -0.0589  0.0209 -0.0283
 8102W        W25626   5.636   7.075   3.153  0.0122  0.0196 -0.0666
 8103W        W25627   0.569  16.973   5.907  0.1487 -0.0107  0.0634
 8104W        W25628  14.258  10.847  17.276 -0.0090 -0.1572 -0.1195
 8105W        W25629   0.901   6.906  12.570  0.1267 -0.1412  0.0118
 8106W        W25630   1.661   1.533   1.442  0.0689 -0.0520  0.0054
 8107W        W25631   1.109  10.131  12.574  0.1874  0.3457 -0.0611
 8108W        W25632   3.591  11.864   2.995 -0.2080 -0.0149 -0.0922
 8109W        W25633  15.250   6.452  17.690 -0.2295  0.1120  0.1297
 8110W        W25634  12.136  15.962  13.351 -0.0622 -0.2851 -0.0209
 8111W        W25635  17.032  15.015  16.426  0.0638  0.1741 -0.0673
 8112W        W25636   7.419  16.390  12.784 -0.1281 -0.0142  0.0595
 8113W        W25637   1.204  14.649   1.705  0.0831 -0.0191  0.0124
 8114W        W25638   1.620  16.731   5.270  0.0147  0.4246 -0.1558
 8115W        W25639   9.925   5.338  14.077 -0.0984  0.2356  0.2112
 8116W        W25640  17.065   9.049  14.860 -0.0069 -0.1702  0.0147
 8117W        W25641  11.982  13.221  11.143  0.1115  0.0767 -0.0256
 8118W        W25642  10.604   7.919  15.619 -0.2422 -0.3032  0.2785
 8119W        W25643   5.888  14.030   5.034 -0.0473 -0.3476  0.2490
 8120W        W25644  13.638   4.961  12.036 -0.0260 -0.2039  0.0274
 8121W        W25645   4.782  14.229   4.660 -0.0208  0.0353 -0.3868
 8122W        W25646   0.924   3.164  13.294  0.2419 -0.1716 -0.0737
 8123W        W25647  14.104   5.124  16.477 -0.1943  0.0868 -0.0015
 8124W        W25648  12.724   5.023   4.926 -0.3293  0.1877 -0.1659
 8125W        W25649   5.113   4.013  13.362  0.1893 -0.1239 -0.2624
 8126W        W25650   7.237   0.568  16.976 -0.0755 -0.0023 -0.1214
 8127W        W25651   2.839   5.548   1.607 -0.1009  0.0227  0.4631
 8128W        W25652   7.883   1.582  14.653  0.1520 -0.1932  0.2689
 8129W        W25653  13.454   6.782  17.511  0.1363  0.1773  0.0482
 8130W        W25654  15.799   3.500   4.129  0.1113  0.2203  0.1220
 8131W        W25655   6.119  16.429   1.581 -0.2106  0.1801  0.0664
 8132W        W25656  16.715   0.008  14.005 -0.4405  0.0931 -0.1448
 8133W        W25657  16.151  11.627  15.135 -0.1990 -0.3225  0.2290
 8134W        W25658   4.962   0.518  13.844  0.2576  0.1269 -0.1111
 8135W        W25659  11.788   3.785   1.898  0.1629 -0.2129 -0.2298
 8136W        W25660  12.104   4.169  13.261 -0.0191  0.1725  0.1056
 8137W        W25661   5.586   2.670   4.994  0.1754 -0.1346 -0.1184
 8138W        W25662   2.948   1.457   3.095 -0.2335 -0.0655 -0.0959
 8139W        W25663  12.939  12.077  15.368 -0.0804  0.4925 -0.3083
 8140W        W25664   0.801  12.761   3.984 -0.1380 -0.2203  0.2108
 8141W        W25665  13.647   3.080   2.927 -0.0126 -0.2927  0.1415
 8142W        W25666  16.596   9.023   2.620 -0.2122  0.0246 -0.0637
 8143W        W25667   7.239  11.279  12.801 -0.1562  0.0550 -0.3088
 8144W        W25668   5.814   8.978   3.064 -0.0490  0.0387  0.0161
 8145W        W25669   7.709  16.099  15.646  0.2169  0.2701 -0.3246
 8146W        W25670  10.075   3.675  16.629  0.0353 -0.0205  0.3891
 8147W        W25671   5.208   1.887  15.262 -0.4021  0.0389 -0.0679
 8148W        W25672   2.222  16.729  16.859  0.2594 -0.0649 -0.0954
 8149W        W25673   1.525  16.256   0.363 -0.0045  0.1922  0.1721
 8150W        W25674  11.923   5.958  14.558 -0.3928 -0.2688 -0.1318
 8151W        W25675  16.292   2.983  12.436  0.1704 -0.2093  0.1027
 8152W        W25676   0.652  14.378  13.099 -0.0121 -0.2110  0.0553
 8153W        W25677   0.184  12.689  17.449 -0.2250 -0.1398  0.0160
 8154W        W25678   1.974  13.999   5.257 -0.0268  0.0290  0.0278
 8155W        W25679   5.263  10.464  12.207  0.1855 -0.0573  0.3534
 8156W        W25680   8.876   8.541   2.603  0.0209  0.0705  0.1346
 8157W        W25681  15.010   2.488  14.495 -0.3859 -0.1906 -0.1292
 8158W        W25682  10.227   2.618  17.654  0.0564  0.0819  0.0807
 8159W        W25683   6.239  14.887  12.346  0.2110 -0.1344 -0.1674
 8160W        W25684  16.720   3.981  15.645 -0.2701  0.0171 -0.0285
 8161W        W25685   6.103   7.090  12.949  0.0944 -0.0853  0.2699
 8162W        W25686  11.071  16.932   1.074 -0.1128 -0.2630 -0.0692
 8163W        W25687   6.182   2.273  16.060 -0.1662 -0.0194  0.0963
 8164W        W25688   5.977   0.556   0.600 -0.0455  0.1043  0.1023
 8165W        W25689  11.892   7.705  14.798  0.2246  0.1230 -0.0069
 8166W        W25690  10.061  14.877   4.227 -0.1896 -0.3624 -0.3089
 8167W        W25691   1.176   0.043   3.457  0.0454  0.1244  0.3090
 8168W        W25692  12.564  14.409   2.149 -0.1211  0.0220  0.0197
 8169W        W25693   6.877   3.746  13.411 -0.3178 -0.1379 -0.0644
 8170W        W25694  13.843   4.707  14.639 -0.0176  0.1875 -0.0460
 8171W        W25695   1.928  16.749  13.420  0.0365 -0.0322  0.2530
 8172W        W25696   4.800   4.280   4.057 -0.2605  0.1178  0.0692
 8173W        W25697   5.730  12.132  14.001 -0.1147 -0.1762  0.3764
 8174W        W25698   4.893   4.740  17.684 -0.1032 -0.3572  0.0545
 8175W        W25699  14.398  15.461   0.070  0.0087 -0.0563 -0.1212
 8176W        W25700  14.412  15.913   4.716 -0.1601 -0.1706  0.1275
 8177W        W25701  15.341   9.072  15.052  0.1009  0.2250  0.1165
 8178W        W25702   7.841   1.926  17.029 -0.1004  0.2972  0.1411
 8179W        W25703   5.775   7.163   3.693  0.1035  0.0208 -0.5682
 8180W        W25704  13.092  11.063  12.813 -0.1426  0.1404 -0.0147
 8181W        W25705   5.139   4.510   2.694 -0.1017  0.2306  0.0449
 8182W        W25706   5.328  15.179  14.563 -0.5113 -0.1829 -0.2702
 8183W        W25707  13.206  12.708  17.265 -0.1710 -0.0335 -0.2101
 8184W        W25708  10.887   4.543  12.863  0.2956 -0.1056 -0.5086
 8185W        W25709   7.879  11.648   2.298  0.2073 -0.3717 -0.2215
 8186W        W25710  16.361  11.089  16.211 -0.3898  0.0576 -0.0512
 8187W        W25711   1.322  15.662   3.166 -0.2143  0.2037 -0.0337
 8188W        W25712  12.741  15.172  16.435 -0.2605  0.1580  0.0889
 8189W        W25713   7.400  11.423  14.001  0.3263  0.0037 -0.2207
 8190W        W25714   8.696   6.401   0.120  0.0699  0.2068 -0.0604
 8191W        W25715  10.869  17.138   0.578  0.0726 -0.0220 -0.0734
 8192W        W25716   9.479   0.288   0.518  0.4904  0.2629 -0.2270
 8193W        W25717  11.324   8.208   5.247 -0.0280  0.0931 -0.2433
 8194W        W25718  15.659   5.213  13.564  0.0375 -0.1814  0.0248
 8195W        W25719  17.087   5.397   5.256 -0.0308  0.1082  0.0268
 8196W        W25720   9.148   1.378   1.097 -0.0514  0.0205 -0.0096
 8197W        W25721   7.202  16.689  16.731 -0.0307  0.2501 -0.0846
 8198W        W25722   4.394  16.244  15.751 -0.1772 -0.1492  0.0942
 8199W        W25723  15.816   1.778  13.638 -0.1790 -0.3619  0.0270
 8200W        W25724   6.100   2.396   2.435  0.4652 -0.1413  0.2282
 8201W        W25725   6.205   3.713   1.278 -0.2230  0.3563 -0.2821
 8202W        W25726  15.385   4.980   2.607 -0.1110  0.0637 -0.2470
 8203W        W25727   0.168   8.865   3.539  0.0313  0.0790 -0.0492
 8204W        W25728   6.871   8.933   2.209  0.4439 -0.1456  0.0897
 8205W        W25729  12.445   7.517   2.000 -0.2504 -0.0685 -0.0002
 8206W        W25730  15.839  12.054  14.351 -0.0812 -0.0401  0.0181
 8207W        W25731  12.244   7.810   3.926  0.1623 -0.0365  0.0184
 8208W        W25732  15.844  12.728  13.082  0.1721 -0.1744 -0.1320
 8209W        W25733   2.316   2.379   0.004  0.1349 -0.2178  0.2031
 8210W        W25734   2.412  13.441  14.346  0.0939 -0.0207 -0.0325
 8211W        W25735  10.767   6.373  16.157  0.1167 -0.3152 -0.1850
 8212W        W25736  10.079  12.510  17.584  0.0981  0.0065  0.1829
 8213W        W25737  16.737  16.205   4.709 -0.0441 -0.0300 -0.0501
 8214W        W25738   1.637   1.737  14.859  0.1122  0.0748  0.1379
 8215W        W25739   4.028   4.499   0.956 -0.0738 -0.3239 -0.1021
 8216W        W25740  13.394   7.175  14.246  0.0351 -0.1163 -0.0608
 8217W        W25741   4.673  15.811  16.452 -0.0725  0.1316  0.3570
 8218W        W25742  11.864  10.346   1.546 -0.0601  0.0563 -0.0908
 8219W        W25743  13.602  17.108   2.124 -0.0928  0.1895  0.2648
 8220W        W25744  11.188   3.598   5.257  0.1099 -0.0218 -0.0856
 8221W        W25745   7.082   2.694   6.052 -0.0490  0.0583 -0.2915
 8222W        W25746   1.172  10.535  13.563  0.1329  0.1701 -0.1927
 8223W        W25747  17.101  12.947   1.077  0.2050 -0.3054 -0.2125
 8224W        W25748   9.850  14.529  13.602 -0.1325  0.0545  0.1303
 8225W        W25749  14.866   3.693   4.906  0.0171 -0.1837 -0.0154
 8226W        W25750   7.232   5.914   2.665 -0.1394  0.2036  0.2710
 8227W        W25751   7.449  15.478   0.545 -0.3584  0.1749 -0.0411
 8228W        W25752  12.166   2.347   1.836  0.0964 -0.0460  0.0114
 8229W        W25753   9.163   9.098   5.566 -0.0552  0.1278 -0.1906
 8230W        W25754   0.369   6.990  14.175  0.0373 -0.0385 -0.3865
 8231W        W25755   5.545  11.724  12.807 -0.1051 -0.0422 -0.0308
 8232W        W25756   3.301  13.957   1.925  0.0457  0.0328 -0.1194
 8233W        W25757   8.780   6.609  17.382  0.1996  0.0172  0.1313
 8234W        W25758   4.808  13.750   1.708 -0.2828 -0.2339 -0.1013
 8235W        W25759   7.942  13.656  15.067 -0.3966 -0.0303 -0.2125
 8236W        W25760   6.452  10.205  13.788 -0.1660 -0.0177  0.2171
 8237W        W25761  14.304   8.732  12.012  0.2089  0.0798  0.2345
 8238W        W25762  16.259  11.196  14.074  0.0988  0.1820 -0.1249
 8239W        W25763   5.584   5.860  13.726 -0.2548 -0.0765 -0.0266
 8240W        W25764   0.737  10.772  17.594  0.1728  0.0185  0.1862
 8241W        W25765   5.368   4.439  13.250  0.2964 -0.1302  0.1933
 8242W        W25766  13.499  11.477   5.236  0.2360 -0.0438 -0.1581
 8243W        W25767  11.772   1.158   4.298  0.2193 -0.0538  0.3247
 8244W        W25768   6.873  12.377   0.912  0.1088 -0.3964  0.0554
 8245W        W25769   4.893   6.941   0.142  0.2608 -0.1790  0.1758
 8246W        W25770  11.187   3.524  16.489  0.0417  0.3821 -0.2319
 8247W        W25771   7.705   6.745  13.905  0.2414  0.1222 -0.4687
 8248W        W25772   5.635   6.628   5.193 -0.1615 -0.0352  0.0220
 8249W        W25773   2.379   3.456   2.573  0.1587 -0.0474 -0.0054
 8250W        W25774  11.743  11.985  17.049  0.3535  0.1298 -0.4003
 8251W        W25775   2.513  13.906   2.298  0.4348 -0.1439  0.2098
 8252W        W25776  14.277   2.156  16.623 -0.4105 -0.0784  0.2037
 8253W        W25777  13.734   7.012   3.737  0.0531 -0.1838  0.2960
 8254W        W25778   4.820   9.117   4.036 -0.0286  0.1332 -0.2175
 8255W        W25779  16.194   4.277  14.212  0.0430  0.0650  0.3371
 8256W        W25780   9.241   9.607   4.437 -0.1401 -0.1195 -0.2067
 8257W        W25781   4.863  16.802   4.936 -0.3348  0.2404  0.0866
 8258W        W25782   2.211   0.692  17.065 -0.0986  0.2732  0.2811
 8259W        W25783  16.464  13.859  12.689 -0.6542  0.0066 -0.1870
 8260W        W25784  12.944   6.157   0.521 -0.1923  0.0044 -0.2664
 8261W        W25785  16.916  17.038   1.134 -0.0598  0.1159  0.2666
 8262W        W25786   1.472   0.990  14.779 -0.0094 -0.2612 -0.0373
 8263W        W25787   7.664   4.361   0.578  0.0299  0.1843  0.2804
 8264W        W25788   9.190   3.513   4.359 -0.0564 -0.1223  0.0874
 8265W        W25789  12.242   1.212   3.358  0.1928  0.0105 -0.2058
 8266W        W25790   6.916   8.636  17.233 -0.1378 -0.3574 -0.0486
 8267W        W25791   3.106  11.987   0.757  0.1167 -0.0251  0.0639
 8268W        W25792   5.827  14.565  16.822  0.2822 -0.4237 -0.2263
 8269W        W25793  10.990   9.133  14.851 -0.0677 -0.0902  0.1869
 8270W        W25794  15.332   7.192  13.806 -0.2834 -0.2555  0.0243
 8271W        W25795  14.046   7.178   0.180 -0.0027  0.0182  0.0295
 8272W        W25796   3.317   7.866  13.834  0.0120  0.0485  0.0167
 8273W        W25797   0.513   4.027  13.175 -0.1333  0.2933  0.0767
 8274W        W25798   9.110  15.693  13.778 -0.0501  0.0007 -0.0391
 8275W        W25799  10.751  11.051  14.929  0.1739 -0.1820 -0.2973
 8276W        W25800  10.738   0.315  14.427 -0.0514 -0.0256  0.1313
 8277W        W25801   4.194   5.441   5.325  0.2820 -0.2744  0.2673
 8278W        W25802   7.425   3.123  16.943 -0.0085  0.0834  0.0699
 8279W        W25803   1.995   7.696  15.512  0.1170 -0.2462 -0.0994
 8280W        W25804   7.116   8.346  16.889 -0.0120  0.2804  0.2395
 8281W        W25805  12.471   8.880   1.771 -0.1152  0.5005  0.0257
 8282W        W25806  10.680   3.933   0.840 -0.1139 -0.1150  0.2284
 8283W        W25807   4.680  15.621   2.700 -0.1830 -0.0648 -0.0137
 8284W        W25808  16.433  16.601  15.078  0.0158  0.2076  0.0831
 8285W        W25809  16.703  12.713   2.069 -0.0840  0.1219  0.1702
 8286W        W25810   8.319  14.761  12.399  0.2471 -0.1995  0.2491
 8287W        W25811   3.181  11.532  14.147 -0.1008 -0.0039  0.1103
 8288W        W25812   2.850   7.532   4.908 -0.0813 -0.0636 -0.0970
 8289W        W25813  13.638   3.074   4.672  0.2150 -0.4406 -0.2389
 8290W        W25814   5.740  16.482   5.136  0.3338  0.0546 -0.2130
 8291W        W25815   5.046  10.183   0.195  0.0913 -0.3290 -0.2101
 8292W        W25816  14.195   9.799   5.512 -0.1887  0.2064  0.3190
 8293W        W25817  13.974   7.009  12.464  0.0937 -0.0440 -0.0828
 8294W        W25818  14.368  16.257   6.212 -0.2576  0.0609  0.1261
 8295W        W25819  10.610  16.517  12.887  0.0713  0.1776  0.2011
 8296W        W25820   3.283   9.950   1.303  0.0455  0.0853  0.0426
 8297W        W25821   3.530  10.116   2.226  0.1825  0.2445 -0.1208
 8298W        W25822   9.093  10.429   5.074 -0.1215  0.2595  0.2668
 8299W        W25823   5.622  11.214  12.242 -0.0097 -0.1829 -0.1638
 8300W        W25824  15.578   4.166   1.393  0.2267  0.3548 -0.1433
 8301W        W25825  13.054   3.088  15.104 -0.0307  0.1693 -0.1171
 8302W        W25826  16.141   6.084   3.226 -0.0370  0.2056 -0.2233
 8303W        W25827  15.074  15.149  13.282  0.0428 -0.3678 -0.0856
 8304W        W25828  15.917  11.312   4.220  0.1082  0.1529 -0.1747
 8305W        W25829   8.831  13.118   5.154  0.0972 -0.2216  0.1621
 8306W        W25830  14.873  12.395   0.212  0.2134  0.0003  0.0732
 8307W        W25831  13.614   5.442   3.697 -0.2839  0.2776  0.0932
 8308W        W25832   5.671   1.092  13.999  0.2730 -0.5781 -0.0939
 8309W        W25833   6.590  16.473   2.865 -0.1558  0.0454  0.0588
 8310W        W25834   4.542   9.704  14.009  0.0549 -0.0087 -0.1527
 8311W        W25835   9.727  13.634  13.696  0.2768 -0.1906  0.1739
 8312W        W25836   1.000  12.163  16.992 -0.2237  0.0987 -0.0874
 8313W        W25837   7.695  15.762  13.478  0.1315 -0.0251  0.0138
 8314W        W25838   3.095  10.632   4.246 -0.1833 -0.2305  0.3115
 8315W        W25839  16.465  11.558  13.006 -0.0077 -0.1653 -0.3078
 8316W        W25840   2.473   4.770  17.414  0.0552 -0.0975  0.0595
 8317W        W25841   0.300  14.378   2.227 -0.1173 -0.0201  0.0819
 8318W        W25842   9.143   4.775   5.307 -0.1086 -0.0549  0.0871
 8319W        W25843   2.314  13.850  14.021  0.0644  0.3935 -0.0637
 8320W        W25844  10.258   1.290   5.296  0.0766  0.2743  0.2219
 8321W        W25845   0.691   8.578  16.973  0.0305  0.2138 -0.0230
 8322W        W25846  13.022  15.105  15.194  0.2636  0.2453 -0.0006
 8323W        W25847  11.828  12.665   6.349 -0.0386  0.3561 -0.1831
 8324W        W25848   0.457   8.497  12.761  0.0191 -0.0692  0.2748
 8325W        W25849  15.206   8.949   1.266 -0.0679  0.2099 -0.0218
 8326W        W25850   6.791   8.073  12.911  0.2008 -0.1699  0.1329
 8327W        W25851  13.515  16.332  15.692  0.1740 -0.1633 -0.0758
 8328W        W25852   6.481  10.717  12.987  0.3036  0.0459 -0.1682
 8329W        W25853  13.409   2.214  17.036  0.2501  0.0951 -0.1228
 8330W        W25854   2.351   7.959   1.838 -0.0912  0.0780 -0.0305
 8331W        W25855  13.428   4.449  13.732 -0.6652  0.0016 -0.0452
 8332W        W25856   8.307   1.066   3.354 -0.1858  0.2147 -0.1725
 8333W        W25857   9.205  10.146  12.364 -0.0073  0.1908 -0.1802
 8334W        W25858   9.710   8.658  14.765 -0.1707 -0.2428  0.1497
 8335W        W25859  11.372  15.591   1.875  0.0692  0.0680  0.3029
 8336W        W25860  14.192   1.332   3.532  0.3376 -0.1218 -0.0696
 8337W        W25861  12.076  16.436   2.688  0.2562 -0.3167  0.2225
 8338W        W25862  10.565  10.898  13.975  0.0859 -0.0911  0.0663
 8339W        W25863  14.672  11.242  17.197  0.0032 -0.1881 -0.3548
 8340W        W25864   8.996  13.295  15.009 -0.0677 -0.0606  0.2920
 8341W        W25865  12.848  12.347  17.307  0.2264  0.1685 -0.0578
 8342W        W25866  15.978   7.242   5.601 -0.0296 -0.0070 -0.0282
 8343W        W25867   1.601  13.535  13.111  0.0133 -0.1263  0.2350
 8344W        W25868  13.623  13.279  12.683  0.2109  0.4882 -0.0414
 8345W        W25869   2.423   1.212   5.394  0.1255 -0.0193 -0.0152
 8346W        W25870  12.410  13.714   0.790 -0.0335  0.0107 -0.0645
 8347W        W25871  12.498  17.043   0.343 -0.1375  0.2833  0.1206
 8348W        W25872   5.285   0.150   4.677 -0.2276 -0.0414  0.3139
 8349W        W25873  13.565   6.963   0.657  0.0304  0.0128 -0.2921
 8350W        W25874   7.941   6.718  16.333  0.0406  0.4111  0.0996
 8351W        W25875   4.283  15.332  15.521  0.1493 -0.0983  0.0357
 8352W        W25876  14.620   4.162   4.233 -0.1708 -0.0495  0.4208
 8353W        W25877   5.769   2.435  12.737 -0.1619 -0.0456  0.0104
 8354W        W25878  10.548   8.442  14.382 -0.2133 -0.0423  0.0770
 8355W        W25879   9.880  15.942  12.483 -0.3688  0.1060  0.1881
 8356W        W25880   3.298   1.464  15.916 -0.0588  0.2371  0.3907
 8357W        W25881   4.675   9.918   1.347  0.2292  0.0155 -0.3321
 8358W        W25882   3.720   9.509  15.308  0.2166  0.1637 -0.1058
 8359W        W25883   7.230  14.292   2.702 -0.0183 -0.0900  0.0761
 8360W        W25884   2.840   1.410   2.250 -0.1271  0.0883 -0.1029
 8361W        W25885  13.778   8.855  12.000 -0.0809 -0.0502 -0.2055
 8362W        W25886   2.710  12.095   4.594  0.0388  0.3064 -0.1044
 8363W        W25887  14.810   5.612   4.294  0.2482 -0.0077  0.0664
 8364W        W25888   8.051   5.782   1.722 -0.2168  0.1503 -0.0425
 8365W        W25889  13.055   5.200  15.879  0.0741 -0.0045 -0.1813
 8366W        W25890  11.148   5.306  14.635  0.0235  0.0981 -0.0176
 8367W        W25891  15.851  16.355  14.419  0.0695 -0.1298 -0.1778
 8368W        W25892   5.743   8.640   1.722 -0.0067 -0.0921 -0.3448
 8369W        W25893  13.666   1.935  12.782 -0.1740 -0.3341 -0.1718
 8370W        W25894  14.962   0.988   5.483  0.0805 -0.1078 -0.0818
 8371W        W25895  14.623   5.005   2.491 -0.1795 -0.2201  0.4315
 8372W        W25896  12.752   9.710  13.589  0.0484 -0.0556  0.1173
 8373W        W25897  11.659   9.834   0.175  0.2651 -0.0678  0.1036
 8374W        W25898  10.463   9.345  13.187  0.1077  0.1635  0.0653
 8375W        W25899  10.392   2.931  12.415  0.0962 -0.0859  0.1422
 8376W        W25900   2.485   2.380  17.271 -0.0694 -0.1444  0.0270
 8377W        W25901  10.042  16.646   1.523 -0.0469 -0.2157 -0.1392
 8378W        W25902   6.728  11.265   2.493  0.3214  0.4210 -0.1561
 8379W        W25903  14.174   4.389   6.604 -0.0271  0.0641 -0.1654
 8380W        W25904  11.560   8.156   3.130 -0.1903 -0.1511  0.1252
 8381W        W25905  11.272  16.937  12.111  0.1116 -0.2086 -0.2940
 8382W        W25906   0.045   4.660  16.598  0.1295 -0.0223 -0.0664
 8383W        W25907  16.493  12.075   5.024 -0.1713  0.1331  0.1989
 8384W        W25908  10.622  15.608   0.262  0.2403 -0.2470 -0.0763
 8385W        W25909   0.486   4.200  13.631 -0.0170 -0.0265  0.1033
 8386W        W25910  14.046   7.592  14.961  0.1195 -0.0029 -0.1637
 8387W        W25911  10.495  16.135   3.119  0.0064  0.3331 -0.1701
 8388W        W25912  14.456  16.590  13.949  0.2172  0.1427  0.1426
 8389W        W25913   7.713  11.529   1.056  0.1142 -0.2771  0.0398
 8390W        W25914   8.342  10.541  15.774  0.0740 -0.2437 -0.0778
 8391W        W25915  11.613  13.284   4.458 -0.0066 -0.1088 -0.2100
 8392W        W25916   7.803  13.476  13.743 -0.0746 -0.0559  0.1847
 8393W        W25917   9.396   4.910  17.416  0.0014 -0.0073 -0.3318
 8394W        W25918   8.869   3.352   0.737  0.0398  0.0781 -0.1265
 8395W        W25919   7.699  17.006  15.992  0.2154  0.0735  0.0370
 8396W        W25920   8.521   3.766  16.217 -0.1228  0.0908 -0.0391
 8397W        W25921   7.329   1.041  15.823 -0.1988 -0.1445  0.0357
 8398W        W25922   9.667  13.993   5.114  0.0634 -0.4160 -0.1720
 8399W        W25923  14.207   9.153  11.720 -0.0317 -0.1844  0.2035
 8400W        W25924  12.063  15.910   2.286  0.0649 -0.1718  0.1597
 8401W        W25925  10.297   6.311  13.521  0.2697  0.1809  0.0590
 8402W        W25926  10.349   3.843   0.312  0.3050 -0.1299 -0.2929
 8403W        W25927  10.961  13.275  11.983  0.1647  0.0076  0.2061
 8404W        W25928   8.670  14.278   3.010  0.0373  0.0937 -0.1206
 8405W        W25929   1.336   6.662  14.012  0.0896 -0.1277  0.0242
 8406W        W25930  10.156   2.425   2.009  0.1659 -0.2732 -0.2096
 8407W        W25931   7.919   8.660  15.416 -0.0188  0.0325 -0.2065
 8408W        W25932   8.829   2.896  15.816 -0.0656  0.1973  0.0412
 8409W        W25933   2.305   1.725  13.641  0.0218  0.0104  0.3869
 8410W        W25934   7.555  11.076   4.160 -0.3863  0.0909  0.2095
 8411W        W25935   6.102   4.149   1.522 -0.3402  0.3465  0.2003
 8412W        W25936   5.119   7.212   2.269 -0.1910  0.0608 -0.2552
 8413W        W25937   6.334  11.394   3.722  0.0578  0.1636  0.2899
 8414W        W25938  11.569   5.110  13.109  0.0490  0.1200  0.1821
 8415W        W25939   5.888   9.012  17.366 -0.1199 -0.1138 -0.2980
 8416W        W25940   5.592  10.270  11.860 -0.0378  0.0944 -0.0876
 8417W        W25941   2.502  13.063   1.133 -0.0985 -0.3172  0.0365
 8418W        W25942  10.317   5.575  15.922  0.2154 -0.2155  0.1645
 8419W        W25943  10.215   8.221  17.143  0.1353  0.0222 -0.0982
 8420W        W25944   4.060   8.637  15.235 -0.0087  0.2070 -0.0827
 8421W        W25945  13.560   9.567  16.513 -0.0898  0.3997 -0.2075
 8422W        W25946   0.423   3.703   2.990  0.2233 -0.0499  0.0804
 8423W        W25947   9.688   8.759  14.187 -0.1554  0.1985 -0.0886
 8424W        W25948  11.356  15.084  15.479 -0.1576 -0.3609  0.0503
 8425W        W25949   7.055  10.860  17.612 -0.0998  0.1210  0.0386
 8426W        W25950  12.818  16.650   4.635  0.1998  0.1796  0.1454
 8427W        W25951  14.097   1.077  12.625 -0.5320  0.2994  0.2720
 8428W        W25952   9.654  15.249  14.431 -0.2422 -0.1877 -0.4197
 8429W        W25953   3.947  10.100  12.759  0.1998 -0.0102  0.2774
 8430W        W25954   3.348   2.773  13.902 -0.1915  0.0183  0.0056
 8431W        W25955   7.337   5.317   4.201  0.2060  0.1519 -0.3986
 8432W        W25956   9.042  12.544  13.770 -0.1191 -0.1326  0.2363
 8433W        W25957   0.290   8.298  16.914 -0.1980 -0.2664  0.1271
 8434W        W25958   1.641  11.836  12.851 -0.1033  0.0423 -0.4809
 8435W        W25959   0.379   6.126   4.642 -0.0209  0.3134 -0.3706
 8436W        W25960   1.240   8.013  14.482 -0.0708 -0.0296  0.2270
 8437W        W25961  16.671   0.224   1.511  0.1186  0.1940  0.0962
 8438W        W25962   0.554  15.527   2.422 -0.0732 -0.0609 -0.1251
 8439W        W25963   1.088   9.884   5.101 -0.1093 -0.1237  0.1369
 8440W        W25964   8.710  11.528  14.787  0.1481  0.1338  0.2037
 8441W        W25965   0.404   8.039   2.705 -0.3047  0.2741  0.1228
 8442W        W25966  12.085   0.130  17.030 -0.3388  0.1232  0.0272
 8443W        W25967   0.271  16.192  17.387  0.2741 -0.1569  0.1073
 8444W        W25968   1.558   1.699   4.971  0.2440 -0.0154  0.0395
 8445W        W25969   5.417  10.060  17.063 -0.1411 -0.2152 -0.1222
 8446W        W25970   3.545   3.743   3.576 -0.0017 -0.0626 -0.0817
 8447W        W25971  12.161   3.001   2.712  0.2755 -0.1327 -0.0905
 8448W        W25972  14.865   4.082   5.472 -0.2298  0.4301 -0.2344
 8449W        W25973  10.571  13.608   3.530 -0.1440  0.1429 -0.3745
 8450W        W25974  17.028   1.284   1.610  0.0740 -0.0319  0.0801
 8451W        W25975  16.197  12.184   3.178  0.0883  0.3282 -0.0981
 8452W        W25976   7.641  12.361   2.989  0.1332  0.0258  0.1521
 8453W        W25977   6.740   8.392   3.607 -0.1839 -0.0698 -0.1010
 8454W        W25978   1.441  16.923  13.382  0.5162 -0.0740 -0.0692
 8455W        W25979   3.256  16.521  13.462 -0.1904 -0.1656  0.0390
 8456W        W25980   0.904   6.308   5.624 -0.0690 -0.1668 -0.1041
 8457W        W25981   0.157   8.607   5.072 -0.0414  0.3065 -0.1737
 8458W        W25982  11.736   5.954   1.692  0.1042  0.1312  0.4990
 8459W        W25983   4.693  12.246   1.655 -0.3603 -0.0835 -0.1922
 8460W        W25984  12.737   2.780   0.995  0.2297 -0.0030 -0.0993
 8461W        W25985   3.763   5.559  17.486 -0.1391  0.0143  0.2342
 8462W        W25986  15.883  14.769   0.062 -0.2577 -0.0520  0.1113
 8463W        W25987   6.546   2.586   1.266  0.1419  0.0872 -0.0212
 8464W        W25988   1.990   0.970  15.155  0.3154  0.2430 -0.0203
 8465W        W25989  12.885  14.300   4.250  0.1320 -0.0935  0.0501
 8466W        W25990   1.603  11.801   0.537 -0.0872 -0.0049  0.1318
 8467W        W25991   3.424   7.005   5.921 -0.4883 -0.0689  0.0116
 8468W        W25992  13.413  14.505   5.011 -0.0564 -0.0540  0.0279
 8469W        W25993   8.756   0.948  14.492 -0.2962 -0.2699  0.2170
 8470W        W25994  14.516  16.982  14.807  0.0398  0.0854  0.0850
 8471W        W25995  15.953  14.547  13.391 -0.0005  0.0287 -0.0669
 8472W        W25996  12.129  16.715   1.834 -0.0143 -0.0750  0.1038
 8473W        W25997   4.162   6.657   0.583 -0.1488 -0.2558  0.3009
 8474W        W25998  11.841   6.856  13.837  0.0544 -0.0236 -0.3006
 8475W        W25999   7.602  15.705  16.118 -0.5169  0.2285  0.1635
 8476W        W26000  16.424   6.588  12.300 -0.3117  0.1917 -0.1397
 8477W        W26001  17.125   2.682  14.916  0.0606 -0.5134 -0.0722
 8478W        W26002  10.848   8.837   1.186 -0.1110  0.2038 -0.0125
 8479W        W26003  12.863  12.604   0.433  0.1413  0.3755  0.0601
 8480W        W26004   5.861  11.116   3.493  0.0389  0.0698  0.1322
 8481W        W26005   4.465   8.131  13.119  0.1162  0.0781  0.0347
 8482W        W26006   4.263  11.410  12.275  0.0044 -0.3849  0.1555
 8483W        W26007   4.252   2.557   3.416 -0.0460  0.0795 -0.1561
 8484W        W26008  17.148   3.222   3.570 -0.1471  0.1637 -0.0898
 8485W        W26009   1.883  11.865   2.751  0.2127 -0.0488  0.1522
 8486W        W26010   3.221   2.379   3.110  0.0509  0.0809  0.2656
 8487W        W26011   0.203   1.801   0.869 -0.0345 -0.0448 -0.1209
 8488W        W26012   4.791  10.052  12.124  0.1231  0.0092 -0.1044
 8489W        W26013   8.063   1.841  16.110  0.3112 -0.2085 -0.1870
 8490W        W26014   1.128   1.433   3.092  0.0550  0.5295  0.3335
 8491W        W26015   8.364   5.982   3.275 -0.1363 -0.0633 -0.1185
 8492W        W26016  14.468  10.708  15.731 -0.1843 -0.0517  0.1249
 8493W        W26017   2.531   5.530   1.130 -0.2388  0.1896  0.4100
 8494W        W26018  14.093   0.941  13.534 -0.0315 -0.1449  0.1603
 8495W        W26019   0.492  10.175   3.221 -0.0581 -0.1505 -0.0286
 8496W        W26020   3.694  15.921   0.281 -0.1640 -0.4315 -0.1294
 8497W        W26021   4.986  16.795  15.891  0.2192  0.2209  0.1054
 8498W        W26022   2.228  10.111   4.784  0.0825 -0.0910 -0.1247
 8499W        W26023   1.231  10.850   0.593 -0.2329  0.0188 -0.0210
 8500W        W26024  15.873   0.772  16.119 -0.0167  0.3501 -0.2711
 8501W        W26025  10.164  15.567   0.585  0.1782  0.1393 -0.1938
 8502W        W26026   2.124   3.168   0.643 -0.0154  0.0010 -0.2927
 8503W        W26027   6.674   0.514   3.375 -0.3033 -0.0682  0.0109
 8504W        W26028  14.477  12.078  17.082  0.0338  0.0044  0.2143
 8505W        W26029  14.944   4.873  13.707 -0.0013 -0.2511 -0.1224
 8506W        W26030  16.947   2.244   4.433  0.1432  0.1413  0.1257
 8507W        W26031  13.297   4.869   4.571 -0.0508 -0.1118  0.3067
 8508W        W26032   1.782  10.379   0.011  0.2140 -0.2692  0.1425
 8509W        W26033   4.798   4.797  15.104 -0.1417 -0.0511  0.1331
 8510W        W26034   6.843  12.852   0.226  0.4138 -0.0397  0.2104
 8511W        W26035   4.668   9.057   0.014  0.0573 -0.1281 -0.1582
 8512W        W26036  13.497   6.987   4.175 -0.0019  0.1536 -0.2780
 8513W        W26037  15.184  10.697   2.013  0.0995 -0.1462 -0.1772
 8514W        W26038   4.719   0.929   0.679  0.0527  0.2310  0.0585
 8515W        W26039  15.943   8.152  13.507 -0.2519 -0.2655  0.1505
 8516W        W26040   4.531   9.800   5.449 -0.1243  0.2170 -0.2533
 8517W        W26041  13.483   4.888   0.232  0.2858 -0.0466 -0.1129
 8518W        W26042  13.005   4.198   4.563 -0.2266  0.1211  0.3136
 8519W        W26043   7.509  14.191   0.824 -0.0374  0.1305  0.1633
 8520W        W26044   2.483  11.473  17.022 -0.1106  0.0588  0.0935
 8521W        W26045  11.452   2.715   4.482 -0.0850 -0.1324  0.1799
 8522W        W26046   7.592   1.821  16.283  0.0475  0.3800  0.3936
 8523W        W26047   6.565   2.666   4.274  0.1169  0.0163 -0.1527
 8524W        W26048   3.455   1.008   1.747  0.0830 -0.0434 -0.1552
 8525W        W26049  13.709   6.216   5.810  0.3652  0.0887 -0.1098
 8526W        W26050   3.758   7.499  17.262  0.1306 -0.2905 -0.0241
 8527W        W26051   3.564  11.120   1.684  0.5016 -0.3233 -0.5147
 8528W        W26052   9.893  12.310  15.944 -0.2963 -0.1928 -0.1402
 8529W        W26053  12.651  11.005   2.434 -0.1393 -0.2094  0.0175
 8530W        W26054  14.466   7.372   5.258 -0.3048  0.4117  0.3901
 8531W        W26055  13.967  11.668   5.119 -0.2393  0.0541 -0.0579
 8532W        W26056   3.903   4.765   2.050  0.1383  0.1302 -0.4466
 8533W        W26057   0.334   6.741  16.229  0.3552 -0.1560  0.0773
 8534W        W26058   8.265  14.737   0.278  0.0906  0.3071  0.0936
 8535W        W26059   8.279   9.440  13.898  0.1493  0.1620  0.2840
 8536W        W26060   3.460  15.497  12.488 -0.1098  0.0393 -0.1830
 8537W        W26061  14.935   2.945  14.692  0.1895  0.0499 -0.0372
 8538W        W26062   7.237  13.093   1.820  0.0960 -0.1278 -0.0997
 8539W        W26063  13.352  12.317   4.964 -0.0255  0.1498  0.1281
 8540W        W26064  12.771  10.983   1.121  0.2330 -0.0263  0.0961
 8541W        W26065   7.644   7.471   4.130  0.1448 -0.3669 -0.0532
 8542W        W26066  16.753  13.443   0.362  0.0629 -0.0236  0.0512
 8543W        W26067   1.771   6.095   2.768 -0.1084  0.1955  0.3124
 8544W        W26068  14.473   1.373   6.717 -0.2241 -0.0038 -0.1266
 8545W        W26069   2.441   0.213  15.580  0.1289  0.2074  0.3207
 8546W        W26070  12.083   2.991   3.536 -0.5121 -0.3380 -0.2421
 8547W        W26071   9.596  13.113   0.858 -0.4070  0.0036  0.0159
 8548W        W26072   8.778  10.659  16.751 -0.1178  0.1689 -0.0991
 8549W        W26073  15.677   6.924  16.955 -0.0601 -0.0586  0.2035
 8550W        W26074  17.099  14.104  14.244  0.0584 -0.0027 -0.0757
 8551W        W26075   0.532  14.199   6.334  0.1020 -0.0200 -0.1308
 8552W        W26076  12.116  14.089   1.083  0.0754  0.0671 -0.1350
 8553W        W26077  16.999  11.884  16.550  0.2140 -0.0606 -0.0226
 8554W        W26078   5.644  14.590  12.908 -0.1261 -0.1933  0.0053
 8555W        W26079   8.975  10.805   4.769 -0.1369 -0.1092 -0.6350
 8556W        W26080  17.105  15.065   3.651  0.0924  0.0155 -0.0590
 8557W        W26081   8.382   8.673  15.369  0.0977  0.0658  0.2933
 8558W        W26082   5.055  14.586   2.815  0.0463 -0.3581  0.1451
 8559W        W26083   7.076  13.008  12.386  0.0155  0.2545 -0.0538
 8560W        W26084  12.070   9.400   5.487 -0.2730 -0.0945 -0.0115
 8561W        W26085   8.981   3.692  16.429  0.0341  0.1086 -0.1842
 8562W        W26086   5.063   7.559  16.523  0.0736 -0.0064  0.0822
 8563W        W26087  10.687   5.912   0.738  0.1830  0.0513  0.2365
 8564W        W26088   2.712  10.027  16.734  0.3641  0.0703  0.0034
 8565W        W26089  14.274   8.979   5.311  0.2218  0.0857  0.1090
 8566W        W26090   6.180  13.624   3.871 -0.0079 -0.0332 -0.0245
 8567W        W26091  13.340  14.195  14.870 -0.0188  0.0118 -0.1230
 8568W        W26092   8.074  14.726   0.832  0.2382 -0.0932 -0.0008
 8569W        W26093  13.881   8.431  12.257 -0.0131  0.0004  0.0310
 8570W        W26094   2.241   8.910   5.952 -0.0719 -0.0693  0.3368
 8571W        W26095   7.314   3.173  16.279 -0.1403  0.0350 -0.0219
 8572W        W26096   7.729   3.313  13.369 -0.1984 -0.0192  0.2737
 8573W        W26097   8.063   2.784   2.434  0.2848 -0.0043 -0.0208
 8574W        W26098   3.669  17.002  17.117 -0.0305 -0.4121 -0.2980
 8575W        W26099   3.709  12.967   5.093 -0.0418 -0.2170 -0.2784
 8576W        W26100  11.233  16.305   1.764  0.0486  0.1051  0.0363
 8577W        W26101   5.425  14.571   2.435 -0.0941 -0.0714 -0.4536
 8578W        W26102  15.224   5.676   3.969 -0.0391  0.0253 -0.2352
 8579W        W26103   7.601   2.658  17.520  0.2529  0.2917 -0.0642
 8580W        W26104  15.335  12.787   1.593  0.2651 -0.0232 -0.2188
 8581W        W26105   3.268   8.837   3.326 -0.2029  0.0762  0.1968
 8582W        W26106   6.656  11.616  17.076 -0.3454  0.1371 -0.4111
 8583W        W26107   6.490  13.639  16.010 -0.0225  0.2422 -0.0400
 8584W        W26108   2.313   5.130   1.444 -0.0286 -0.2605 -0.2960
 8585W        W26109  15.630  15.282  15.356 -0.1161 -0.2035 -0.1561
 8586W        W26110   9.065  10.195   1.283 -0.0672  0.4838  0.3207
 8587W        W26111  14.752   0.850   4.214 -0.3118  0.2398  0.2000
 8588W        W26112  11.304  12.890  12.222  0.3172 -0.0512  0.0316
 8589W        W26113   7.567   6.435  15.074 -0.2189  0.1068 -0.2503
 8590W        W26114   2.044   2.178   5.848 -0.3906 -0.1295  0.0120
 8591W        W26115   5.360   2.599   0.759 -0.0313  0.1482 -0.1843
 8592W        W26116  11.119  14.650  15.542 -0.0183  0.0296  0.0563
 8593W        W26117  15.913   4.555  14.667  0.0615 -0.0944  0.1004
 8594W        W26118   0.212   5.392  13.295  0.1167 -0.0305 -0.0097
 8595W        W26119   7.867   3.957  13.007  0.1556  0.0833 -0.0469
 8596W        W26120  13.091  13.130  12.687  0.2097 -0.3564  0.3959
 8597W        W26121  10.853   5.738   0.004 -0.0113 -0.0777  0.0449
 8598W        W26122   8.267  10.426   4.415  0.2530  0.1408 -0.1956
 8599W        W26123   3.964  16.434  15.492 -0.1827  0.0162  0.2542
 8600W        W26124   5.188  11.714  17.143  0.2263 -0.0878 -0.0382
 8601W        W26125   2.877   4.996  12.630 -0.0322 -0.0598 -0.0505
 8602W        W26126   5.931  14.820  17.713 -0.2791  0.3020  0.1716
 8603W        W26127  15.337   4.122  17.315  0.0042  0.2831  0.0843
 8604W        W26128   6.154   7.347   4.096  0.1891 -0.1704  0.0036
 8605W        W26129   2.783   4.561  14.527 -0.0793  0.0066  0.0245
 8606W        W26130   4.218  12.743   0.369 -0.2069  0.2432  0.4728
 8607W        W26131   1.270   6.684  17.490 -0.0687 -0.1932  0.0119
 8608W        W26132  15.829  14.764   3.028  0.0086  0.2110  0.1565
 8609W        W26133  15.831   6.181   1.009 -0.6154  0.0923 -0.0044
 8610W        W26134  16.573  11.066  17.495  0.1723 -0.0506 -0.1466
 8611W        W26135  16.422   8.674   1.736 -0.0294  0.2022 -0.2014
 8612W        W26136  16.615  14.138  14.977 -0.2762  0.0366  0.1351
 8613W        W26137   6.621   3.218   4.185 -0.3480 -0.2809 -0.1097
 8614W        W26138  17.137  16.837   4.060  0.1520 -0.2378  0.0120
 8615W        W26139  10.157   0.655   0.752 -0.2790 -0.0265  0.1824
 8616W        W26140  16.021   8.672   4.901 -0.1254  0.2000  0.1228
 8617W        W26141  16.667  14.440  14.552 -0.0617 -0.1265  0.2592
 8618W        W26142  12.949   0.806  12.060 -0.1854  0.2863  0.1716
 8619W        W26143  10.034  12.241  14.951  0.2530  0.0496  0.4660
 8620W        W26144   2.175  10.738   4.023 -0.0092  0.1816  0.0853
 8621W        W26145  14.918  12.862  15.137  0.1477  0.0124 -0.1782
 8622W        W26146   4.380   7.355   0.178  0.2350 -0.2304  0.0931
 8623W        W26147  11.158   3.109   3.854  0.1484  0.1389 -0.1683
 8624W        W26148   7.026   7.770   3.717 -0.0565 -0.0351 -0.0050
 8625W        W26149  15.755  10.504  14.801 -0.1512  0.3490  0.2391
 8626W        W26150   7.351   1.778  17.612 -0.0798  0.0957 -0.1023
 8627W        W26151  12.671   1.576  14.349  0.0862 -0.3353  0.1250
 8628W        W26152   2.089  11.543  16.165 -0.2333 -0.0935 -0.0129
 8629W        W26153  13.550  12.010   5.329 -0.0825 -0.2664 -0.0130
 8630W        W26154   3.135   9.013  17.028 -0.3214  0.0838 -0.0515
 8631W        W26155   7.375   5.964   2.176 -0.0410 -0.1238 -0.1947
 8632W        W26156   9.338  12.407  11.764 -0.2049  0.1415  0.1231
 8633W        W26157  17.024  10.521   4.678  0.0929 -0.1771 -0.1072
 8634W        W26158   2.502   7.985  17.634 -0.0697 -0.1215 -0.2251
 8635W        W26159  12.804   8.947  14.107 -0.1842 -0.0915 -0.2009
 8636W        W26160   5.530   5.373   3.652 -0.0945  0.1904 -0.4337
 8637W        W26161   9.823  13.633   0.110  0.2565 -0.1646  0.1703
 8638W        W26162   7.305  11.363  16.158  0.0557  0.0328  0.0888
 8639W        W26163   1.520   4.285   1.762 -0.1265  0.1087  0.1042
 8640W        W26164   7.596   9.858  15.548  0.1068 -0.1165 -0.0517
 8641W        W26165  14.122   8.240   0.036  0.0111 -0.0595  0.0376
 8642W        W26166  12.511   2.877  16.590  0.0405  0.0012 -0.2848
 8643W        W26167  16.600   4.535   0.550 -0.1085  0.0860 -0.0413
 8644W        W26168  10.769   4.100  17.232 -0.0800  0.3400  0.2649
 8645W        W26169   6.131   4.922   0.383  0.3131  0.1030  0.1277
 8646W        W26170   8.273   8.472  12.104  0.1331 -0.0381  0.0565
 8647W        W26171   0.415  10.594   2.224  0.1053 -0.1247  0.1972
 8648W        W26172   4.846   3.796   0.476 -0.1919 -0.2338 -0.0178
 8649W        W26173   5.645  12.548   5.769  0.0954  0.3004 -0.0921
 8650W        W26174   0.386  11.958  13.736  0.0362 -0.0321  0.2580
 8651W        W26175   5.603   3.588   2.749  0.5446  0.0509 -0.1620
 8652W        W26176   3.149   8.863  16.545 -0.0113  0.0154 -0.3155
 8653W        W26177   1.629  10.545  15.708 -0.1906  0.0548 -0.2202
 8654W        W26178   6.403   4.106  16.620 -0.2029  0.0355  0.0709
 8655W        W26179   3.625  13.976   5.306  0.3814  0.1798 -0.0050
 8656W        W26180   8.630   8.330  12.979 -0.1339 -0.0998  0.6218
 8657W        W26181  15.744  13.526   5.574  0.0331 -0.0579 -0.1952
 8658W        W26182   4.065  12.580   2.923  0.3198  0.1714 -0.3634
 8659W        W26183  15.579   9.154  16.242 -0.4502  0.2410  0.1222
 8660W        W26184   7.330  10.715  13.192 -0.1034  0.0964  0.1696
 8661W        W26185   6.100   0.381   1.839  0.0371  0.0617 -0.0682
 8662W        W26186   6.186  14.920  11.848  0.0837 -0.3394 -0.0192
 8663W        W26187  13.916   9.280   4.329  0.1284  0.1210 -0.2726
 8664W        W26188   8.251  10.451   3.577 -0.0137  0.1706 -0.0041
 8665W        W26189   0.409   3.190  12.991 -0.0953  0.2322 -0.2902
 8666W        W26190  14.459  12.682   0.076  0.1497 -0.2790 -0.0240
 8667W        W26191  13.828  10.034   3.091 -0.0018 -0.1351  0.1957
 8668W        W26192  14.426  12.701  12.147 -0.2264  0.2739 -0.2108
 8669W        W26193  14.764   7.580   3.413  0.0391 -0.2356 -0.2815
 8670W        W26194   2.326  14.046   5.590  0.1581  0.2731 -0.0072
 8671W        W26195   4.776  14.426   5.758 -0.0051  0.0279 -0.0429
 8672W        W26196   0.053  11.901  13.315  0.1729  0.1391  0.2874
 8673W        W26197   0.655  10.717   0.807 -0.0194  0.2406  0.1801
 8674W        W26198  11.671  11.153  16.776 -0.1196 -0.0527  0.0889
 8675W        W26199   9.131  15.080  12.652  0.3339 -0.1075 -0.0243
 8676W        W26200  17.150  10.059   0.775 -0.1043  0.1142 -0.2796
 8677W        W26201  11.595  13.005   1.614  0.2396 -0.0117 -0.1913
 8678W        W26202  10.214   3.942   3.290  0.1368 -0.1065 -0.0509
 8679W        W26203   1.586   8.158   3.771  0.1727 -0.1834  0.0390
 8680W        W26204   1.214  10.484  15.247  0.2727  0.1772 -0.1769
 8681W        W26205  14.889   3.958  17.034  0.0610  0.0164 -0.0087
 8682W        W26206  12.068  16.976   2.835  0.3465 -0.1813 -0.1138
 8683W        W26207   3.324  15.246  13.995  0.4000 -0.0318  0.0024
 8684W        W26208   7.555  11.155   1.590  0.2560  0.2299 -0.0937
 8685W        W26209  11.545  14.133   0.275  0.2247 -0.1484  0.0235
 8686W        W26210   5.505   3.151  12.576 -0.2459  0.4174  0.3121
 8687W        W26211  15.594  14.631   2.546  0.0209 -0.1814 -0.2357
 8688W        W26212   9.437  12.833  15.904 -0.1627 -0.0093 -0.0899
 8689W        W26213   5.940  11.060   2.118  0.0192 -0.3809  0.1851
 8690W        W26214   0.608   8.938  17.635  0.0290  0.1382 -0.2256
 8691W        W26215   5.057  16.349  12.707 -0.2172  0.4307 -0.1009
 8692W        W26216   2.052   5.187   1.873  0.1330  0.0313  0.4619
 8693W        W26217  15.058   7.711  15.047  0.1114  0.2102 -0.1671
 8694W        W26218   7.779  15.359  13.798  0.3733  0.0118  0.0082
 8695W        W26219   0.292  14.890  14.851  0.1101 -0.0525 -0.0813
 8696W        W26220   3.436  12.972  11.779 -0.1399 -0.3387  0.0871
 8697W        W26221   1.511   7.289  14.909  0.0485 -0.4475  0.0213
 8698W        W26222  16.323   5.671   5.741  0.0155 -0.0266 -0.2935
 8699W        W26223   1.651   3.390  14.146 -0.0819  0.1297 -0.0424
 8700W        W26224  10.701  13.136  15.127  0.2327 -0.0049  0.0089
 8701W        W26225   6.166  11.904   2.179 -0.0636 -0.1602  0.1757
 8702W        W26226  10.442  11.386  16.878  0.1570  0.0614  0.1633
 8703W        W26227   4.046   4.300  12.970 -0.0459 -0.1132  0.0066
 8704W        W26228   9.531   2.489   5.157 -0.2031 -0.2785 -0.0383
 8705W        W26229   2.524  14.442   3.895  0.0549  0.3103  0.1663
 8706W        W26230   4.942   1.150   3.648 -0.1226 -0.0480  0.0010
 8707W        W26231  11.805  14.581   4.396 -0.0982  0.0235  0.3018
 8708W        W26232   8.891   7.957   3.206 -0.0088 -0.2191 -0.0892
 8709W        W26233  13.676  13.602  12.325 -0.1323  0.1919  0.0090
 8710W        W26234  11.915   8.214  17.477 -0.2455 -0.3143 -0.1165
 8711W        W26235   5.711  15.893   3.607 -0.2624 -0.2761 -0.0551
 8712W        W26236  16.477  15.369  15.196  0.1500 -0.1277  0.0087
 8713W        W26237   9.163   8.918   0.847 -0.1666 -0.3062  0.1366
 8714W        W26238  14.092   8.778  12.549 -0.1054  0.2002  0.0586
 8715W        W26239  16.506  11.136   4.250 -0.1589  0.1304  0.0350
 8716W        W26240   9.395  15.832  13.233 -0.0265  0.0417 -0.1448
 8717W        W26241  14.755   3.545  16.525  0.2972 -0.1105 -0.0897
 8718W        W26242   7.718   1.541  17.365 -0.2424  0.1768  0.1298
 8719W        W26243   8.439  15.247  11.598 -0.0445  0.0773  0.3256
 8720W        W26244  12.921   3.359   2.489  0.1770 -0.1551 -0.1907
 8721W        W26245  14.713  11.769  14.922  0.4499  0.0819  0.0720
 8722W        W26246  15.983   5.177  14.520  0.4072  0.0241  0.1037
 8723W        W26247   5.953  15.878  15.290 -0.2516  0.0874 -0.0856
 8724W        W26248  16.051   8.097  14.747 -0.5097  0.1908 -0.0073
 8725W        W26249  14.034   8.081  16.475  0.1348  0.1257  0.0740
 8726W        W26250   3.326   9.358   3.920 -0.0009 -0.1324  0.0892
 8727W        W26251  14.932   2.621   3.553 -0.1227 -0.2255 -0.1398
 8728W        W26252   6.947   8.533  12.608 -0.0100  0.3740  0.0349
 8729W        W26253   6.636   4.723  15.049 -0.1646  0.3079  0.2268
 8730W        W26254  10.302   3.597   4.505 -0.1447  0.2160 -0.1645
 8731W        W26255   2.758  13.027   1.565  0.0154  0.3180  0.0492
 8732W        W26256   6.136  14.925   1.958 -0.3411  0.2023 -0.1530
 8733W        W26257   6.139   7.001  17.457  0.2471  0.3378  0.0235
 8734W        W26258   8.917   7.172   0.214  0.0029 -0.0461  0.1100
 8735W        W26259   4.784  16.793   1.906 -0.2327  0.0408  0.0997
 8736W        W26260  11.346   0.601   4.532 -0.1084  0.0186  0.0381
 8737W        W26261   0.514   2.826  15.859 -0.1245  0.1598  0.2061
 8738W        W26262   9.772   7.304  12.653  0.0051  0.1738 -0.0039
 8739W        W26263   5.471  12.181  15.619  0.0527 -0.0575 -0.0298
 8740W        W26264   5.031  10.762   1.537 -0.1421 -0.0602  0.1333
 8741W        W26265   6.137  12.052   2.709  0.2397 -0.2369 -0.0581
 8742W        W26266   4.534  12.662   2.185 -0.1374  0.1627  0.1090
 8743W        W26267   9.543  12.069  15.045  0.1040 -0.0733 -0.0095
 8744W        W26268  12.641   2.932  14.825  0.0358  0.1218  0.1284
 8745W        W26269  10.234  15.808   2.714  0.0121  0.0828  0.0777
 8746W        W26270  13.059   5.764   6.044 -0.1101  0.1351  0.3639
 8747W        W26271  10.950   6.853  12.655  0.0588  0.4792 -0.2389
 8748W        W26272   1.279   4.111   0.375  0.2477  0.0200  0.0173
 8749W        W26273  10.713  15.257  14.955  0.1735 -0.0571 -0.1446
 8750W        W26274  10.557   1.566   1.463  0.2617 -0.1345  0.3950
 8751W        W26275   9.668  15.229  15.719 -0.0890 -0.1707 -0.1741
 8752W        W26276   0.479   6.091   3.037  0.1272 -0.2302  0.1431
 8753W        W26277  12.120   6.894  15.563 -0.2610 -0.0581  0.0657
 8754W        W26278   5.681   5.548   1.684  0.0148 -0.1259 -0.0600
 8755W        W26279   9.095   5.690   3.023  0.0201  0.1684 -0.2890
 8756W        W26280   9.805  15.529  16.658 -0.1577 -0.0996 -0.1530
 8757W        W26281   0.285   8.703   0.808 -0.0188  0.1483  0.1527
 8758W        W26282  10.385   1.277  13.654 -0.2400  0.1481  0.5071
 8759W        W26283   2.081   0.326  13.717  0.0691 -0.2039 -0.4278
 8760W        W26284   8.483  15.741  11.624 -0.0362 -0.0949  0.2382
 8761W        W26285  16.580  15.930   4.304 -0.0006 -0.4389  0.2765
 8762W        W26286  10.651   0.870  15.296  0.1248  0.0698 -0.1149
 8763W        W26287   1.316   0.914   6.077 -0.0476 -0.3079  0.0049
 8764W        W26288  13.293   2.061  13.656 -0.1042 -0.0591 -0.0319
 8765W        W26289   6.884   8.585   4.545 -0.0336  0.2410 -0.1998
 8766W        W26290  11.967  11.848  14.724  0.0060 -0.0587  0.0641
 8767W        W26291  11.237   2.676   2.750 -0.1826  0.1359 -0.3070
 8768W        W26292  12.333  12.950   0.227 -0.1609  0.0724 -0.0926
 8769W        W26293  16.859  16.620   1.909  0.2248  0.1146  0.0012
 8770W        W26294   4.017   1.544   0.609 -0.3207  0.0072 -0.1135
 8771W        W26295   5.879   8.424   2.481  0.0942  0.1979 -0.0117
 8772W        W26296   7.787  10.623   1.294 -0.1007  0.0700 -0.1412
 8773W        W26297  14.077  11.932   0.412  0.2273 -0.1669 -0.0246
 8774W        W26298  16.197   5.366  17.724  0.1154 -0.0688 -0.2568
 8775W        W26299  12.648  10.345  12.306  0.0078 -0.0839  0.2946
 8776W        W26300  16.429   9.529  12.698  0.2181  0.0188  0.1993
 8777W        W26301  14.412  10.235   5.326 -0.1187 -0.5290 -0.1651
 8778W        W26302   7.013  10.180   0.993  0.1804  0.0093 -0.1502
 8779W        W26303   4.934   8.703  16.987  0.2337 -0.0115 -0.0527
 8780W        W26304   7.345   2.482   3.065  0.3285  0.0517  0.0840
 8781W        W26305   8.941   9.058   2.609 -0.0975 -0.0565  0.0372
 8782W        W26306   6.541  10.906   2.158 -0.1263  0.0325 -0.0552
 8783W        W26307   9.888   2.467  13.015 -0.1667 -0.0274 -0.1029
 8784W        W26308  16.163  10.244   4.319 -0.1170  0.2645  0.0738
 8785W        W26309  10.256  14.071  16.270 -0.0177  0.0291 -0.1449
 8786W        W26310   2.844   3.286   4.613 -0.2104  0.0376 -0.3285
 8787W        W26311  15.616   2.661  16.874 -0.0654 -0.1325 -0.1519
 8788W        W26312   5.472   3.339  15.948  0.3807 -0.0206  0.2111
 8789W        W26313  16.838   6.941   4.217 -0.1865 -0.3897 -0.1934
 8790W        W26314  10.138   5.737   4.378  0.1749  0.0426  0.0840
 8791W        W26315   5.268   4.961   3.545 -0.2161 -0.0893 -0.2042
 8792W        W26316   3.018  15.726  14.655 -0.2854 -0.2434 -0.1302
 8793W        W26317  16.577  12.514   5.879 -0.0876 -0.1178  0.0105
 8794W        W26318  13.215   1.375  13.295  0.4426 -0.0765 -0.0279
 8795W        W26319  15.132  16.362   0.625 -0.1524  0.0287  0.1485
 8796W        W26320  12.074   6.329   2.689 -0.0157 -0.2579  0.2026
 8797W        W26321   2.718  15.769  16.077 -0.2450  0.0198 -0.3065
 8798W        W26322   6.736  17.068   2.476 -0.2037 -0.2831  0.3764
 8799W        W26323   2.138  14.591  14.364  0.2462  0.1087  0.0232
 8800W        W26324   1.852   9.652   4.929  0.0588 -0.0310  0.3560
 8801W        W26325   7.835  13.019   5.219  0.4644  0.2370  0.0289
 8802W        W26326  14.833  10.504  12.380 -0.3168 -0.0808 -0.2261
 8803W        W26327  15.891   4.190  16.995 -0.2170 -0.1491 -0.1891
 8804W        W26328   9.251   8.033  17.590 -0.2690  0.1815 -0.1984
 8805W        W26329  16.289  11.848   0.450 -0.2492 -0.1762 -0.2447
 8806W        W26330   0.980  10.307  17.344 -0.2215 -0.3976  0.3491
 8807W        W26331   6.420  15.468  16.945  0.2368  0.1937  0.2102
 8808W        W26332   6.619  13.648  16.591 -0.0838 -0.1489 -0.0393
 8809W        W26333   6.564   1.419   3.428 -0.2731  0.1764  0.3995
 8810W        W26334   7.921   7.120  14.192 -0.1069 -0.0943  0.2239
 8811W        W26335   6.365   8.165   4.568  0.1358 -0.2132  0.0205
 8812W        W26336   4.699   7.973  15.699 -0.1346  0.0572  0.1089
 8813W        W26337   4.064   9.512  14.140 -0.1241  0.1474  0.0225
 8814W        W26338  11.310   7.316  11.910  0.0460  0.3627 -0.2325
 8815W        W26339   2.974   8.734  14.320  0.0142  0.0022 -0.3870
 8816W        W26340  16.011   4.682  15.219 -0.0849 -0.4571 -0.0381
 8817W        W26341  15.843   3.217   3.076 -0.1883  0.0546  0.1256
 8818W        W26342  11.817   6.241   0.025  0.0260 -0.0523 -0.1111
 8819W        W26343   8.865  10.146   6.312  0.0657  0.0424  0.0411
 8820W        W26344   3.596   2.980   0.598  0.1573 -0.2893 -0.0638
 8821W        W26345   3.070   9.831   2.245 -0.2582 -0.0108 -0.3410
 8822W        W26346   4.639  16.413   1.598 -0.1600  0.1408 -0.1152
 8823W        W26347   6.541   2.250  12.946 -0.1784  0.0556 -0.0958
 8824W        W26348  15.289   8.759   3.147 -0.0859 -0.1082  0.1947
 8825W        W26349   6.324  11.242  17.341 -0.1770 -0.5348 -0.1368
 8826W        W26350   5.871   6.618  13.009 -0.0100 -0.2968 -0.1188
 8827W        W26351  16.521  13.714  15.967  0.0574 -0.4249 -0.1508
 8828W        W26352  11.273   3.646  17.479  0.3443 -0.3450 -0.1251
 8829W        W26353  10.107   4.377   1.482  0.1003  0.0195  0.1183
 8830W        W26354   1.186  14.961  13.773 -0.1788  0.2251 -0.1259
 8831W        W26355  12.757   3.498  14.002 -0.3253  0.0730 -0.1065
 8832W        W26356   5.313   1.303  13.264 -0.2722 -0.0131 -0.2851
 8833W        W26357  16.673  12.121  11.415  0.0054 -0.3259  0.0050
 8834W        W26358  11.834  15.848  14.227  0.0682  0.0663  0.1531
 8835W        W26359  12.477  13.324  13.831 -0.0071 -0.0127  0.4697
 8836W        W26360  10.617   5.601  15.298 -0.0033 -0.1533  0.1291
 8837W        W26361  12.235  15.533   1.223  0.0594  0.1784  0.0578
 8838W        W26362  15.351  11.766  14.218 -0.0495  0.0383 -0.0699
 8839W        W26363  16.442   7.590   4.340  0.1641 -0.0518  0.0445
 8840W        W26364   3.326   9.865  12.220 -0.1404  0.1572  0.0645
 8841W        W26365   2.404   7.587   2.254 -0.1560  0.3115 -0.1827
 8842W        W26366  13.933   0.274   1.247 -0.0939  0.1948 -0.0284
 8843W        W26367   4.222   5.234   2.149  0.0125 -0.2317  0.0002
 8844W        W26368  16.345   7.960   0.936 -0.0532  0.1798 -0.0889
 8845W        W26369   7.869   0.150  11.974  0.0460  0.0265  0.2047
 8846W        W26370   7.133  13.520   4.457 -0.0588 -0.2148 -0.2091
 8847W        W26371  12.943   6.290   1.038 -0.1966  0.1012 -0.2655
 8848W        W26372   6.755   9.720   0.944  0.3534 -0.1700  0.2283
 8849W        W26373   9.775  11.699  14.193 -0.1364  0.0312  0.2839
 8850W        W26374  17.022  13.918   5.510  0.0355 -0.2608 -0.0712
 8851W        W26375  15.481  15.488  14.193 -0.0779  0.0723  0.4086
 8852W        W26376  10.180  14.035   1.876 -0.0656  0.0776  0.2320
 8853W        W26377  10.921  11.248   1.793 -0.0413  0.0045  0.1312
 8854W        W26378   3.815   9.298   5.055 -0.0807 -0.2434  0.1297
 8855W        W26379   1.333   4.862   2.590 -0.0484 -0.0828 -0.0163
 8856W        W26380  16.907   6.933   1.633 -0.3381  0.1787  0.2912
 8857W        W26381   8.871  15.258   0.598  0.1168 -0.0046 -0.0340
 8858W        W26382   2.059  13.728  15.223 -0.1646 -0.0838  0.2735
 8859W        W26383  10.738  10.786   1.604 -0.0890 -0.1289  0.1271
 8860W        W26384   6.094   6.904  14.801 -0.0974 -0.1060  0.2980
 8861W        W26385  13.711  15.950  16.380 -0.3404 -0.2185  0.1152
 8862W        W26386  10.564  10.070   3.499 -0.1016  0.0565  0.0939
 8863W        W26387  14.288  14.976  17.596 -0.0971  0.0661 -0.0509
 8864W        W26388   9.932   5.050   5.570  0.1624 -0.1286 -0.3304
 8865W        W26389   6.792  12.759   1.709 -0.0691 -0.1621 -0.1339
 8866W        W26390   5.346  16.416  17.170  0.1328 -0.0389  0.0512
 8867W        W26391   0.890   0.673   1.426  0.3484 -0.2285 -0.2599
 8868W        W26392  10.967  16.653   0.323  0.1147 -0.0751  0.2258
 8869W        W26393  15.367   3.338   0.029  0.3937 -0.0749 -0.0365
 8870W        W26394   2.226   4.259  17.303  0.0432  0.0844 -0.1110
 8871W        W26395   5.164  11.907  16.045 -0.0678 -0.0966 -0.0492
 8872W        W26396   6.596   5.697   0.875 -0.1303 -0.1152 -0.0378
 8873W        W26397   5.466  12.143  14.436 -0.0212 -0.0821  0.1371
 8874W        W26398   5.738   7.082   4.937  0.0283  0.1277 -0.0591
 8875W        W26399   8.671   8.604   0.114  0.3096  0.0996 -0.1160
 8876W        W26400  15.841   8.789  14.829  0.2202 -0.0454  0.2373
 8877W        W26401  14.127  16.506   2.784  0.3665 -0.1222 -0.3463
 8878W        W26402   1.147   6.986  16.820  0.0781 -0.0778  0.0062
 8879W        W26403  11.122  12.419  16.727  0.1228  0.0252 -0.1702
 8880W        W26404  14.152  14.702   4.035  0.2304 -0.0173  0.0809
 8881W        W26405  15.690   3.274  16.183  0.0432  0.1256 -0.1376
 8882W        W26406  16.020   5.786   0.687  0.3476 -0.0875 -0.1742
 8883W        W26407  10.269   6.284  12.510  0.2819 -0.2100  0.0313
 8884W        W26408  16.769   3.179   1.118 -0.0118 -0.2738 -0.0017
 8885W        W26409   2.240  12.851   5.131  0.0801 -0.1744  0.0406
 8886W        W26410   4.107   9.293   3.453  0.3076 -0.0573 -0.2029
 8887W        W26411  11.802  15.401  16.541  0.2565  0.1125 -0.0760
 8888W        W26412   9.355   6.435  14.508 -0.3095  0.2070  0.1359
 8889W        W26413   2.219  14.692   4.881  0.2836  0.4215  0.1689
 8890W        W26414   0.637   6.337   4.165  0.1233 -0.1485  0.2178
 8891W        W26415  10.112   9.158   1.231 -0.0075  0.4981  0.1209
 8892W        W26416  10.403   7.964   4.175  0.0052 -0.0903  0.0475
 8893W        W26417   2.160  11.705  12.837 -0.0117 -0.3532  0.3698
 8894W        W26418  17.127  16.897  16.267 -0.1272  0.3141 -0.2045
 8895W        W26419   4.137   8.633   4.792 -0.1175  0.0825 -0.2620
 8896W        W26420   4.251   9.171   4.007  0.0798  0.2509  0.1719
 8897W        W26421  11.809  11.702  16.623 -0.1551  0.0665 -0.1927
 8898W        W26422   4.931  14.638  16.672  0.1065  0.0091 -0.1380
 8899W        W26423  15.777   9.311  14.839  0.1061  0.2770 -0.0433
 8900W        W26424  17.068  15.103  13.368  0.4471  0.1258  0.1371
 8901W        W26425   2.180   0.739   6.543  0.3041 -0.1119 -0.0841
 8902W        W26426   6.330   4.497   1.135 -0.1937 -0.3680  0.3421
 8903W        W26427   4.618   3.946   4.783 -0.0300  0.3959  0.1178
 8904W        W26428   6.434   5.266  16.752 -0.0984  0.2255 -0.1174
 8905W        W26429   1.320  14.339   1.194 -0.1433  0.1598 -0.0873
 8906W        W26430   5.788   0.394  15.155  0.0959  0.0132 -0.0414
 8907W        W26431  12.773  15.527   1.719  0.0010 -0.0769  0.1311
 8908W        W26432   4.973   2.527   0.034 -0.1934 -0.0317 -0.4063
 8909W        W26433  11.794   6.565  15.785  0.1888 -0.2589  0.0285
 8910W        W26434   7.021   4.964  14.839 -0.0691 -0.0328  0.0097
 8911W        W26435   4.620   7.906  14.370 -0.2825  0.2981  0.2228
 8912W        W26436   1.264  15.635  14.758  0.0509 -0.1179  0.3316
 8913W        W26437  16.442  10.476   2.970 -0.1613  0.1125  0.1231
 8914W        W26438  15.753   3.717   1.289  0.1657  0.2012 -0.1074
 8915W        W26439   5.726   6.296   0.053 -0.0363  0.1605 -0.0825
 8916W        W26440   2.353   1.880  13.186  0.1596  0.2286 -0.2453
 8917W        W26441   7.635   2.191  12.403  0.3411  0.0853 -0.3976
 8918W        W26442  16.644   1.259  14.402 -0.0412 -0.0966 -0.1909
 8919W        W26443   8.444   5.067   4.513 -0.1984  0.1383 -0.1917
 8920W        W26444   6.507   2.845   1.787 -0.0457  0.0891 -0.2968
 8921W        W26445   9.590   7.695   3.204  0.2313  0.0421  0.0416
 8922W        W26446   0.237  13.482  13.554 -0.0808  0.0087 -0.0449
 8923W        W26447  10.968  12.120  13.651 -0.0171  0.2785 -0.1901
 8924W        W26448  16.054   2.230  17.408  0.0827  0.2053 -0.0306
 8925W        W26449  10.729   2.039  16.162  0.0729  0.1315  0.1591
 8926W        W26450  12.796   1.419  15.177  0.1349  0.0089 -0.2225
 8927W        W26451   8.749  11.716   4.337 -0.2254  0.0294  0.0689
 8928W        W26452   1.612  13.926   3.617  0.2005 -0.1249  0.0163
 8929W        W26453  17.150   0.934  12.971 -0.0458  0.1577  0.3207
 8930W        W26454   3.583  12.005  12.585 -0.1445 -0.1310  0.0898
 8931W        W26455   4.363   7.867   1.183  0.1362  0.1099  0.2362
 8932W        W26456  13.461   6.513   4.912 -0.0239 -0.3953  0.2164
 8933W        W26457  15.459   8.259  17.169  0.1722 -0.2608 -0.2196
 8934W        W26458  12.363   0.560  14.261  0.0932  0.1182 -0.0041
 8935W        W26459   6.002   0.258   0.132  0.2675  0.0411  0.1678
 8936W        W26460  15.419  16.856   1.617  0.0892 -0.3062 -0.0334
 8937W        W26461   2.956   9.434  16.143 -0.0422 -0.0990 -0.1039
 8938W        W26462   7.306   0.491   3.525 -0.0235 -0.1055  0.0739
 8939W        W26463   2.661  14.336  14.262  0.0685  0.2036 -0.0592
 8940W        W26464  11.954   5.015   0.969 -0.0540  0.0284  0.0693
 8941W        W26465  16.667  11.016   4.747  0.2187 -0.1167  0.4767
 8942W        W26466   9.188  14.111  15.390  0.2255 -0.1910 -0.3538
 8943W        W26467  12.799   7.635  14.630  0.2348  0.2536 -0.1053
 8944W        W26468   3.345  16.520  15.302  0.0820 -0.0564  0.0080
 8945W        W26469   9.009  11.084   3.421  0.0038 -0.1606  0.0104
 8946W        W26470   3.163   7.697  13.008 -0.0397  0.2664 -0.0549
 8947W        W26471   6.362   8.797  14.228 -0.0891  0.1454 -0.0252
 8948W        W26472   0.385  11.841  17.002  0.1267  0.1608  0.0033
 8949W        W26473   8.089  16.655  13.941  0.3783 -0.1937  0.0769
 8950W        W26474   3.939  10.995  16.601 -0.0147 -0.0563 -0.1643
 8951W        W26475  14.373   1.681  15.413 -0.2666  0.0475  0.0885
 8952W        W26476  13.211   6.158   4.693 -0.3370 -0.0897  0.0318
 8953W        W26477   8.075   0.073  16.554  0.0157  0.0399  0.2377
 8954W        W26478  15.870  10.446   6.122 -0.0873  0.0956  0.0538
 8955W        W26479   1.799  13.675  17.291  0.2140  0.5292 -0.3373
 8956W        W26480  14.831   8.605  12.110 -0.2175 -0.2616  0.4741
 8957W        W26481  13.460  13.352  14.995 -0.1001  0.1844 -0.0234
 8958W        W26482  10.268   1.189  15.078 -0.1416 -0.0701  0.0586
 8959W        W26483  13.567  16.184  15.202 -0.2705  0.3031  0.1168
 8960W        W26484  16.580  14.801   4.115  0.0083  0.0691  0.0644
 8961W        W26485   0.466   7.053   5.894 -0.0679 -0.1845 -0.1336
 8962W        W26486   2.793   1.556   4.810  0.1870 -0.0184  0.1642
 8963W        W26487   8.002  16.884  12.182  0.0867 -0.3553  0.1817
 8964W        W26488   5.969  10.125  13.938 -0.1878 -0.1547 -0.1467
 8965W        W26489   1.051   5.710  16.512 -0.0822  0.1087  0.0545
 8966W        W26490   3.002   1.210   1.844  0.1596 -0.0447  0.0541
 8967W        W26491   9.389  15.786  17.303  0.1507 -0.1066  0.4943
 8968W        W26492   1.049   4.624   5.687 -0.1191  0.0809 -0.1392
 8969W        W26493  15.541  15.232  13.355 -0.2155  0.1155 -0.0323
 8970W        W26494   2.257  10.051  14.145 -0.3827  0.3562 -0.1736
 8971W        W26495  11.294   3.456   2.855  0.2407  0.0386  0.1138
 8972W        W26496  13.557  13.113   4.154 -0.0251 -0.0110 -0.1100
 8973W        W26497   7.877  14.685  17.707 -0.0815 -0.0485  0.1600
 8974W        W26498  14.561   6.005   1.752  0.0319 -0.0014 -0.1554
 8975W        W26499   0.228  11.531  15.434  0.0608  0.0273 -0.0682
 8976W        W26500   8.534   9.811   2.347  0.0743  0.2971 -0.1019
 8977W        W26501   2.157   8.917   1.862  0.2104 -0.0643 -0.1049
 8978W        W26502  10.390   7.082   3.240  0.3615  0.2597 -0.3694
 8979W        W26503  11.277   6.334  16.505  0.5422  0.1723 -0.1990
 8980W        W26504   7.328   0.297   5.081 -0.2334  0.2603  0.0014
 8981W        W26505  16.649   5.533  13.814  0.2578 -0.1538  0.2591
 8982W        W26506   0.853  11.386  14.639  0.0249 -0.0339 -0.0924
 8983W        W26507   0.621   7.144  15.525  0.0299  0.1152 -0.0077
 8984W        W26508  16.555  15.475  12.559 -0.0611  0.0950  0.0823
 8985W        W26509  16.222   9.290   2.354  0.1396  0.1303  0.0822
 8986W        W26510   0.111  16.453  13.711  0.1132 -0.2470  0.0305
 8987W        W26511   7.241  13.338   0.862  0.0969  0.0898  0.3271
 8988W        W26512  12.976  15.911   1.967  0.1319  0.1212  0.1627
 8989W        W26513  15.743   2.508   5.778 -0.2210 -0.1524  0.0193
 8990W        W26514   4.854   9.278   3.314  0.0129 -0.1245 -0.2121
 8991W        W26515  11.845   6.220   3.913 -0.0440 -0.1150 -0.1170
 8992W        W26516   2.468   9.415   3.636 -0.1873  0.2146  0.1599
 8993W        W26517   9.661   3.166   4.504 -0.1287  0.1045 -0.0744
 8994W        W26518  10.790  14.877   1.767 -0.0387  0.0435  0.2088
 8995W        W26519  13.732  13.503  16.804  0.1276  0.0788 -0.2024
 8996W        W26520  15.886  12.815   5.161 -0.0292  0.0107  0.0291
 8997W        W26521   2.006   9.822  15.340  0.0680 -0.2294  0.4085
 8998W        W26522   2.762  16.900  13.883 -0.1843  0.2766 -0.1164
 8999W        W26523  13.372  10.511  15.128  0.2496 -0.1729 -0.1194
 9000W        W26524  15.868  16.528  14.897  0.0743  0.0193 -0.0547
 9001W        W26525  13.498   0.419  17.693  0.0919  0.0118  0.2357
 9002W        W26526  16.262  15.787  15.308 -0.0164 -0.0431  0.2874
 9003W        W26527   5.696   2.251   0.565 -0.0639  0.0423  0.2439
 9004W        W26528  11.326   7.692  14.919  0.1294 -0.2702  0.1225
 9005W        W26529  16.898   9.259  15.711 -0.0441 -0.0771 -0.1213
 9006W        W26530   7.036  12.527   5.728  0.0550  0.2626  0.0794
 9007W        W26531  12.072   0.663   3.199 -0.2775 -0.0003 -0.2457
 9008W        W26532   5.651   0.646   2.610  0.2312 -0.1531 -0.2252
 9009W        W26533   8.420   8.199  17.145  0.1660  0.1718  0.0440
 9010W        W26534  13.477  11.462  12.587 -0.1342 -0.0061 -0.1385
 9011W        W26535   5.687  16.846  14.102 -0.0296  0.0680 -0.1170
 9012W        W26536  13.373   5.574   1.755  0.1058  0.1926 -0.3143
 9013W        W26537   6.930   6.536   3.942 -0.2385 -0.0550  0.1638
 9014W        W26538  15.197   9.215   0.850 -0.0425  0.0123  0.0943
 9015W        W26539   4.937  13.650  15.146 -0.2347 -0.2540  0.1827
 9016W        W26540  14.764  13.893  13.229 -0.0643  0.4540 -0.4843
 9017W        W26541   8.839  16.679  13.518 -0.0062  0.1181  0.1743
 9018W        W26542   3.347  14.555   3.009  0.2242 -0.1124 -0.3484
 9019W        W26543  13.043  14.514  17.513  0.1109 -0.3146  0.1063
 9020W        W26544   8.413  11.150  15.944  0.2892  0.1779  0.0788
 9021W        W26545   1.243  11.561  16.471 -0.0025  0.0174  0.1931
 9022W        W26546   4.082  16.284   1.608  0.0261  0.1616 -0.0716
 9023W        W26547  13.044   0.302   1.494  0.1013  0.1082 -0.0500
 9024W        W26548  12.561   6.694   1.362  0.0682 -0.0340 -0.0900
 9025W        W26549   8.880  14.375   1.051 -0.1313  0.2275 -0.1732
 9026W        W26550   8.781  10.399  16.380 -0.0452  0.2725 -0.0391
 9027W        W26551   2.123   7.198   1.340  0.1512 -0.0796 -0.3911
 9028W        W26552  10.683   9.387   4.515  0.2861  0.1594 -0.1857
 9029W        W26553  11.516   3.642   2.374 -0.0565 -0.0700 -0.0506
 9030W        W26554   9.217  11.146  12.040  0.1521 -0.2853  0.0423
 9031W        W26555   4.091   8.425  16.606 -0.1857 -0.0754 -0.1886
 9032W        W26556  15.651   7.433  11.958 -0.1855  0.0912  0.0982
 9033W        W26557   6.964  12.353   0.341 -0.1022 -0.2563  0.1886
 9034W        W26558   4.189   9.932   5.130 -0.4735  0.2071  0.0052
 9035W        W26559   3.932   7.441  14.703  0.0808  0.0317  0.1104
 9036W        W26560  10.639   2.469  12.308 -0.2396  0.0048  0.1248
 9037W        W26561  11.041  11.647  17.421 -0.0099 -0.1920  0.1910
 9038W        W26562   0.079   4.302  15.735  0.1088  0.2556  0.1042
 9039W        W26563   8.289  13.149  13.453  0.0724 -0.2551 -0.3701
 9040W        W26564  16.890   1.473   2.670 -0.0139  0.1496  0.2564
 9041W        W26565  12.482   3.142  15.263 -0.0655  0.0208 -0.0310
 9042W        W26566   5.580  16.151   5.886 -0.1590  0.1406 -0.1713
 9043W        W26567   4.857   7.472   4.083 -0.2304  0.1515 -0.1101
 9044W        W26568  10.538  12.470  12.294  0.2720 -0.1419 -0.0400
 9045W        W26569  11.465   8.579   3.848  0.0986  0.1193 -0.0260
 9046W        W26570  10.021   8.699   0.391 -0.1413 -0.4195  0.2261
 9047W        W26571  12.284  14.923  14.845 -0.0205 -0.0205  0.2179
 9048W        W26572  16.596   1.514  14.889  0.1287  0.0704  0.3161
 9049W        W26573  11.779   2.824   1.862 -0.3401 -0.1000  0.2171
 9050W        W26574   5.672   5.703  12.827 -0.0912  0.0538 -0.0653
 9051W        W26575   3.413  14.800  13.685 -0.0305  0.1120 -0.1722
 9052W        W26576  16.998  13.149  16.677 -0.0357  0.1156  0.1138
 9053W        W26577   0.820   7.592   4.185  0.2723 -0.0313 -0.1397
 9054W        W26578   9.502   9.124  16.035  0.2014 -0.1980  0.2303
 9055W        W26579   9.053  13.928  13.287 -0.0933 -0.1182  0.2086
 9056W        W26580   8.418  15.063   0.661 -0.2672 -0.0930  0.0780
 9057W        W26581   6.744  14.160  16.674 -0.0627 -0.1994 -0.0893
 9058W        W26582  15.368  12.005   2.237 -0.0012  0.0438  0.0222
 9059W        W26583   2.020   4.872   5.259  0.2620  0.0773  0.1207
 9060W        W26584   1.796   4.737   0.843  0.0166 -0.1198 -0.0654
 9061W        W26585   6.832   4.737   1.115  0.1025  0.2005  0.0541
 9062W        W26586  11.127   8.620   2.520 -0.1107 -0.0933 -0.0358
 9063W        W26587  13.427   1.602   3.111  0.3413 -0.0869 -0.1889
 9064W        W26588   1.667  10.505   3.906  0.1930  0.2263 -0.0239
 9065W        W26589  11.679  11.829   2.963  0.1715 -0.0896  0.2024
 9066W        W26590  15.965  10.366   1.309 -0.2671  0.1553  0.0580
 9067W        W26591  15.809   9.479   2.142  0.0009 -0.3763 -0.0264
 9068W        W26592   5.094   4.675   6.533  0.0884  0.0069 -0.0789
 9069W        W26593  11.076   8.213   3.991  0.1271 -0.1871  0.0816
 9070W        W26594   3.714   0.641  15.893  0.1650 -0.2433 -0.1122
 9071W        W26595   3.112   2.001   2.176 -0.0745  0.2479  0.2192
 9072W        W26596   5.169  12.992  12.427 -0.1419 -0.1138  0.0373
 9073W        W26597   6.913  14.046   4.166  0.4059 -0.2315 -0.0023
 9074W        W26598   0.087   5.540   3.916 -0.0953 -0.2235 -0.0712
 9075W        W26599  15.093   4.860  16.695  0.0162  0.0640 -0.0424
 9076W        W26600   6.053  10.295   3.195 -0.0086 -0.2080  0.2439
 9077W        W26601  15.300  13.367  16.383  0.0790  0.0069  0.0855
 9078W        W26602   2.291   3.427   3.079  0.1350 -0.0571  0.0914
 9079W        W26603   4.650  10.329   4.475  0.0514 -0.2950  0.0730
 9080W        W26604   2.351  15.770  17.003 -0.1074  0.1993  0.0218
 9081W        W26605   5.105   4.129  16.447 -0.0941  0.1251  0.0625
 9082W        W26606   7.607   9.165  15.500 -0.1067  0.0915 -0.0293
 9083W        W26607   5.642  15.009   4.560 -0.0651  0.1335 -0.0734
 9084W        W26608  16.698  12.210   1.131  0.1810 -0.0038 -0.1435
 9085W        W26609  14.163   7.262   1.321 -0.2767  0.0961  0.0920
 9086W        W26610   4.522   0.655  12.530 -0.0412  0.0208  0.0353
 9087W        W26611   6.553   2.281  14.877  0.1364  0.1548 -0.0510
 9088W        W26612   4.226   4.286  14.312  0.0419 -0.0276 -0.2285
 9089W        W26613  14.250   5.294   0.544 -0.2043  0.0529 -0.1172
 9090W        W26614   5.857  10.260   1.690 -0.0147  0.1143 -0.2981
 9091W        W26615   7.242  14.202   1.894  0.4186 -0.0110 -0.0216
 9092W        W26616   3.809   1.541  15.094 -0.0499  0.0642  0.0204
 9093W        W26617   8.473  13.318  12.942  0.2218  0.0731  0.0907
 9094W        W26618  12.227   1.259   0.373  0.2187  0.2601 -0.1110
 9095W        W26619   2.575   7.126  15.858 -0.0382  0.0848  0.0110
 9096W        W26620  11.252  14.214   4.934 -0.0466  0.2629 -0.1098
 9097W        W26621   9.823   2.228   4.337  0.0943 -0.1280  0.0960
 9098W        W26622   1.104   9.244  15.813  0.1310  0.0944  0.0905
 9099W        W26623  15.614   1.498  15.953 -0.1179  0.1157  0.0879
 9100W        W26624   5.110   0.296   0.278 -0.1497  0.0106  0.0656
 9101W        W26625  10.006  15.105  17.440 -0.2557 -0.1660  0.1054
 9102W        W26626  16.617   5.691   1.525  0.5523 -0.1216 -0.0968
 9103W        W26627   0.085  15.562  13.166  0.0117 -0.1350 -0.0742
 9104W        W26628   9.708   5.913   4.668 -0.0554 -0.2442 -0.0035
 9105W        W26629  14.786   5.656  13.274  0.1167 -0.0529 -0.1257
 9106W        W26630  15.288  11.399  16.528  0.1274  0.0170 -0.0026
 9107W        W26631   6.682  16.258   4.518 -0.2402  0.1532  0.2016
 9108W        W26632   1.398   7.102   2.013  0.1934  0.0949  0.0181
 9109W        W26633   6.497  14.688  14.338  0.2140  0.1837  0.2092
 9110W        W26634  14.758   5.000  12.504 -0.2349  0.1205  0.0514
 9111W        W26635   2.084  11.688  16.660 -0.1113 -0.2091  0.0279
 9112W        W26636   9.837   1.249   2.291 -0.1358 -0.1027  0.0455
 9113W        W26637   4.459  11.039   0.141 -0.0481  0.1014  0.0497
 9114W        W26638   6.766   0.127  14.220 -0.0122 -0.1610 -0.4217
 9115W        W26639  16.843   9.138  16.195  0.2386  0.1287  0.0290
 9116W        W26640  10.980   1.937   3.107  0.0381 -0.1299 -0.1736
 9117W        W26641  15.856   5.825  13.433 -0.1857  0.0292 -0.0155
 9118W        W26642   6.647   2.292  16.300  0.3156  0.0518  0.3290
 9119W        W26643   1.380  11.365   4.160 -0.2621  0.2297 -0.0866
 9120W        W26644   0.616   9.596   4.982  0.0096 -0.0123 -0.1641
 9121W        W26645  10.373   6.432   1.386  0.1399 -0.1816 -0.3652
 9122W        W26646  15.547   8.677  17.448 -0.0005 -0.0814  0.1896
 9123W        W26647   8.981   3.512   3.570  0.0338 -0.0024  0.0218
 9124W        W26648   5.500   5.011   1.537 -0.0743 -0.1019 -0.2998
 9125W        W26649  14.976   6.219   3.202 -0.1852  0.0811 -0.2290
 9126W        W26650  15.565   7.131   2.000 -0.1362 -0.1697 -0.0803
 9127W        W26651   3.386   8.356  11.821 -0.2762 -0.1063  0.0262
 9128W        W26652   7.893   7.762   5.262 -0.1171 -0.0201 -0.0804
 9129W        W26653   3.981  11.227   0.301  0.2627 -0.2860 -0.0495
 9130W        W26654   7.832   9.304  12.026 -0.1201  0.2934 -0.1003
 9131W        W26655   3.276   0.280   3.613 -0.1032 -0.0683 -0.1358
 9132W        W26656   5.450  10.888  14.347 -0.1038  0.0283  0.1006
 9133W        W26657  10.391  10.371  15.302  0.0823  0.0417  0.0470
 9134W        W26658   3.554   8.124   3.143 -0.0737  0.3582 -0.1571
 9135W        W26659   7.176  14.841  16.389  0.1050 -0.2332  0.1869
 9136W        W26660  10.936  10.163  13.794 -0.0188  0.1327  0.1258
 9137W        W26661   3.387  14.655  17.402 -0.1682 -0.2390  0.1450
 9138W        W26662  10.618   9.053   2.679  0.1175 -0.4651  0.1311
 9139W        W26663  13.884   7.267   1.712  0.0041  0.1471 -0.1250
 9140W        W26664   6.642   4.510  11.430  0.0262 -0.0263 -0.0202
 9141W        W26665   0.903   9.145  14.851 -0.0352 -0.0373  0.1440
 9142W        W26666  15.069   4.739  17.200  0.2059 -0.1985  0.1375
 9143W        W26667  16.563  11.188  13.549 -0.2264 -0.0010 -0.0576
 9144W        W26668   8.462   2.856   2.732  0.1879  0.2175  0.1411
 9145W        W26669   2.324   0.209  16.124 -0.0814 -0.2391 -0.1956
 9146W        W26670   4.775   8.005   0.785  0.0053 -0.0727 -0.5479
 9147W        W26671   0.254   6.204  16.981 -0.1121  0.3688  0.2404
 9148W        W26672  10.414  16.885   1.751 -0.0963 -0.1049 -0.0211
 9149W        W26673  15.983   7.721   5.435  0.0469  0.0328 -0.0696
 9150W        W26674  13.659  10.911  14.935 -0.1218  0.2955  0.1909
 9151W        W26675  11.096   1.272  15.273 -0.2019  0.1892  0.2121
 9152W        W26676   7.761  14.177   4.375 -0.1997  0.0412  0.2102
 9153W        W26677   5.187   2.017  16.296  0.1361  0.0251 -0.0925
 9154W        W26678   3.215  14.997  16.312  0.3798 -0.3029  0.3673
 9155W        W26679  10.094   1.614  12.357 -0.0937  0.1065 -0.0312
 9156W        W26680   3.080   8.122  13.349 -0.0967  0.1598  0.1062
 9157W        W26681   8.957  11.356  17.661 -0.0387 -0.0954 -0.0764
 9158W        W26682   9.162   6.211   2.376 -0.1107 -0.0665  0.0453
 9159W        W26683  16.214  11.786   4.155  0.1087  0.0062 -0.0356
 9160W        W26684  15.148  15.440  17.369 -0.3101 -0.4565  0.2762
 9161W        W26685  10.258   3.827   1.126  0.2467 -0.1375  0.1015
 9162W        W26686   1.825   6.967   3.100  0.1201  0.1176 -0.1851
 9163W        W26687   4.309  10.000   4.634  0.0153 -0.1522 -0.2144
 9164W        W26688   0.017   1.451   4.677 -0.2572 -0.2489  0.0585
 9165W        W26689  11.045   5.794  11.242 -0.3612 -0.1476 -0.0180
 9166W        W26690  16.491   3.589   1.618  0.2010 -0.1691 -0.0988
 9167W        W26691   9.350  15.272  13.941 -0.0344 -0.0949  0.0565
 9168W        W26692  13.899   5.244  15.604 -0.0951  0.3992 -0.0146
 9169W        W26693  12.087  14.113  16.592  0.0315 -0.0911  0.1486
 9170W        W26694   3.902   3.869  13.594  0.0662  0.0382  0.2947
 9171W        W26695   1.379  16.804   0.210  0.0215 -0.2848  0.1187
 9172W        W26696   4.378  11.359   3.903 -0.2554  0.2610  0.1973
 9173W        W26697  13.523   9.973   1.451  0.0536  0.1045  0.1703
 9174W        W26698  16.103   4.896   0.911  0.3119  0.1477 -0.1882
 9175W        W26699   1.306   5.162  15.704 -0.2283  0.2534 -0.2711
 9176W        W26700  16.650  16.081   1.539 -0.1817 -0.1038 -0.2072
 9177W        W26701  11.295  10.444   5.053  0.0321  0.1193 -0.1097
 9178W        W26702   9.618   7.997   3.705  0.0910 -0.1104 -0.4191
 9179W        W26703   5.883   1.199  16.226 -0.1143 -0.1408  0.0503
 9180W        W26704   0.791   0.468   1.931 -0.0697 -0.0963  0.1866
 9181W        W26705   4.148  10.729  12.939 -0.1131 -0.0927  0.0279
 9182W        W26706   6.280   1.003   0.583 -0.0114 -0.5000  0.1048
 9183W        W26707  13.657  10.848  11.736 -0.1620  0.0024 -0.0695
 9184W        W26708   4.145  14.412   2.701  0.0036  0.0445 -0.0879
 9185W        W26709   0.664  15.041   0.438 -0.3519 -0.0678 -0.0972
 9186W        W26710   2.109   8.495   1.632  0.1261 -0.0868  0.2481
 9187W        W26711  11.206  11.160  13.873  0.2721 -0.1280 -0.1898
 9188W        W26712  15.228   2.087  12.812  0.1958  0.2169 -0.0228
 9189W        W26713   0.031   6.811   3.221 -0.0982  0.1637 -0.0846
 9190W        W26714   3.319   0.705   3.913 -0.2808 -0.0798  0.0212
 9191W        W26715   3.187   4.614   5.085  0.3078 -0.0597  0.1728
 9192W        W26716   0.883   0.097   2.967  0.1023  0.1700  0.0174
 9193W        W26717   9.282  10.917  16.736 -0.1639  0.2181  0.1659
 9194W        W26718   3.896   9.108   0.714  0.0649  0.4101  0.1578
 9195W        W26719   9.370  12.336  15.733  0.1822  0.0897 -0.1657
 9196W        W26720   4.094  14.467  13.243  0.0990 -0.0392  0.1868
 9197W        W26721   5.707  16.918   0.868  0.2420 -0.0907 -0.0581
 9198W        W26722   9.599  14.799  16.295 -0.0273 -0.2047 -0.2837
 9199W        W26723   3.829  12.581   2.190  0.2244 -0.4032  0.1842
 9200W        W26724   4.290   9.339  16.091  0.0027  0.0935  0.1707
 9201W        W26725   7.140   2.841  17.556 -0.0346  0.0227 -0.2333
 9202W        W26726  11.914   5.998   4.410  0.4313  0.1010  0.1423
 9203W        W26727   1.228   7.541   5.512 -0.1695  0.0991 -0.1045
 9204W        W26728   9.939  12.761  13.436 -0.0158 -0.1911  0.2129
 9205W        W26729   0.110   4.481  14.867  0.2320 -0.0822 -0.1001
 9206W        W26730  14.670  13.567  12.320 -0.2828 -0.0800  0.1047
 9207W        W26731   9.023   2.047   2.834 -0.3902  0.2331 -0.0197
 9208W        W26732  11.034  13.005   1.762 -0.4001 -0.0421 -0.3468
 9209W        W26733  14.398   2.672   3.715 -0.2393 -0.2108  0.3775
 9210W        W26734   5.691  15.292   3.651  0.0178  0.1152  0.1534
 9211W        W26735  15.015   0.490  12.573 -0.1673  0.3504  0.3278
 9212W        W26736   2.155   4.257   0.965 -0.0884  0.1881 -0.4225
 9213W        W26737   6.055   8.421   1.425 -0.3412  0.0853  0.1207
 9214W        W26738   6.985   0.714   5.252 -0.0586 -0.2079 -0.1149
 9215W        W26739   1.527   2.623  16.084  0.0214  0.0040  0.4268
 9216W        W26740   9.211   6.733  16.448 -0.0272 -0.1253 -0.1829
 9217W        W26741  12.305  15.993   5.002  0.0444 -0.1950 -0.5017
 9218W        W26742   0.889  15.956  13.416  0.2698  0.0516  0.2021
 9219W        W26743  14.691  14.821   4.735  0.2616  0.0522 -0.1734
 9220W        W26744   7.293  15.713  15.050  0.0636  0.1472  0.1592
 9221W        W26745   1.564  14.712  15.727 -0.2179  0.1767  0.0746
 9222W        W26746   1.599   5.875  16.882 -0.0378 -0.0035  0.0606
 9223W        W26747   1.524  11.080  14.631 -0.1362 -0.1223  0.4109
 9224W        W26748   5.783  14.419   1.406  0.0520  0.2527 -0.1280
 9225W        W26749   7.492  14.477  10.950 -0.0715 -0.0576  0.0857
 9226W        W26750   4.211   2.072   0.509 -0.0614  0.1284 -0.1570
 9227W        W26751   2.631   8.425  17.274 -0.0639  0.0764  0.1932
 9228W        W26752   8.387  14.875   5.343 -0.0831 -0.0328 -0.1494
 9229W        W26753   0.788   0.196  16.500  0.1291  0.1237  0.0420
 9230W        W26754   3.324  15.265  16.731  0.1342 -0.4064  0.1350
 9231W        W26755   8.565   2.056  12.755 -0.3582 -0.1805  0.0341
 9232W        W26756  12.512   4.017  14.115 -0.2231 -0.0185  0.0858
 9233W        W26757  10.772  14.493   0.930  0.3659  0.0259 -0.1243
 9234W        W26758  13.923   4.984  16.031 -0.1723  0.2356  0.3320
 9235W        W26759   5.235   4.789  12.712  0.2940  0.0798 -0.0102
 9236W        W26760   4.831   8.476  11.949 -0.1491  0.1760 -0.3242
 9237W        W26761  10.886   4.077   0.378 -0.1529  0.1556  0.1668
 9238W        W26762   5.184   4.695   4.153  0.0162 -0.0010 -0.4539
 9239W        W26763  13.444   5.003  15.477 -0.0200 -0.0530  0.1133
 9240W        W26764  14.893  15.041  16.674 -0.1155 -0.0012  0.2227
 9241W        W26765  14.335  11.051  12.155 -0.2313 -0.2036 -0.1896
 9242W        W26766   4.026   6.050   2.652  0.1025  0.0732 -0.4031
 9243W        W26767  14.734   0.930   1.973 -0.0602 -0.3447  0.3594
 9244W        W26768   0.084  10.945   1.451 -0.1966  0.1090 -0.0373
 9245W        W26769   9.548   7.332  17.030  0.2855  0.1271 -0.0075
 9246W        W26770   2.645   5.038  13.230  0.1084  0.0661 -0.0374
 9247W        W26771  11.835   9.336   2.235 -0.1029 -0.3060  0.1684
 9248W        W26772   9.596   2.695   1.253 -0.1855  0.1620 -0.1390
 9249W        W26773   8.110   4.206   5.599 -0.3190 -0.1905  0.0786
 9250W        W26774   3.572   7.883   0.318 -0.0840  0.2378 -0.0643
 9251W        W26775  14.024   0.110   3.939 -0.0322  0.0264 -0.0538
 9252W        W26776   2.673  15.233   3.392  0.0458 -0.1475  0.1981
 9253W        W26777   3.467   5.261   6.644  0.1570  0.1046  0.3141
 9254W        W26778   2.314   4.306  14.508  0.0327 -0.0025  0.1553
 9255W        W26779   1.266  12.403   3.896  0.2108 -0.0562  0.1691
 9256W        W26780  14.668   9.632  13.287  0.0522  0.0570  0.0761
 9257W        W26781  15.343   7.379  14.767 -0.0094  0.1672  0.2383
 9258W        W26782  16.600   0.117  14.961  0.2123 -0.0455 -0.1910
 9259W        W26783  13.733   5.154   2.578 -0.2659  0.0550 -0.0685
 9260W        W26784   3.142   4.766   2.740  0.0763  0.0068 -0.1145
 9261W        W26785  13.582   5.471  15.312 -0.1249  0.0671  0.1438
 9262W        W26786   6.537  16.226  16.606 -0.1189 -0.1195  0.1287
 9263W        W26787   9.860  14.397  12.657  0.1228  0.0903 -0.0265
 9264W        W26788  13.361   9.247   2.597 -0.0621  0.2502  0.2036
 9265W        W26789   5.305   9.385  12.193  0.2265  0.1005 -0.1605
 9266W        W26790   6.920   6.257   1.116  0.0802 -0.3571 -0.1659
 9267W        W26791   4.681   7.876  13.851 -0.1926 -0.0839 -0.4091
 9268W        W26792  10.487  11.174   0.800 -0.0265 -0.2426 -0.2156
 9269W        W26793   1.386  15.748   5.148 -0.0833  0.0806  0.2001
 9270W        W26794  16.489   8.717  15.317  0.2069 -0.3320 -0.0582
 9271W        W26795   6.356   1.583   4.276  0.1383 -0.0265 -0.1783
 9272W        W26796   2.325  11.763   2.478 -0.2254  0.1325 -0.1543
 9273W        W26797   9.194  11.740  16.330 -0.1908 -0.0497 -0.0276
 9274W        W26798   6.255  12.962  15.437  0.2424 -0.3944 -0.0055
 9275W        W26799  10.064  14.971  13.744 -0.2214 -0.2237  0.0360
 9276W        W26800   4.050  13.058   0.952  0.0733 -0.1129  0.0541
 9277W        W26801  11.948  17.043   3.891  0.2144 -0.0307 -0.0579
 9278W        W26802   8.709   4.952  12.570 -0.1904 -0.3268  0.0827
 9279W        W26803   1.030   0.899  11.493  0.0976  0.2599 -0.0378
 9280W        W26804  14.417   3.017  17.149  0.0088 -0.2113  0.0022
 9281W        W26805   8.609   7.118   1.945 -0.0502 -0.2456 -0.0142
 9282W        W26806   1.197  15.613  13.194  0.0141  0.3262 -0.2107
 9283W        W26807  11.430   5.279   3.190  0.0428  0.0520  0.1427
 9284W        W26808   5.970   4.890   2.320 -0.1143 -0.0220 -0.0963
 9285W        W26809  16.981  12.074   4.983 -0.2233  0.0917  0.2547
 9286W        W26810  16.282  12.452   2.534 -0.1543  0.3923 -0.5837
 9287W        W26811   8.780  11.394  12.298  0.1008  0.1140  0.2427
 9288W        W26812   5.659  11.711  17.356 -0.5820  0.2367 -0.1363
 9289W        W26813   9.344  14.509  13.791 -0.0536  0.0482  0.2530
 9290W        W26814  14.380  14.089   2.464 -0.0341  0.0699 -0.0937
 9291W        W26815   9.666   1.902  16.345  0.0512 -0.1172  0.1801
 9292W        W26816  15.610   6.740   2.426 -0.2241  0.1723  0.0254
 9293W        W26817   8.640   4.436  16.010  0.1287  0.0853  0.0510
 9294W        W26818   9.531   9.378  16.858  0.0995  0.1928 -0.2152
 9295W        W26819   8.833  11.212   4.452  0.1131  0.1408  0.3309
 9296W        W26820   5.923   8.955  13.159  0.3319 -0.0277 -0.2251
 9297W        W26821   2.379  17.087   3.730 -0.0242  0.0744  0.0321
 9298W        W26822   8.747  13.624  13.520 -0.1324 -0.0493  0.2851
 9299W        W26823  11.662   8.597   3.376  0.0360 -0.2006 -0.2440
 9300W        W26824   4.929  14.101  14.378  0.0604 -0.1655 -0.0464
 9301W        W26825  13.431   9.873  16.952 -0.3009 -0.1463  0.3456
 9302W        W26826   8.213   2.792   4.901  0.1413 -0.1193  0.1451
 9303W        W26827   3.716   7.453  15.412  0.1249 -0.0549  0.3847
 9304W        W26828  10.221   5.995   5.321  0.3193  0.3124 -0.0024
 9305W        W26829   2.533  15.634   4.618 -0.1745 -0.0448 -0.2513
 9306W        W26830   3.595   8.065   3.864  0.2647  0.0043 -0.3426
 9307W        W26831  16.805   3.165  17.555  0.3392 -0.1693  0.0665
 9308W        W26832   0.001   5.881  15.225 -0.2111  0.1856 -0.1134
 9309W        W26833   7.398  16.908  14.432 -0.1624 -0.0893 -0.0644
 9310W        W26834  12.481  16.657  16.562 -0.3647  0.3170  0.2408
 9311W        W26835   1.758  16.111   0.758 -0.0777  0.2171 -0.0848
 9312W        W26836   9.634   8.268  14.187 -0.0126 -0.3888 -0.1549
 9313W        W26837   7.736  13.506  14.602  0.0245 -0.2489  0.1557
 9314W        W26838   8.020  11.180   3.517 -0.0530  0.2273  0.0826
 9315W        W26839   3.165   3.604  16.031  0.2155 -0.0041 -0.1161
 9316W        W26840  12.985  17.102  16.802  0.2252 -0.0004 -0.2390
 9317W        W26841  11.142  12.167  12.930  0.2035 -0.1024 -0.1720
 9318W        W26842  10.576  11.912  11.223  0.2376 -0.1605  0.0628
 9319W        W26843   4.521   9.951   1.881  0.3515 -0.0084  0.1543
 9320W        W26844  12.861   6.125  14.322  0.1232  0.1414 -0.0650
 9321W        W26845   1.429  14.856  11.964  0.4707  0.2549 -0.1266
 9322W        W26846   0.483   3.089  15.427 -0.1830 -0.1111 -0.1528
 9323W        W26847  11.103   5.617  15.010  0.1860  0.1023  0.2403
 9324W        W26848   1.857   2.265   2.566  0.0489  0.1039 -0.0028
 9325W        W26849  11.448   3.020   3.052  0.1205  0.2968 -0.0376
 9326W        W26850   7.341   4.327   5.115  0.0218 -0.3332 -0.0185
 9327W        W26851  14.504  11.498  13.946 -0.2522 -0.1904  0.0775
 9328W        W26852  12.089   4.315  16.734 -0.1910  0.0231 -0.2999
 9329W        W26853  15.898  17.097  17.584 -0.1444  0.0471  0.1727
 9330W        W26854  15.260   4.517  17.671 -0.0227  0.0602 -0.4211
 9331W        W26855  12.850   1.818   4.885 -0.1101  0.1567 -0.2017
 9332W        W26856   6.990   7.184  12.899  0.0810 -0.1955 -0.1163
 9333W        W26857  14.251   0.953  17.624  0.0099 -0.1213  0.0994
 9334W        W26858   8.537   7.830  12.154 -0.0695 -0.2230 -0.0290
 9335W        W26859  13.272  14.901  12.166 -0.1837 -0.1596  0.3034
 9336W        W26860   1.301  15.276  12.302  0.1176  0.1890 -0.0332
 9337W        W26861   3.592  15.009   0.414  0.1687  0.0511  0.2177
 9338W        W26862  14.981  11.588  12.130 -0.1540 -0.0070 -0.0889
 9339W        W26863   8.739  14.594  12.134  0.2511  0.3031 -0.0328
 9340W        W26864   0.313  13.190  14.441  0.0763 -0.2596 -0.2936
 9341W        W26865  10.974  11.431   3.912  0.1427 -0.0952  0.1089
 9342W        W26866   5.925   6.247  16.299  0.1038  0.0461  0.1007
 9343W        W26867   5.204   2.435   1.276  0.0933 -0.0129  0.2654
 9344W        W26868   5.645   8.918   0.800  0.4428  0.0717 -0.3491
 9345W        W26869   3.779   8.873  13.026 -0.1173 -0.0842  0.0410
 9346W        W26870  10.521  13.692  17.254 -0.1453  0.2443 -0.0366
 9347W        W26871   5.942   8.749   4.931 -0.2043  0.0440  0.2766
 9348W        W26872   0.511   8.818   3.169  0.0791  0.0303  0.1044
 9349W        W26873   2.563   9.778  12.622 -0.3006  0.3291 -0.2446
 9350W        W26874   4.971   6.129  15.475  0.5033 -0.1365  0.1535
 9351W        W26875   9.679   0.611   0.928 -0.5892  0.2385  0.1717
 9352W        W26876   6.000   4.271  13.855 -0.1642  0.4305  0.0223
 9353W        W26877   4.618   9.919  13.500  0.0517 -0.1407  0.0998
 9354W        W26878   3.457   7.882  17.229 -0.3263  0.2334 -0.2282
 9355W        W26879   5.623  13.241   2.037  0.0883  0.3201 -0.0033
 9356W        W26880  15.224  11.014   1.544 -0.0097  0.0695 -0.2244
 9357W        W26881  16.152   6.439  17.601 -0.1140  0.2534  0.1395
 9358W        W26882  13.961   8.567   5.314 -0.0392 -0.1413 -0.0270
 9359W        W26883   2.933   8.053  15.810  0.0388 -0.2800 -0.1401
 9360W        W26884   0.840   4.974   2.616 -0.2324  0.0865 -0.3602
 9361W        W26885  12.763  12.802  17.550 -0.0029 -0.0275  0.1010
 9362W        W26886  13.112  14.186  12.959  0.0356  0.0388 -0.0086
 9363W        W26887  13.197   7.252   4.968  0.0657 -0.1952 -0.5486
 9364W        W26888   0.677   4.616  15.668 -0.0565 -0.2972 -0.3752
 9365W        W26889   1.996   0.914   3.920  0.1689 -0.0392  0.1202
 9366W        W26890  16.665   3.628   1.161  0.0877 -0.1972 -0.0283
 9367W        W26891  13.945  13.828  13.586 -0.0754 -0.0536 -0.2793
 9368W        W26892   2.586  10.440   3.935 -0.0627  0.2002 -0.1028
 9369W        W26893   0.612   0.445   3.924 -0.1065 -0.2317 -0.2260
 9370W        W26894  16.919  14.499  12.203 -0.0212  0.0171  0.1085
 9371W        W26895  16.495  11.732  13.816 -0.3047  0.0177  0.0208
 9372W        W26896   0.873  16.673   2.761  0.2164 -0.3138 -0.0725
 9373W        W26897   4.540   3.408  16.118 -0.1232  0.0797 -0.1387
 9374W        W26898   3.119  15.025   3.385 -0.1942  0.3271 -0.0048
 9375W        W26899   7.532  12.752  13.933 -0.0390 -0.1386  0.3617
 9376W        W26900   7.563   4.723   4.821 -0.0770 -0.2678 -0.0445
 9377W        W26901   5.680   5.580   3.041  0.0575  0.1409  0.2252
 9378W        W26902  16.366   1.465   0.514 -0.0564  0.1079  0.0598
 9379W        W26903  12.869   1.147   4.884 -0.2069  0.0019 -0.3257
 9380W        W26904   0.278  11.931   4.907  0.1526  0.2731 -0.2259
 9381W        W26905   7.160   4.793   0.070 -0.1826 -0.4005  0.1637
 9382W        W26906  17.024   1.165   0.226  0.1533  0.1898  0.1998
 9383W        W26907   3.303  16.656   2.490 -0.0098 -0.0254 -0.0277
 9384W        W26908  12.656   6.270  15.229 -0.1007  0.0822  0.0230
 9385W        W26909   4.129  16.268   3.026 -0.1758  0.4072 -0.3632
 9386W        W26910  10.965   0.721  16.531 -0.1100  0.1354 -0.0817
 9387W        W26911   0.628  14.627  14.577  0.0374 -0.0673  0.0191
 9388W        W26912   6.653   2.521  15.849  0.0856 -0.1868 -0.0146
 9389W        W26913  15.222  16.586  12.540  0.1123  0.1629 -0.0428
 9390W        W26914   5.400   9.930   0.590  0.1839  0.3767  0.2026
 9391W        W26915   0.777  11.119  17.264 -0.2602 -0.0268 -0.5063
 9392W        W26916  15.971   6.597  12.013 -0.0411  0.1660 -0.0232
 9393W        W26917   3.605  15.594  13.045 -0.0836 -0.1189 -0.0777
 9394W        W26918   6.224  13.401  15.666  0.0606 -0.1276  0.0995
 9395W        W26919  16.220   8.692   5.417  0.1446  0.0849  0.1510
 9396W        W26920   1.602   6.429   3.122 -0.3587  0.1964  0.1376
 9397W        W26921   5.978  13.300   0.737 -0.3164 -0.2038  0.2659
 9398W        W26922   8.206   6.334  16.031 -0.0710 -0.2461 -0.0919
 9399W        W26923  13.702   3.574   4.957  0.1605  0.2612 -0.2915
 9400W        W26924   6.098   3.425  17.018  0.0460 -0.0282 -0.1683
 9401W        W26925  15.399  11.970  14.718  0.1302  0.2917  0.0724
 9402W        W26926  13.015   7.949  14.179  0.1176  0.0687  0.1457
 9403W        W26927   2.899  12.582  13.652 -0.2421  0.3046 -0.0416
 9404W        W26928  15.754   9.893  14.058  0.0920 -0.1704 -0.1104
 9405W        W26929  16.608  11.899  15.251  0.3030 -0.0431 -0.1834
 9406W        W26930  14.329  16.641  12.089  0.1333  0.1342  0.2320
 9407W        W26931  14.479   4.361  12.944 -0.1020  0.1612  0.1521
 9408W        W26932   1.479   4.663   2.125  0.1581 -0.3199 -0.1507
 9409W        W26933  14.272  14.499   6.351  0.3301  0.3157 -0.2234
 9410W        W26934   4.319   1.859  14.773  0.0776 -0.2113 -0.1666
 9411W        W26935  11.121  16.336  13.310 -0.1642 -0.1276 -0.0877
 9412W        W26936   9.554  13.783  17.444 -0.0568 -0.3099  0.1015
 9413W        W26937   9.433   2.432  16.736  0.2991  0.0500 -0.3371
 9414W        W26938   3.393   1.172  12.989 -0.1161 -0.0287 -0.0965
 9415W        W26939   3.063  10.977   3.067 -0.0374 -0.3259 -0.1553
 9416W        W26940  13.916   6.676  15.651  0.1014 -0.1298  0.2230
 9417W        W26941  11.303  10.416  12.870  0.1067  0.0637 -0.0606
 9418W        W26942  15.643   4.883   0.620 -0.2307  0.1078 -0.1295
 9419W        W26943  12.711  11.082  13.168 -0.0982  0.3299  0.1591
 9420W        W26944   3.402   4.353   3.051  0.2557 -0.0826  0.3042
 9421W        W26945  11.751  13.846   1.958 -0.4939  0.0595 -0.0499
 9422W        W26946   5.727   6.448  17.318  0.1381  0.1702  0.0518
 9423W        W26947  12.025   9.465   4.351  0.2780 -0.3395 -0.1008
 9424W        W26948   1.964  12.700  14.569 -0.1624 -0.1130  0.2738
 9425W        W26949  14.197  15.768  13.414 -0.0655  0.2093  0.2892
 9426W        W26950   6.992  12.780  16.295  0.1298  0.0789  0.1150
 9427W        W26951  10.356   1.059  14.616 -0.0960  0.2519  0.0604
 9428W        W26952  14.042  15.010   3.177  0.1674 -0.1421 -0.2258
 9429W        W26953   8.972  17.122  13.305  0.1478 -0.0706  0.5101
 9430W        W26954  11.241  16.830  13.435 -0.2140  0.1268  0.0551
 9431W        W26955   3.106  10.509  13.679 -0.1276  0.0158 -0.0141
 9432W        W26956   1.855   8.851   4.928  0.1114  0.0499 -0.0734
 9433W        W26957  13.042   2.665  17.359  0.2938 -0.0568 -0.1565
 9434W        W26958  12.811   9.944  12.577  0.1422 -0.3736 -0.0633
 9435W        W26959  10.974   9.737   3.302 -0.4684  0.2330  0.0339
 9436W        W26960  13.929   3.896  13.863  0.0119  0.1079 -0.0111
 9437W        W26961  11.142   1.770  15.430 -0.1969 -0.1550  0.0964
 9438W        W26962  14.239   6.543  13.199 -0.2937 -0.0363  0.2900
 9439W        W26963  15.420  12.159   0.870 -0.1566  0.0571  0.2762
 9440W        W26964   0.041  12.283  13.607  0.1170  0.0145 -0.1649
 9441W        W26965   9.919   5.083   5.051 -0.3650  0.2817 -0.3374
 9442W        W26966  13.491   2.535  16.189  0.0832  0.0920 -0.1737
 9443W        W26967   6.815   4.816  12.730 -0.2903 -0.0138  0.0071
 9444W        W26968   3.518  11.943  16.287 -0.0966 -0.2490 -0.2748
 9445W        W26969   9.605   0.679  13.856  0.0495 -0.1529 -0.3323
 9446W        W26970  10.202   2.899  15.566  0.0052  0.0377 -0.1706
 9447W        W26971  11.876  17.011  13.698  0.1500 -0.0743 -0.1395
 9448W        W26972  16.171   4.060   2.270  0.2073 -0.2597  0.1103
 9449W        W26973   4.571   3.109  12.584  0.0752  0.0035  0.0880
 9450W        W26974  12.807  10.267   0.387 -0.0370 -0.3347  0.0117
 9451W        W26975  16.008  16.779  13.851  0.1271  0.0927  0.0745
 9452W        W26976   4.478   0.661  17.386  0.1938 -0.0987 -0.1369
 9453W        W26977   8.288  10.783  14.583  0.1723 -0.3014 -0.2059
 9454W        W26978  11.664  11.159   1.007  0.0240  0.0128 -0.2392
 9455W        W26979   3.790   5.598   2.808 -0.0866 -0.0168 -0.1753
 9456W        W26980   1.933   5.988   3.297 -0.0211 -0.1998  0.2001
 9457W        W26981   4.064   5.256  16.309 -0.1725 -0.2237 -0.1447
 9458W        W26982   6.450   0.460   5.172  0.0295  0.2767 -0.4376
 9459W        W26983   7.100   5.652  13.109  0.1601 -0.2123  0.3862
 9460W        W26984   4.748  16.568  17.651  0.2292 -0.0061 -0.0292
 9461W        W26985  15.696   1.191  16.392  0.1068 -0.1127  0.3262
 9462W        W26986   2.641  17.095   0.541 -0.0679 -0.2396 -0.1691
 9463W        W26987  15.189   0.258   4.722  0.1346  0.2094 -0.0899
 9464W        W26988  13.048   6.742   4.099 -0.2607 -0.1921  0.1048
 9465W        W26989   3.561   3.517  15.129  0.0046 -0.0655 -0.1037
 9466W        W26990   5.542  12.795  16.448  0.2749  0.1006  0.0746
 9467W        W26991   9.400  15.778  12.652 -0.0310 -0.0057  0.1566
 9468W        W26992  13.066  17.107  15.209  0.0748 -0.1336  0.0240
 9469W        W26993   2.377  15.497  15.179  0.0237  0.0483  0.0395
 9470W        W26994   7.827  15.268   0.783  0.4611 -0.1135  0.0652
 9471W        W26995   9.385   7.730  14.733  0.1007  0.5659 -0.0449
 9472W        W26996   6.013  10.961   4.487 -0.0716  0.1774 -0.2131
 9473W        W26997  15.188   8.471  15.668  0.3189 -0.0796  0.1390
 9474W        W26998   7.690  15.923  16.568  0.0353 -0.1603 -0.2001
 9475W        W26999   1.688   8.359  16.964 -0.0842 -0.0227  0.0423
 9476W        W27000   6.694   4.248  12.694  0.2555  0.1920  0.3044
 9477W        W27001   2.957  14.511  17.657  0.0941  0.0835 -0.0756
 9478W        W27002   5.114  12.796  16.142  0.3151  0.2122  0.0213
 9479W        W27003   4.259   7.284  15.636  0.2711  0.0443 -0.1693
 9480W        W27004   7.696   5.455   0.471  0.3228 -0.0502 -0.5131
 9481W        W27005  11.176  12.031   0.686 -0.1311  0.0477  0.1178
 9482W        W27006  11.418   2.556   3.935  0.0484 -0.0374  0.1604
 9483W        W27007  11.445  10.283  16.739 -0.1846  0.1899  0.0750
 9484W        W27008  12.973   7.774  16.087 -0.2661  0.2497 -0.0423
 9485W        W27009  14.856   0.908  16.300  0.0053  0.2308 -0.1642
 9486W        W27010  12.922   2.954   3.780 -0.0678  0.0472  0.0188
 9487W        W27011   0.487  10.883   1.766 -0.0723 -0.0118 -0.3130
 9488W        W27012  16.596  16.886   1.545  0.0986 -0.0694 -0.0331
 9489W        W27013   9.946   5.951   5.720 -0.0448 -0.1287 -0.0103
 9490W        W27014  14.687   5.353  16.139 -0.2439  0.1213  0.0174
 9491W        W27015  16.104   2.562   1.332  0.0364 -0.0291 -0.2783
 9492W        W27016   0.798   0.699   0.460 -0.0493  0.0789 -0.2763
 9493W        W27017  15.136   3.152  12.671 -0.3907 -0.3369 -0.0466
 9494W        W27018  15.816  12.846   1.737 -0.0199  0.0157 -0.2616
 9495W        W27019  16.350  13.686   1.379 -0.2584  0.2812  0.0939
 9496W        W27020  16.672   5.945  14.780 -0.0619 -0.0375  0.3446
 9497W        W27021  15.816  15.882  14.789  0.1484 -0.1747  0.1979
 9498W        W27022   3.422  15.808   5.179 -0.2108 -0.1441  0.1521
 9499W        W27023  15.856   8.293  12.984 -0.1352  0.2109 -0.0442
 9500W        W27024   9.275  15.921   1.031 -0.0904  0.0424 -0.3256
 9501W        W27025   3.459  14.324  16.563 -0.0690 -0.0346  0.1027
 9502W        W27026  14.819   8.027  14.283  0.1981  0.5203  0.0291
 9503W        W27027   1.945  14.146   1.499 -0.1515  0.0684  0.5140
 9504W        W27028  14.151   8.187  15.693  0.1887 -0.3046  0.1603
 9505W        W27029   9.185  14.029   5.270 -0.0798  0.0628  0.0904
 9506W        W27030  12.240  16.181  14.254 -0.0218  0.1282  0.1534
 9507W        W27031  14.449   8.182   0.934  0.2372 -0.1009  0.0520
 9508W        W27032  12.091  16.504  15.537 -0.2431 -0.0105  0.2223
 9509W        W27033  16.652  15.384   3.340  0.2884 -0.1974  0.2149
 9510W        W27034   7.471   6.913   2.311 -0.2170 -0.1169  0.3689
 9511W        W27035  11.608  16.159  13.199 -0.1124 -0.1576  0.0286
 9512W        W27036  14.509  10.387  16.608 -0.0397 -0.0362 -0.1134
 9513W        W27037  10.763   0.647   3.043  0.2985 -0.0110  0.1163
 9514W        W27038   0.431  16.259   0.622 -0.1100  0.0033 -0.0697
 9515W        W27039   3.779   7.580   1.774  0.0048  0.0473 -0.1081
 9516W        W27040   5.760   0.939  16.999 -0.0301 -0.0770 -0.0955
 9517W        W27041   9.977   6.786   0.992  0.2194 -0.2717 -0.1654
 9518W        W27042   1.511   2.111   3.521  0.0137  0.1969  0.2730
 9519W        W27043  11.145   4.850   5.502 -0.2532 -0.5704  0.2457
 9520W        W27044   6.177  10.195   4.195  0.1732 -0.0191 -0.1940
 9521W        W27045  16.849  10.938   5.648 -0.1170  0.1234 -0.0230
 9522W        W27046   8.738   5.398  14.919 -0.0205 -0.0738 -0.2739
 9523W        W27047  13.746   8.290   3.207  0.1206  0.2484  0.0509
 9524W        W27048   5.332  13.016  12.934  0.1261  0.1775  0.1696
 9525W        W27049   2.484   9.326  12.342  0.0635 -0.1369 -0.3424
 9526W        W27050  16.820  14.391   5.470 -0.0877 -0.0140 -0.0828
 9527W        W27051   6.023   8.001   3.311 -0.1989 -0.4503 -0.0431
 9528W        W27052   3.499  16.003  14.569 -0.1430 -0.0191 -0.4520
 9529W        W27053  14.149   4.353  13.623  0.0671  0.0689 -0.0931
 9530W        W27054   1.715   5.072  15.121  0.0572  0.0683 -0.3057
 9531W        W27055  12.880  14.874  15.978 -0.0902 -0.1034 -0.0839
 9532W        W27056  12.923   0.051  13.059  0.2312 -0.1140  0.3832
 9533W        W27057  15.531  12.910  17.501 -0.1100 -0.2857  0.1932
 9534W        W27058   4.564   8.080  16.694  0.1408 -0.2557  0.0999
 9535W        W27059  14.256   3.185  14.993  0.0013  0.2188 -0.2622
 9536W        W27060   5.336  15.630   3.374 -0.1302  0.1238  0.1829
 9537W        W27061   0.852   3.898   4.517 -0.2930  0.1424  0.1168
 9538W        W27062   3.817  14.004   1.792  0.0134  0.2914 -0.1112
 9539W        W27063  10.981   9.459  12.958  0.0255 -0.1920 -0.2227
 9540W        W27064   2.735   1.987   1.352  0.0978 -0.2727 -0.1836
 9541W        W27065  13.659   3.837   0.317  0.0564  0.0674  0.2883
 9542W        W27066   9.019   8.160   0.294  0.0001  0.0296 -0.4411
 9543W        W27067  16.549  14.701   4.628 -0.0762  0.1520 -0.1689
 9544W        W27068   5.963   8.569  15.961 -0.0253 -0.3468  0.0448
 9545W        W27069   1.576  15.037   1.849  0.1399  0.1405 -0.1176
 9546W        W27070  14.004  16.343   4.180  0.2341  0.1062 -0.2734
 9547W        W27071  12.548  11.284  11.585 -0.2316 -0.4229  0.1377
 9548W        W27072   3.851   5.418  14.953  0.2263 -0.2101 -0.1122
 9549W        W27073   9.652  13.530  14.644  0.0426  0.1534 -0.0243
 9550W        W27074   5.346  13.811   3.373 -0.2777 -0.4049  0.0792
 9551W        W27075   5.611  14.522  17.377 -0.1241 -0.3309 -0.2404
 9552W        W27076  11.131  11.217  17.699  0.0487 -0.2768  0.2116
 9553W        W27077   8.713  16.655   4.974  0.0824 -0.0069  0.1227
 9554W        W27078   9.640   5.277   1.746  0.1284  0.0781 -0.0287
 9555W        W27079   9.412   7.721  16.668 -0.2368 -0.0126  0.0407
 9556W        W27080   3.468  17.157  16.557  0.0945 -0.1659 -0.2599
 9557W        W27081   1.563  13.317  12.074  0.1031  0.0811  0.2160
 9558W        W27082   7.282   4.030  13.602 -0.2611  0.0023  0.1011
 9559W        W27083   0.652   0.448  17.693 -0.0094  0.1865 -0.1172
 9560W        W27084   6.189  17.136  12.805  0.1581 -0.2549  0.0059
 9561W        W27085  12.809  16.890  13.800  0.1312 -0.2300  0.0360
 9562W        W27086  13.705   4.814  16.512  0.0729  0.1543  0.2478
 9563W        W27087   3.906  14.551  16.813 -0.0512 -0.0624  0.1019
 9564W        W27088  11.163  14.488  16.525 -0.0070 -0.1218 -0.0636
 9565W        W27089  15.553   7.685   1.656  0.0503  0.1579  0.2899
 9566W        W27090  16.557   1.844   3.446  0.0694  0.4815 -0.2849
 9567W        W27091   8.165  12.146  16.989 -0.1688 -0.1964 -0.1391
 9568W        W27092   9.146  14.597   2.451 -0.1216 -0.0178  0.2725
 9569W        W27093   3.282   6.839  13.810 -0.4195 -0.2367  0.0996
 9570W        W27094   0.532   7.396  14.675  0.1256 -0.0551  0.0508
 9571W        W27095  13.153  15.930  12.284  0.1680  0.1961 -0.0258
 9572W        W27096   8.966   2.761  13.192 -0.0901  0.0026  0.1348
 9573W        W27097   4.050   0.563   1.771 -0.1534  0.2841 -0.3071
 9574W        W27098   1.385  16.501  13.669 -0.2069 -0.0596  0.0205
 9575W        W27099  13.229   4.909  17.440 -0.0323 -0.0420  0.3587
 9576W        W27100   7.603   2.830  12.120  0.1227 -0.2224 -0.1464
 9577W        W27101   3.788   0.173   4.835  0.1713 -0.1679  0.1984
 9578W        W27102  13.645   0.453   1.610 -0.2168 -0.3613  0.2440
 9579W        W27103   0.366  15.090  14.349  0.1902 -0.0949 -0.2320
 9580W        W27104   7.091   7.757   4.874 -0.1647 -0.0953  0.1187
 9581W        W27105  13.341  14.967   3.686 -0.1463  0.0553  0.2646
 9582W        W27106  13.003  15.288   0.134  0.0961  0.0897  0.2007
 9583W        W27107   2.598   7.270   1.252 -0.0200  0.0501 -0.0705
 9584W        W27108  14.170  11.321  14.310 -0.0867 -0.1356 -0.0363
 9585W        W27109  14.768   9.873   5.290  0.0131  0.4308  0.0779
 9586W        W27110  12.379   3.385  13.506 -0.0714 -0.2033  0.0918
 9587W        W27111   9.006   6.561  14.799 -0.4771 -0.1353  0.0939
 9588W        W27112  11.060   3.087   1.425 -0.0414  0.1592  0.2148
 9589W        W27113   5.168   4.794  13.544  0.1243 -0.0362 -0.0600
 9590W        W27114   7.076   9.324   3.950 -0.1356 -0.2229  0.3092
 9591W        W27115   4.407  12.460   1.363 -0.0050  0.0940 -0.1506
 9592W        W27116  13.406   6.056  14.260  0.3766  0.1346  0.0638
 9593W        W27117  14.999  14.679   0.131  0.0318  0.0957  0.1294
 9594W        W27118   6.049   5.213  14.684  0.0568 -0.1193  0.3832
 9595W        W27119   4.496   4.613  14.717 -0.1695 -0.0701 -0.2744
 9596W        W27120   7.483  13.640  12.867 -0.2645  0.0114  0.1003
 9597W        W27121  15.665  15.919  14.289 -0.2929 -0.3580  0.0413
 9598W        W27122   3.974  11.846   5.695  0.1696 -0.2295 -0.2478
 9599W        W27123  13.744   0.024  14.027 -0.0060 -0.1693  0.1601
 9600W        W27124  13.104   1.921  12.697  0.0151 -0.2156 -0.0896
 9601W        W27125   9.084   8.886   3.067  0.1335 -0.1732 -0.0183
 9602W        W27126   0.488  14.164   4.766 -0.2217  0.0345  0.0251
 9603W        W27127  12.408   0.408  17.353 -0.2688 -0.0748  0.0828
 9604W        W27128  14.741   3.344  14.762  0.1091 -0.0836 -0.0776
 9605W        W27129   4.484   0.819  15.189  0.2556  0.0899 -0.1273
 9606W        W27130  14.327  10.435   2.079  0.1080  0.0437 -0.3358
 9607W        W27131  13.154  16.769  17.297 -0.0198 -0.1511 -0.0884
 9608W        W27132  12.598  16.717   1.993 -0.3040 -0.0280 -0.0572
 9609W        W27133   1.805   4.116   0.156  0.1142  0.2608  0.1433
 9610W        W27134   0.332   2.953   1.840 -0.1535 -0.1583 -0.0236
 9611W        W27135   1.520  12.211  16.738  0.0535 -0.0173 -0.1474
 9612W        W27136   3.666   1.287   3.669  0.2048 -0.1201  0.0418
 9613W        W27137  12.324   2.222   1.380 -0.1207 -0.0429 -0.1891
 9614W        W27138  13.722  14.815   5.217 -0.4064  0.0568 -0.0358
 9615W        W27139   6.271   5.184  17.692  0.1977  0.0175 -0.1095
 9616W        W27140   5.707  13.569   1.108  0.2543  0.0487  0.1288
 9617W        W27141   0.280  16.911   0.292  0.1254  0.0433 -0.0632
 9618W        W27142   2.698   7.552  16.279  0.0896 -0.1016  0.1000
 9619W        W27143   8.553  10.788   1.138 -0.0259 -0.1221  0.1619
 9620W        W27144  10.468  15.630   3.236  0.0844 -0.1384  0.2961
 9621W        W27145   3.188   0.594  12.653  0.2956  0.0633  0.1735
 9622W        W27146  12.993   4.273   0.477 -0.2581 -0.0754 -0.0883
 9623W        W27147   7.395  12.057  13.324  0.1355  0.2057  0.1951
 9624W        W27148  12.212  17.119  14.145  0.4145 -0.1899  0.1044
 9625W        W27149   9.354   1.354   2.200 -0.1294 -0.3243  0.2124
 9626W        W27150   6.960   9.077   4.707 -0.3729 -0.0286  0.0051
 9627W        W27151  12.207  14.385  13.417  0.1581 -0.0197 -0.0385
 9628W        W27152   8.366   0.107   0.049  0.0653  0.1573 -0.2212
 9629W        W27153   2.319  13.264  17.467  0.0416  0.1154 -0.0330
 9630W        W27154   9.648   1.484   3.203 -0.0400 -0.2320 -0.2212
 9631W        W27155   0.709   1.670   3.821  0.2691  0.1716  0.0654
 9632W        W27156   9.862   0.081   4.653 -0.3300  0.0163 -0.0449
 9633W        W27157  11.098  16.028  12.348 -0.0111 -0.0360  0.0063
 9634W        W27158   2.358  14.495  15.773  0.2924  0.1645 -0.0965
 9635W        W27159  13.255  13.059   2.683 -0.1584  0.0795  0.1169
 9636W        W27160   2.546  16.102   3.749  0.0811 -0.1972 -0.0190
 9637W        W27161  15.724  17.145  14.873  0.2235  0.2623  0.2247
 9638W        W27162   2.707   4.347  16.528 -0.0369 -0.0713 -0.0078
 9639W        W27163   5.108  16.376  14.829  0.0389  0.0738 -0.3293
 9640W        W27164   3.201  14.788   0.916 -0.1716 -0.1680  0.0069
 9641W        W27165   8.805   1.328  13.690  0.0161  0.2730  0.0272
 9642W        W27166   0.011   0.323  12.755  0.2946 -0.1342 -0.0221
 9643W        W27167   5.885   3.280  15.743 -0.0279  0.0153  0.1701
 9644W        W27168   1.691   9.897  11.785  0.0514 -0.0800 -0.0359
 9645W        W27169  12.390  11.125  13.584 -0.1619 -0.0727  0.0530
 9646W        W27170   7.923  12.575  12.682 -0.0784  0.0797 -0.0448
 9647W        W27171   0.161   8.872  12.718 -0.3742  0.0769 -0.0308
 9648W        W27172   0.641   9.914  14.634  0.0567 -0.0001  0.3469
 9649W        W27173   5.667  16.956   3.732  0.1499 -0.2864  0.2137
 9650W        W27174  12.203  13.806   3.908 -0.1705  0.1586  0.1151
 9651W        W27175   8.717  13.444   1.221 -0.3169 -0.0533 -0.2344
 9652W        W27176  10.674  13.061   4.597  0.1741  0.1066 -0.0942
 9653W        W27177  15.842   8.204  16.773 -0.2400 -0.0499 -0.1793
 9654W        W27178   6.495   2.700  13.369 -0.0002  0.1181 -0.0035
 9655W        W27179   2.384  14.473   1.087 -0.0447  0.1579 -0.1696
 9656W        W27180  10.137   4.390  14.154 -0.0317  0.2462 -0.1333
 9657W        W27181   9.016   7.918   4.557  0.2162 -0.1014  0.1709
 9658W        W27182   1.344   8.894   1.298 -0.0292 -0.1822  0.3768
 9659W        W27183  12.666  14.120  17.500  0.0992  0.0595  0.3953
 9660W        W27184   8.745   2.251   0.052  0.1122  0.0636 -0.0567
 9661W        W27185  11.055  15.163   5.352 -0.1562  0.0520 -0.0006
 9662W        W27186   1.224   6.419   2.692  0.0187 -0.0112 -0.0403
 9663W        W27187  12.220   3.900   5.172  0.1178 -0.1373  0.2858
 9664W        W27188   7.161  16.148  16.699 -0.1392  0.0531  0.4128
 9665W        W27189  16.024   3.586   5.346  0.0764  0.0352  0.0781
 9666W        W27190   9.358   3.013   1.527 -0.1214 -0.1799 -0.2648
 9667W        W27191  15.355   3.836   4.779 -0.0969 -0.0209 -0.1937
 9668W        W27192   1.279  13.067  15.782 -0.0515 -0.1873 -0.1453
 9669W        W27193  17.149   3.514   1.095 -0.1168  0.2290 -0.0182
 9670W        W27194   2.600  12.879   0.303 -0.1256 -0.1259  0.2287
 9671W        W27195  13.175  15.634   0.970 -0.1100  0.2736 -0.0339
 9672W        W27196   0.349  12.516   4.204  0.2361  0.3315 -0.0440
 9673W        W27197  15.562  16.334   2.435  0.0087  0.5172 -0.0224
 9674W        W27198  10.820   6.165   2.880 -0.2108  0.1096  0.0976
 9675W        W27199   0.771  15.067   3.120 -0.0173  0.0416 -0.2660
 9676W        W27200  12.283   8.766  14.082 -0.1881  0.1023  0.2349
 9677W        W27201   7.627   4.608   1.002 -0.1663 -0.1761 -0.2186
 9678W        W27202  12.937  11.043   2.004  0.0698 -0.2877 -0.4426
 9679W        W27203  13.662   1.038   1.458 -0.1351  0.0071 -0.0288
 9680W        W27204   7.434   9.036   4.432  0.0437  0.1670  0.0909
 9681W        W27205  16.210   2.954  15.555 -0.1481 -0.1846  0.1690
 9682W        W27206   7.801   5.835   3.790 -0.1373  0.1566 -0.0345
 9683W        W27207  10.768   7.829  13.670 -0.0670 -0.1582  0.4640
 9684W        W27208  14.653   5.157   1.998  0.2040 -0.1495 -0.0412
 9685W        W27209   0.623  10.084   4.137  0.0600  0.1832  0.3079
 9686W        W27210   4.276  11.762  13.599  0.1659  0.2017  0.0433
 9687W        W27211   6.427  14.153   4.487  0.2541  0.0525  0.0177
 9688W        W27212   8.955   7.188  16.042 -0.1865 -0.1168 -0.1497
 9689W        W27213   4.200  13.588   2.342 -0.0793 -0.1219 -0.1083
 9690W        W27214   4.734  11.641   2.148 -0.0573 -0.1148  0.2100
 9691W        W27215   7.722  15.057   1.246  0.1014 -0.2180 -0.0492
 9692W        W27216  14.866   0.276   2.059  0.1818  0.1408 -0.3131
 9693W        W27217  15.969  15.969   2.283 -0.1723 -0.0396 -0.0513
 9694W        W27218   1.895   3.320   4.287 -0.0331  0.2232 -0.0072
 9695W        W27219  13.967   1.961   2.668 -0.4464 -0.1458 -0.1531
 9696W        W27220   2.051  14.821   0.768 -0.4837 -0.2482  0.0198
 9697W        W27221  15.049   1.390  12.372  0.2611 -0.0750  0.0713
 9698W        W27222   1.206   7.230   1.269  0.0675 -0.4732 -0.1983
 9699W        W27223   1.464  16.016   3.593  0.1443  0.0044 -0.1332
 9700W        W27224   9.185  11.735   3.951 -0.0389 -0.0141  0.0423
 9701W        W27225  11.661   1.054  15.910  0.1185 -0.0067 -0.1286
 9702W        W27226  14.172   5.299  13.884 -0.1074 -0.1196 -0.0890
 9703W        W27227   7.938  16.544  13.466  0.3115  0.2411 -0.0954
 9704W        W27228  10.605  12.834   3.292 -0.1018 -0.2707  0.0176
 9705W        W27229  13.970   5.808  15.880 -0.1842 -0.0011 -0.2429
 9706W        W27230  16.072  14.543   2.627  0.2215  0.2939 -0.1251
 9707W        W27231  13.335   8.221  15.183 -0.1745 -0.0484  0.2225
 9708W        W27232   9.305  14.787   3.698  0.2366  0.0036 -0.0579
 9709W        W27233   1.552   9.231   4.796  0.1821 -0.3213 -0.3818
 9710W        W27234   6.251  11.585   2.950  0.0088 -0.3364 -0.1802
 9711W        W27235   2.592   2.056   5.607  0.0338  0.1944  0.0713
 9712W        W27236   5.316  11.240  13.852 -0.0716 -0.1546 -0.1570
 9713W        W27237  15.236   0.342  14.819 -0.1009  0.0463 -0.2583
 9714W        W27238   4.726  10.415   1.731  0.1046  0.1429 -0.0588
 9715W        W27239   2.482   6.152  14.110  0.1223 -0.0692  0.3629
 9716W        W27240   1.240  11.666   5.037  0.1785  0.0934 -0.1655
 9717W        W27241  16.240   4.531   2.755  0.0215 -0.2466 -0.3071
 9718W        W27242   7.499  13.015   2.849  0.1034 -0.1170  0.0002
 9719W        W27243  14.460  15.422   4.873  0.2949  0.2635  0.0733
 9720W        W27244   3.606  15.647  16.563  0.1943  0.3210 -0.1929
 9721W        W27245  13.196  16.581  15.378  0.1946 -0.0038  0.1690
 9722W        W27246  11.105   4.776   1.336 -0.0149  0.3074 -0.0546
 9723W        W27247  12.514  13.724  13.516  0.1398  0.0343  0.1900
 9724W        W27248   3.931  13.258  12.941 -0.1943  0.1449 -0.2281
 9725W        W27249  11.988   8.587  13.426 -0.0539 -0.0046  0.1826
 9726W        W27250   6.593  14.097  15.162  0.1960  0.1521 -0.3135
 9727W        W27251   9.092  13.169  13.823  0.2270 -0.3036  0.0521
 9728W        W27252  13.515  15.321  12.023  0.0822 -0.2159  0.3242
 9729W        W27253  12.167   9.976   3.927 -0.0769  0.2759 -0.0891
 9730W        W27254  10.764   0.202  16.532 -0.1189  0.1876  0.0861
 9731W        W27255   7.286   5.272   3.502 -0.0348 -0.0107  0.1275
 9732W        W27256   5.682   4.466   3.929 -0.1507  0.1066  0.0247
 9733W        W27257   7.650   7.972  13.697  0.2346  0.1904 -0.0080
 9734W        W27258   0.203   7.996  13.914 -0.1478 -0.0286  0.1371
 9735W        W27259  14.006   2.317  11.643  0.1384  0.1524  0.4708
 9736W        W27260   4.681   1.641  17.555 -0.0026  0.3656  0.2319
 9737W        W27261   3.454  16.586   4.567 -0.0352 -0.3514  0.1558
 9738W        W27262  10.996   4.933  14.347  0.1392  0.2405  0.0689
 9739W        W27263   9.694   6.894   2.732 -0.2401  0.1673 -0.0515
 9740W        W27264  12.272  10.525  15.525 -0.0360 -0.0596 -0.0056
 9741W        W27265  13.802  13.503  14.245 -0.0997  0.1212  0.0441
 9742W        W27266   1.548  13.010  16.229  0.1618  0.1051  0.0429
 9743W        W27267  11.745   7.756   4.027  0.1501  0.0326 -0.1229
 9744W        W27268   9.831  11.568   2.374 -0.0440  0.1939  0.2651
 9745W        W27269   0.993   9.409   4.619 -0.0055  0.0321 -0.0682
 9746W        W27270  16.481   2.863  16.414 -0.2014  0.0707  0.2778
 9747W        W27271  16.495  10.091  13.111 -0.0622  0.1628 -0.1072
 9748W        W27272   3.611   2.300  13.918  0.0589  0.1773 -0.1077
 9749W        W27273  10.375   9.357   1.708 -0.0645  0.1545 -0.2604
 9750W        W27274  13.193   1.435   5.154  0.1119  0.2048 -0.2559
 9751W        W27275   0.826  14.227  14.796 -0.1258 -0.1366  0.0819
 9752W        W27276   5.294  13.459  12.661  0.2575 -0.0124 -0.0692
 9753W        W27277  13.269   6.574  13.578  0.1425  0.0270  0.0645
 9754W        W27278   9.936   2.916  14.258 -0.0408  0.3279 -0.4624
 9755W        W27279   3.869   4.251   5.422 -0.3015  0.0349  0.1264
 9756W        W27280   2.588  16.972  14.344  0.1118 -0.1046 -0.1585
 9757W        W27281  16.255   2.701  14.519 -0.0413  0.1003  0.1586
 9758W        W27282  12.972   6.720  17.502 -0.1752  0.0965  0.1979
 9759W        W27283   1.887   2.349   1.086  0.0811  0.1479 -0.0324
 9760W        W27284   2.864   0.163  15.358  0.2993  0.1329 -0.0935
 9761W        W27285   2.582  10.479  15.838  0.1117 -0.0946  0.0322
 9762W        W27286  12.519  11.469   1.900 -0.3201  0.1507  0.1524
 9763W        W27287   2.670  14.783   0.205 -0.0088  0.0247 -0.0351
 9764W        W27288  16.096  12.417   4.948 -0.2257 -0.3892  0.0357
 9765W        W27289   4.530   2.982  14.762  0.0802  0.1334 -0.0769
 9766W        W27290   4.981  16.909   4.513  0.1414 -0.1749  0.2657
 9767W        W27291   1.034   0.141  13.820 -0.1867  0.1170 -0.0276
 9768W        W27292   8.155   8.043  11.038  0.2569  0.1522 -0.2405
 9769W        W27293   6.670  12.662   4.329  0.0775  0.3137 -0.0108
 9770W        W27294   7.004   7.596  15.835 -0.0449 -0.1611 -0.2112
 9771W        W27295  16.528   1.869   5.747  0.1198 -0.0125  0.2100
 9772W        W27296  13.373   8.451   2.427 -0.1095 -0.1020  0.3422
 9773W        W27297  10.157   4.402  12.859  0.0736  0.4708 -0.0851
 9774W        W27298   4.576   7.508  13.476 -0.0284 -0.2063  0.0605
 9775W        W27299   4.719   1.877   4.123 -0.0386  0.3207 -0.0512
 9776W        W27300  14.422   7.056   2.556  0.1608  0.3028 -0.1583
 9777W        W27301  12.390  11.476  15.597  0.0421  0.0759  0.2584
 9778W        W27302  14.788  15.583  13.243 -0.1624  0.0156 -0.2963
 9779W        W27303   7.728   1.245  12.745  0.3725  0.0342  0.0358
 9780W        W27304   1.775  15.503   1.591  0.0156  0.0193 -0.2782
 9781W        W27305  15.021  14.496  17.337 -0.1025  0.0687  0.1248
 9782W        W27306   2.173   3.828   1.888  0.2171  0.0354  0.0777
 9783W        W27307  13.125   0.912  13.126  0.3126  0.3569  0.0057
 9784W        W27308  16.245   3.174   3.406  0.5458 -0.2147  0.0134
 9785W        W27309  13.032  10.026  14.440 -0.1129 -0.1026  0.0962
 9786W        W27310   7.510   4.396   4.086  0.1913 -0.1136 -0.1028
 9787W        W27311  11.384   8.047   1.174  0.2848  0.1671  0.2026
 9788W        W27312   6.812   7.910   2.328  0.0072 -0.0185  0.0176
 9789W        W27313   5.773   6.236  15.854  0.1033 -0.1622 -0.0959
 9790W        W27314   1.928   3.103   4.963  0.0461  0.2985  0.0472
 9791W        W27315   5.034   2.627   2.951  0.1820 -0.0727 -0.2312
 9792W        W27316  10.780  11.879   3.672  0.4393  0.0125 -0.1640
 9793W        W27317  14.398  11.143  15.985 -0.1147 -0.4028  0.0800
 9794W        W27318  16.866   1.151  13.842 -0.0968  0.1734  0.2451
 9795W        W27319  13.140  10.196  12.252  0.0059 -0.1352 -0.1123
 9796W        W27320   6.836  13.169   4.158  0.1224 -0.1421 -0.0452
 9797W        W27321   1.115  11.665   3.249 -0.3130  0.3440  0.0589
 9798W        W27322  10.738   0.678   4.336 -0.1153 -0.0919  0.0888
 9799W        W27323   8.489   8.340   2.878  0.0818  0.2522  0.0053
 9800W        W27324   4.968  16.292  13.800 -0.3197  0.2804 -0.1219
 9801W        W27325   4.304   7.982  12.065 -0.1376 -0.0470 -0.0582
 9802W        W27326  14.402   4.761  17.297 -0.1571 -0.0313 -0.0731
 9803W        W27327   6.100   1.759   2.327  0.0412 -0.2748 -0.0995
 9804W        W27328   0.096   4.846   2.408 -0.1835  0.0649 -0.0463
 9805W        W27329  12.360   5.816   5.131 -0.1464 -0.0491 -0.2720
 9806W        W27330  14.093   1.847  13.418 -0.3702 -0.0071 -0.0021
 9807W        W27331  10.621  16.080  13.876  0.0755 -0.1921 -0.1632
 9808W        W27332   0.151   9.248  15.975 -0.3387 -0.2043 -0.2294
 9809W        W27333   5.443  16.789   4.698 -0.2196  0.2578  0.0024
 9810W        W27334  10.303  16.947  15.909  0.0107 -0.0091 -0.2712
 9811W        W27335   1.207   7.646   2.595 -0.1092  0.2440 -0.3663
 9812W        W27336  12.429  14.686   2.742 -0.1146  0.0225 -0.0349
 9813W        W27337  13.551   3.734  15.233 -0.1478 -0.3356 -0.1839
 9814W        W27338   8.428   4.786  13.087  0.1951 -0.0405  0.2101
 9815W        W27339  11.268  12.922   4.341 -0.3001 -0.0315  0.0946
 9816W        W27340   2.384   7.702   1.335  0.0525 -0.1331 -0.1900
 9817W        W27341   0.896   5.350   0.424 -0.0196 -0.1159 -0.0560
 9818W        W27342  13.218   8.122  17.584 -0.0832 -0.0527  0.0285
 9819W        W27343  16.426   4.852   4.761 -0.1129  0.1318 -0.0110
 9820W        W27344  13.336  16.609   4.816  0.2411  0.2107  0.1393
 9821W        W27345   9.931   9.213  12.670  0.0893 -0.2527 -0.0027
 9822W        W27346   3.164   8.179  12.829  0.1395 -0.0507  0.1306
 9823W        W27347  15.231  12.167  12.867  0.0955 -0.3049  0.0899
 9824W        W27348   5.329   1.134   1.241  0.1127  0.1474  0.1473
 9825W        W27349  14.438   6.875  15.630  0.3111 -0.1892  0.0284
 9826W        W27350  12.776   0.736  13.952  0.0642 -0.0304  0.0535
 9827W        W27351  12.219  14.981  15.849  0.1481  0.1003 -0.0368
 9828W        W27352   6.959   6.816  15.489  0.0498 -0.0069 -0.1513
 9829W        W27353  15.069   5.013  16.201  0.4092 -0.0250  0.4763
 9830W        W27354  16.165   9.480  14.120  0.1125 -0.0441 -0.3629
 9831W        W27355   4.566  10.053   0.332 -0.0635  0.0556  0.0815
 9832W        W27356   5.075   7.069  13.351 -0.0429  0.0800 -0.0530
 9833W        W27357   7.313  13.020   5.193 -0.0340  0.1829 -0.1804
 9834W        W27358   3.063   2.702   0.690  0.0751  0.1942 -0.1021
 9835W        W27359   2.407  11.601   3.469 -0.0653 -0.3354  0.0383
 9836W        W27360   2.568  16.703   0.079 -0.2913  0.0930  0.1014
 9837W        W27361   8.032   9.601   0.687  0.0033 -0.0880 -0.0665
 9838W        W27362   4.880   8.433  13.314 -0.1001 -0.3377  0.2191
 9839W        W27363  16.059  11.276  15.543 -0.2368 -0.1594 -0.0729
 9840W        W27364  16.566  13.848   3.367 -0.1846  0.0727  0.0619
 9841W        W27365   2.682   0.471   0.032 -0.1375  0.0327  0.0217
 9842W        W27366  15.038  13.097  13.571 -0.0004  0.2678 -0.0191
 9843W        W27367   2.636   8.639   2.950  0.0387 -0.0747 -0.2341
 9844W        W27368  16.732   4.397   3.893  0.0486  0.0620 -0.1364
 9845W        W27369   2.317  12.309  14.856  0.0885  0.2403 -0.3235
 9846W        W27370   5.739  13.922   3.769 -0.1776  0.3203 -0.1233
 9847W        W27371  11.376  10.919  13.134  0.0133 -0.1413 -0.0960
 9848W        W27372   7.068  11.018  15.809  0.0788 -0.2556 -0.2575
 9849W        W27373   6.292   1.033  16.557  0.1908 -0.1305  0.1702
 9850W        W27374   7.231  15.600   2.048 -0.0456  0.2642  0.2979
 9851W        W27375  12.869   0.427  15.022 -0.2234  0.0679  0.1113
 9852W        W27376   0.582  14.143   0.247  0.1095  0.0775  0.1477
 9853W        W27377  16.352   4.071  17.341  0.2193 -0.2023 -0.2048
 9854W        W27378  11.004  16.420   4.621 -0.2158  0.0508 -0.2082
 9855W        W27379   9.711   7.600  16.085 -0.1207 -0.2685 -0.0971
 9856W        W27380  12.013  11.512  14.295 -0.0860  0.0696 -0.2406
 9857W        W27381   6.024  13.641  17.029 -0.1053  0.0578 -0.0254
 9858W        W27382  12.624   5.345   5.420 -0.1965  0.1576 -0.1965
 9859W        W27383   2.105  11.314   5.374 -0.0776 -0.0990 -0.3089
 9860W        W27384   1.632   4.515  15.934 -0.0285 -0.0174  0.2487
 9861W        W27385   2.773   2.056   3.040 -0.1320  0.2730 -0.2577
 9862W        W27386   3.145   6.133   2.263  0.1317 -0.0056  0.1944
 9863W        W27387   7.630   2.112   0.217  0.2022 -0.1147  0.0148
 9864W        W27388   8.772   5.967   3.746  0.0024 -0.1753 -0.2240
 9865W        W27389   7.862   1.023  14.556 -0.0747 -0.0299 -0.6350
 9866W        W27390  12.604   5.275  14.297  0.2320 -0.0012 -0.1485
 9867W        W27391   7.080  11.800  16.104  0.0769  0.3106  0.1185
 9868W        W27392   4.173   0.920   1.343 -0.2612 -0.1644 -0.1504
 9869W        W27393   4.808  12.573   0.149  0.0239  0.1242 -0.1906
 9870W        W27394   9.056   1.457  17.535  0.0852  0.3367 -0.5215
 9871W        W27395   4.203   6.506   3.278  0.0536 -0.2423 -0.0914
 9872W        W27396   3.482  13.201  12.728  0.0226 -0.0116 -0.0366
 9873W        W27397   6.583  14.340   3.495  0.2768 -0.0946  0.1857
 9874W        W27398  14.205   1.975   1.538 -0.0598  0.2665 -0.0593
 9875W        W27399   9.104   8.426   4.515 -0.1705 -0.1523  0.2272
 9876W        W27400   2.233   3.593   0.938  0.0430  0.2032 -0.0744
 9877W        W27401  12.175   7.000   1.454 -0.1555  0.0224 -0.0941
 9878W        W27402  13.885   5.582   2.369  0.1522  0.1108  0.0248
 9879W        W27403  15.321   0.637   5.715  0.2517  0.1155 -0.1391
 9880W        W27404   1.905  16.824   1.415 -0.1882  0.0131  0.3071
 9881W        W27405   5.105   0.523   5.568  0.0859  0.0021 -0.1620
 9882W        W27406   1.417   9.654   5.401  0.0253  0.1141 -0.0208
 9883W        W27407   9.373   4.419   3.194  0.0994  0.3275 -0.0872
 9884W        W27408   8.622  13.178  16.936 -0.2004  0.3392  0.1440
 9885W        W27409   0.609  14.886   1.456  0.1044 -0.0171  0.1524
 9886W        W27410  10.024   5.959   0.713  0.2482 -0.1764  0.0167
 9887W        W27411  10.821  11.649  12.114 -0.2234 -0.0085 -0.3447
 9888W        W27412  15.429   3.070   1.720 -0.1350  0.0248 -0.1130
 9889W        W27413   7.446  10.098  16.441 -0.0218 -0.0002 -0.0862
 9890W        W27414  15.316  12.147   3.979 -0.1368 -0.0438  0.0667
 9891W        W27415  15.355  11.872   1.302  0.2443  0.0323 -0.0127
 9892W        W27416  12.629   5.447   2.578  0.2180 -0.0472  0.1048
 9893W        W27417   0.482  16.938   1.686 -0.1852 -0.0700 -0.0785
 9894W        W27418  15.086  11.931  15.171 -0.0325 -0.1246  0.1195
 9895W        W27419  15.118   2.529   5.144 -0.1014 -0.0166 -0.3333
 9896W        W27420  16.867   8.980   1.572  0.2948  0.1218  0.0068
 9897W        W27421   4.166  15.114   5.366  0.0449 -0.0450 -0.1391
 9898W        W27422   6.052   7.360   5.175  0.0193  0.3463 -0.0026
 9899W        W27423   9.110  15.075   2.260 -0.1234  0.1045 -0.1425
 9900W        W27424   1.495  16.185  16.557  0.1389  0.0665  0.2240
 9901W        W27425  14.524  12.414   2.324  0.0198 -0.1934  0.0705
 9902W        W27426   5.459  11.772   0.574  0.0231  0.2908  0.0336
 9903W        W27427  14.520   3.867  14.648  0.3028  0.0276 -0.2616
 9904W        W27428   1.366   9.172   3.462 -0.2177  0.1737 -0.0457
 9905W        W27429  16.992  10.194   2.053 -0.0771 -0.2699  0.2064
 9906W        W27430   1.340   2.220   2.542 -0.0907  0.1389  0.2678
 9907W        W27431   2.293  12.526   0.452 -0.0635  0.2130 -0.0516
 9908W        W27432   9.102   5.263   4.897  0.0059  0.2588  0.0804
 9909W        W27433  16.137   7.011  14.583 -0.1407 -0.0017  0.1566
 9910W        W27434   0.076   2.830   5.011  0.0294  0.1115 -0.3512
 9911W        W27435  14.695  14.741  17.076  0.0952  0.0497 -0.0963
 9912W        W27436   0.194  16.788   4.937  0.0703  0.0762  0.1372
 9913W        W27437  10.690   6.005  15.891 -0.0440  0.3371  0.2409
 9914W        W27438   6.793   8.300  14.888 -0.1185  0.2725  0.1841
 9915W        W27439   2.583  13.479   1.482  0.1058  0.3380 -0.0839
 9916W        W27440   4.192   2.680  15.476 -0.1931 -0.0467  0.1500
 9917W        W27441   5.020  12.069   0.605 -0.4446 -0.1482  0.0996
 9918W        W27442  12.799   4.945  15.547  0.2090 -0.1585  0.1662
 9919W        W27443   7.308  13.752   0.575 -0.2404  0.0634  0.0842
 9920W        W27444   6.823  11.274   0.175  0.0026  0.0767 -0.1403
 9921W        W27445  16.624  10.647  16.421 -0.1911 -0.1194  0.1228
 9922W        W27446  15.576   1.089  14.283  0.2458 -0.0644  0.0429
 9923W        W27447  11.114   0.588  13.200 -0.0510  0.2102 -0.1535
 9924W        W27448   4.845  11.839  12.385  0.0906 -0.0661  0.1776
 9925W        W27449  12.458   6.246   0.612 -0.1357 -0.0616 -0.2143
 9926W        W27450  12.350  16.662   3.057 -0.3140  0.0282 -0.2821
 9927W        W27451   3.852   1.568   1.224 -0.2282 -0.0426  0.0913
 9928W        W27452   7.446   9.047  15.069  0.0990 -0.0524  0.0629
 9929W        W27453  13.735   2.657   0.004 -0.2486 -0.2369  0.2860
 9930W        W27454  13.636  10.686  13.906  0.3642  0.2854  0.0306
 9931W        W27455  15.065   9.422  13.096 -0.0347 -0.1489 -0.1853
 9932W        W27456  13.513  12.584  16.826 -0.0534 -0.2033 -0.0100
 9933W        W27457   5.860  15.566   3.259 -0.1506  0.1467  0.1123
 9934W        W27458   1.620  12.868  14.913  0.4231  0.0310 -0.1874
 9935W        W27459   2.685   5.965  13.559 -0.2041  0.1663  0.0713
 9936W        W27460  15.526   9.241  13.259  0.0659 -0.0120 -0.0134
 9937W        W27461   5.982   4.992   4.451 -0.0604 -0.2275 -0.2074
 9938W        W27462  11.652   7.733   0.839 -0.1253 -0.2119 -0.1366
 9939W        W27463   8.913  10.147  16.883  0.0583 -0.1540 -0.1115
 9940W        W27464   2.225  12.462  17.374  0.0148  0.1851 -0.2582
 9941W        W27465   1.678   4.687   4.332 -0.1171 -0.0240 -0.0409
 9942W        W27466  16.262   4.940  14.846 -0.0771 -0.0249  0.0516
 9943W        W27467  16.027  12.245   0.159  0.2766 -0.0247 -0.0282
 9944W        W27468   3.870   9.490  15.799 -0.0561  0.1169 -0.1313
 9945W        W27469   9.318   2.664   2.075  0.0079  0.0878  0.0839
 9946W        W27470   4.449  11.919   0.784 -0.0553 -0.4382 -0.1034
 9947W        W27471   2.387   0.868   2.523 -0.1470 -0.0489  0.0189
 9948W        W27472  16.933  12.431   4.549 -0.0794  0.0537  0.1921
 9949W        W27473   2.514  16.360  17.107 -0.0328  0.1894  0.1845
 9950W        W27474   3.925  14.645   2.344  0.1286 -0.0379 -0.0251
 9951W        W27475  16.125   6.770  16.667  0.3499  0.1224 -0.2494
 9952W        W27476   7.041   0.406  17.476 -0.0409  0.1095  0.1059
 9953W        W27477   6.781  15.818  14.272  0.0903 -0.2942 -0.0058
 9954W        W27478  16.832   4.366  13.223 -0.3810  0.1980 -0.0496
 9955W        W27479  10.838   3.208  12.673 -0.0446  0.3685 -0.0875
 9956W        W27480   4.791   8.819   3.171  0.3019  0.1089  0.2134
 9957W        W27481   1.133   9.656  12.504  0.1103  0.3149 -0.0086
 9958W        W27482  12.483   5.035  12.872 -0.0582  0.0569 -0.3534
 9959W        W27483   2.509  13.782   4.601 -0.1548  0.0636  0.0979
 9960W        W27484  16.142   3.523   0.409  0.0466 -0.2539 -0.1094
 9961W        W27485   8.584   8.872   0.899  0.1038  0.0653 -0.3240
 9962W        W27486  10.327  10.540   1.708 -0.2377  0.0381 -0.0241
 9963W        W27487  14.010  12.373   4.016 -0.0266  0.1334  0.2689
 9964W        W27488   7.257  11.765  17.003  0.0064 -0.0883  0.1850
 9965W        W27489  12.394   6.570   4.632  0.0876 -0.0263  0.0753
 9966W        W27490  10.464   9.510   4.939  0.1354  0.2869 -0.2765
 9967W        W27491   1.545   3.420   2.302  0.0466 -0.0996 -0.1408
 9968W        W27492  11.248   8.229  14.824  0.1182 -0.2838 -0.1551
 9969W        W27493   8.434   7.403   1.553 -0.1898 -0.0522  0.1020
 9970W        W27494   8.154  16.834  16.819 -0.0259  0.0932 -0.0954
 9971W        W27495  12.581  12.295   4.093 -0.1327  0.0380 -0.1790
 9972W        W27496   5.965  14.869   2.788 -0.2263 -0.3437 -0.0548
 9973W        W27497  12.603   4.265   4.277  0.2314 -0.1120 -0.2398
 9974W        W27498   5.398  16.414  12.353  0.1189  0.0902  0.0610
 9975W        W27499  12.658   0.181  14.040  0.2797  0.2588  0.1269
 9976W        W27500   9.527   2.398   3.257 -0.1777 -0.1457 -0.0532
 9977W        W27501  12.029  15.430  16.136 -0.6186  0.2872  0.2406
 9978W        W27502  14.052   5.259   3.586  0.0052  0.0190  0.0158
 9979W        W27503   6.189   6.180   3.815  0.1464 -0.1973 -0.0265
 9980W        W27504   9.548   5.000  13.900 -0.2177 -0.0698 -0.1528
 9981W        W27505   6.088  15.081   3.422  0.2358 -0.1126 -0.1214
 9982W        W27506   9.165  11.984  17.179  0.0747 -0.0267  0.0765
 9983W        W27507   9.385   2.084  13.869  0.3289  0.1958 -0.1278
 9984W        W27508   6.742  11.401  16.073  0.1539  0.0224  0.0461
 9985W        W27509   4.145   7.628  13.841  0.0274  0.1770  0.0515
 9986W        W27510   0.678   9.784   0.958 -0.0579 -0.2936  0.1511
 9987W        W27511   8.238   6.737  12.548 -0.2858 -0.0680 -0.1123
 9988W        W27512   5.900   5.072   1.853  0.0558  0.1121 -0.0735
 9989W        W27513   3.622   4.337   4.978  0.1935  0.1379  0.1820
 9990W        W27514   0.603  11.076   3.289 -0.3198  0.0116  0.1972
 9991W        W27515   4.975   4.492   5.030 -0.1301  0.0785  0.5334
 9992W        W27516   9.091   6.259  17.478 -0.0980  0.0306  0.3882
 9993W        W27517   4.645   8.509   0.952  0.3110 -0.0789  0.2571
 9994W        W27518   5.818   9.792  12.904  0.1027 -0.1966  0.1936
 9995W        W27519  16.331  14.023   0.987  0.1331  0.1229  0.1059
 9996W        W27520  15.844  14.941   5.905 -0.1775  0.0890 -0.0457
 9997W        W27521   7.992   2.768  16.675  0.2300 -0.1841  0.1365
 9998W        W27522   9.517   1.084   0.583 -0.1655 -0.1552 -0.1826
 9999W        W27523   5.970   3.412  12.617  0.1675 -0.0556  0.1344
10000W        W27524   7.598   8.203  14.756 -0.1976 -0.0514 -0.0333
10001W        W27525   1.864   6.756   6.388 -0.1198 -0.0709 -0.2065
10002W        W27526  12.342  10.687  14.484  0.1629 -0.1926 -0.1281
10003W        W27527  15.975   2.812   1.714  0.2362  0.2324  0.2558
10004W        W27528  15.420  11.441   3.438 -0.0900  0.1475 -0.0367
10005W        W27529   8.846  11.142  15.638 -0.0463 -0.0898 -0.1992
10006W        W27530   4.791  11.166  14.045  0.1804 -0.0877  0.1513
10007W        W27531   6.554   1.843   3.103 -0.1054  0.0136  0.2747
10008W        W27532   4.971   9.571   0.410 -0.2020 -0.0000  0.1034
10009W        W27533  14.904  13.932  14.922  0.1666 -0.1214 -0.1343
10010W        W27534   8.251   5.127  13.494 -0.0250  0.3214  0.0220
10011W        W27535   3.420   3.910  14.027  0.1152 -0.0281 -0.1289
10012W        W27536   0.111  14.980  13.818  0.2155  0.2172  0.0984
10013W        W27537  11.962   1.860   4.860  0.1315 -0.0700  0.1874
10014W        W27538   2.452  14.835   4.242  0.1590 -0.0791 -0.1297
10015W        W27539   1.457   8.675   4.551  0.3875 -0.1279 -0.1624
10016W        W27540   1.287   9.671  16.090 -0.1933 -0.2000 -0.1222
10017W        W27541  10.601   0.556   2.158  0.6220 -0.2124 -0.0449
10018W        W27542  14.275   6.458  14.191  0.3292  0.0217  0.0113
10019W        W27543  12.600   5.271   0.284  0.3702 -0.2099  0.0519
10020W        W27544  14.007  13.595   0.627  0.0230  0.0924 -0.0684
10021W        W27545  16.149   3.502  16.485 -0.0478  0.3642  0.0870
10022W        W27546  15.819  14.265   0.264 -0.0903  0.1275 -0.0136
10023W        W27547   6.161  11.047  15.074 -0.0748 -0.1167 -0.0519
10024W        W27548  16.910   8.115  13.015 -0.1288 -0.1147 -0.1801
10025W        W27549  11.630  13.999  17.543 -0.0931  0.1764 -0.0750
10026W        W27550  11.138   8.268   3.518 -0.1912  0.2946  0.1168
10027W        W27551   9.495  13.857   5.630  0.0676  0.2034  0.1736
10028W        W27552  14.966   8.302  15.214 -0.1675  0.1076 -0.0489
10029W        W27553  15.228  15.827   3.807  0.3446 -0.2285  0.0595
10030W        W27554  16.456   4.498  14.547  0.2380  0.0536  0.3185
10031W        W27555   9.322   3.488   0.825  0.2636  0.0715 -0.0846
10032W        W27556  16.656   0.515  17.440 -0.2886  0.1637 -0.1392
10033W        W27557   4.214   3.620   1.833 -0.2342  0.2780 -0.1769
10034W        W27558   4.462  14.942   0.224  0.0599 -0.0113  0.1979
10035W        W27559  12.990   0.425   3.757  0.0558  0.1679 -0.1971
10036W        W27560   8.120   6.170   2.038  0.0168  0.2465  0.0537
10037W        W27561   6.490   9.144   1.922  0.0083  0.0919 -0.1252
10038W        W27562   7.605  10.642   0.712 -0.1121 -0.1497  0.1343
10039W        W27563  13.056  17.034   2.185  0.0306 -0.0744 -0.1693
10040W        W27564  13.336   5.535  13.528 -0.2533 -0.0244 -0.0764
10041W        W27565   5.199   8.880  15.054 -0.2232  0.0614  0.0520
10042W        W27566  13.896  14.065   0.798 -0.1152 -0.0993 -0.1348
10043W        W27567   7.506  13.550  16.755 -0.0913 -0.2925 -0.0187
10044W        W27568   7.968  11.334  13.863  0.0016 -0.0354 -0.0522
10045W        W27569  16.326   6.907   4.364 -0.0212 -0.2071  0.2189
10046W        W27570   5.260   8.280  12.175  0.0248 -0.3533  0.1151
10047W        W27571   1.069  16.977   5.317  0.1865  0.0033  0.0263
10048W        W27572   6.689  12.257   1.457 -0.0325  0.0413  0.0861
10049W        W27573  10.964   1.389  14.460 -0.0847 -0.1379  0.0772
10050W        W27574   7.269   8.677   0.486  0.2835  0.0374  0.1872
10051W        W27575  14.470  12.694  13.038 -0.2009 -0.0545 -0.0411
10052W        W27576   6.743   2.032  16.694 -0.0138  0.0048 -0.0153
10053W        W27577   6.116  14.172   3.550  0.0701  0.1989  0.1578
10054W        W27578  15.620   1.995  14.799 -0.2337 -0.1269  0.0671
10055W        W27579  16.920   9.216   3.466 -0.0661  0.2126 -0.0463
10056W        W27580  16.647   1.825  12.551  0.0008 -0.1772 -0.1049
10057W        W27581  12.824  11.078  11.979 -0.0821  0.0784  0.0484
10058W        W27582   8.924   4.163   3.068  0.0282  0.1707 -0.2089
10059W        W27583   3.892   6.064  17.644 -0.0239 -0.0058 -0.1283
10060W        W27584  17.120   3.549  17.593  0.0792 -0.1844  0.0970
10061W        W27585  16.271  13.414   3.246 -0.0424  0.1117  0.0223
10062W        W27586  15.392  12.976   0.804  0.1182  0.2547  0.0170
10063W        W27587   4.072  15.436   2.355  0.0670  0.0465  0.0180
10064W        W27588  11.743   9.880   4.223 -0.1791 -0.0906  0.0423
10065W        W27589  15.283   4.002   0.588 -0.4013  0.0309  0.0232
10066W        W27590   4.285  14.305  17.148  0.1189  0.1362  0.1480
10067W        W27591  11.227   9.952   4.144 -0.2971 -0.2023  0.0098
10068W        W27592  10.910  17.010   2.157 -0.1579  0.1153  0.0347
10069W        W27593  16.904   0.760   2.602  0.0946 -0.2194  0.2108
10070W        W27594  11.960   2.425  13.561 -0.1487 -0.0186 -0.1939
10071W        W27595  11.340   8.951  13.509  0.0867  0.1089 -0.0151
10072W        W27596  15.527   4.600  17.316 -0.0509  0.1991  0.1249
10073W        W27597  14.451  13.446   3.047 -0.1995  0.1988 -0.1161
10074W        W27598   7.540  16.295   4.155  0.1264 -0.1033 -0.1212
10075W        W27599  16.512  11.541   4.657  0.0078 -0.0938  0.2940
10076W        W27600  15.859  15.670  13.261  0.1115  0.1766  0.0821
10077W        W27601  14.336  15.262   2.243 -0.0257 -0.0384 -0.1025
10078W        W27602   1.258   2.751   0.619  0.1716  0.2782  0.0369
10079W        W27603   7.048   5.254  15.576  0.0191 -0.1068 -0.1438
10080W        W27604  12.744  15.741  15.405 -0.1404  0.0128 -0.0989
10081W        W27605  16.314  15.451   0.865 -0.2921 -0.0171  0.0190
10082W        W27606   6.794  12.598   4.810 -0.1594  0.1445 -0.3112
10083W        W27607   5.548   4.309  16.394  0.2556 -0.1088  0.2041
10084W        W27608  10.186   7.189  13.784  0.2043 -0.1052 -0.0352
10085W        W27609   1.666  16.512  12.238  0.0573 -0.4885  0.0485
10086W        W27610   3.079  15.532   3.472 -0.0078  0.1492 -0.1808
10087W        W27611  11.597   3.178   1.557  0.1944  0.3011  0.1375
10088W        W27612   4.343  10.418   3.679 -0.1658  0.2996  0.0928
10089W        W27613  14.006   5.861  13.251 -0.1374 -0.1456 -0.0065
10090W        W27614   4.827   7.169   4.851 -0.0962  0.2511 -0.0790
10091W        W27615   4.192   5.621  13.492 -0.0738  0.0161  0.2197
10092W        W27616  11.381   8.560  15.208  0.0431  0.2647 -0.1619
10093W        W27617  13.561   8.761  16.376  0.0848  0.2018  0.1735
10094W        W27618  15.353   0.001  13.052 -0.0045 -0.0589 -0.2494
10095W        W27619   9.313   2.803  12.841  0.1316 -0.1561  0.1967
10096W        W27620   1.727  15.972  13.938 -0.3121 -0.0337  0.0038
10097W        W27621   1.911   0.935  15.689  0.1645  0.0334 -0.0784
10098W        W27622  12.329   1.523  15.618 -0.1520  0.1185 -0.1522
10099W        W27623  16.397  14.829   0.131 -0.2593  0.2422 -0.0151
10100W        W27624   1.365  16.747   2.545 -0.1997  0.2802  0.0813
10101W        W27625   6.287  13.306   2.473 -0.0326  0.2483 -0.3509
10102W        W27626   6.615  12.585  15.907  0.4480  0.0543 -0.1848
10103W        W27627   5.695   2.410   4.585  0.1044 -0.0149 -0.1259
10104W        W27628  11.088   0.892  15.646 -0.1267  0.1621  0.1398
10105W        W27629   9.382   7.773   2.072  0.2405 -0.4899  0.2112
10106W        W27630  12.444   3.354   2.578 -0.0546 -0.0487  0.1612
10107W        W27631   4.149  15.586  15.936 -0.0895  0.3455  0.1512
10108W        W27632   3.447   1.452   0.388 -0.1540 -0.0459 -0.0232
10109W        W27633  14.573   6.908  16.801  0.0366 -0.1255 -0.0292
10110W        W27634   4.034   1.934  15.356  0.1807  0.0421  0.0066
10111W        W27635  12.931  14.172  11.790  0.2381 -0.1412 -0.1496
10112W        W27636  12.806   3.324  16.752  0.1100 -0.0747  0.0355
10113W        W27637   5.424   5.868   2.008  0.0796 -0.0858 -0.1709
10114W        W27638   9.961   1.595  14.892  0.0969 -0.1428  0.3749
10115W        W27639  14.597   9.291  12.980  0.0734  0.1840 -0.0282
10116W        W27640   7.061   5.153   1.596 -0.2133 -0.1635  0.0553
10117W        W27641  11.262  12.597   1.531 -0.2781 -0.0202 -0.0027
10118W        W27642  10.679  16.140  16.758 -0.1617  0.1107 -0.1444
10119W        W27643  15.514   1.924   1.556  0.0190  0.0141  0.3902
10120W        W27644   8.868   0.581   1.358 -0.0402 -0.0342  0.0149
10121W        W27645  12.884   2.591  16.333 -0.1197 -0.3449 -0.1118
10122W        W27646  13.506   7.789   2.309 -0.1533 -0.1880 -0.2105
10123W        W27647   1.104   8.936   0.408 -0.2521 -0.0118  0.0884
10124W        W27648   3.635  13.471  13.339 -0.0499 -0.0738  0.2018
10125W        W27649   2.901   3.500  16.468  0.1330  0.0421 -0.1894
10126W        W27650   4.899   3.390   2.456  0.3240 -0.0612 -0.2908
10127W        W27651   7.949  16.095   2.980  0.1984  0.4371  0.2700
10128W        W27652   8.069   7.738  13.933  0.2263 -0.0941 -0.0289
10129W        W27653  13.700   7.482   0.875  0.0842 -0.1644  0.1598
10130W        W27654  15.072   1.921   4.401 -0.1980  0.1809 -0.0668
10131W        W27655   6.044  14.176  14.308 -0.0540 -0.1217 -0.0675
10132W        W27656  15.812  10.025   2.968  0.0862  0.0665  0.2124
10133W        W27657  14.344   3.945   5.502  0.0717  0.0095  0.1434
10134W        W27658   9.612   0.828  15.216  0.0354 -0.1926 -0.1555
10135W        W27659   8.869  16.732   1.154 -0.2737  0.0360 -0.0256
10136W        W27660  13.935   4.938   0.988 -0.1119 -0.0175 -0.0093
10137W        W27661   6.135  16.948  17.253 -0.0935 -0.2087 -0.0597
10138W        W27662   7.276   1.427  16.406 -0.2389  0.1182 -0.0911
10139W        W27663   7.938  10.681   5.389  0.1163  0.2107  0.3135
10140W        W27664   0.434  10.972  13.476  0.2534 -0.0234 -0.0026
10141W        W27665   7.031  11.296   1.037  0.0215  0.1560  0.3414
10142W        W27666   2.281   0.489  13.314 -0.0442 -0.0830 -0.0150
10143W        W27667   7.848  14.557  13.008 -0.1842 -0.0178  0.1792
10144W        W27668   4.191   2.325  14.344 -0.3933  0.1196  0.0293
10145W        W27669  10.024  15.269  14.780  0.1313 -0.2879  0.0407
10146W        W27670   1.741   7.365   5.261  0.1092 -0.1982  0.1720
10147W        W27671   8.807   7.267  13.677 -0.0417 -0.1623  0.0482
10148W        W27672   0.726   8.135   4.118  0.0320 -0.0784 -0.0855
10149W        W27673   3.237  12.489  13.320  0.0807  0.1511  0.0647
10150W        W27674   5.730  15.507   1.450 -0.0896 -0.1456  0.0729
10151W        W27675  10.047   7.847   0.403  0.1043 -0.0596  0.0468
10152W        W27676  12.358   4.691  14.171  0.0566 -0.0645  0.0707
10153W        W27677  14.031  10.351   2.559  0.0017 -0.0232 -0.3087
10154W        W27678  11.026  15.663   2.441  0.1329 -0.2109  0.1445
10155W        W27679   7.007   8.995  12.773  0.0637  0.1710  0.1059
10156W        W27680  11.055  14.274   4.083 -0.0079  0.1782 -0.0168
10157W        W27681  13.137  14.978   4.791 -0.2368 -0.2685 -0.1314
10158W        W27682  17.056   8.135  14.960 -0.0496 -0.1636 -0.0358
10159W        W27683   0.415  16.238   5.662 -0.4642 -0.0791  0.0417
10160W        W27684  13.292  14.671  16.113  0.1766 -0.1467  0.1149
10161W        W27685   4.439   7.637  15.359 -0.1496 -0.2528 -0.1356
10162W        W27686  15.004  16.136  15.852 -0.0027 -0.0179 -0.2668
10163W        W27687   1.086   2.731   5.048  0.0654 -0.0435 -0.3663
10164W        W27688   7.925   0.038  17.045  0.1474  0.1767  0.0667
10165W        W27689   4.082  11.759  14.393  0.0211  0.3848 -0.3056
10166W        W27690  13.577   4.940   2.092 -0.1950 -0.3078 -0.0340
10167W        W27691   7.786   6.689  14.489  0.3534  0.1644 -0.3324
10168W        W27692  12.472   6.821   6.285 -0.0015 -0.3684 -0.0328
10169W        W27693   1.901   7.007  13.161  0.1764 -0.0067 -0.0090
10170W        W27694   8.632  13.894   5.372  0.2467 -0.1351  0.0192
10171W        W27695   3.498   6.666  17.042 -0.3554  0.1595 -0.1038
10172W        W27696   7.148   7.850  17.147 -0.0641 -0.1918 -0.2002
10173W        W27697  10.191   0.128   2.118  0.1016  0.1293  0.3434
10174W        W27698  14.667   1.711  14.070 -0.0858 -0.0271 -0.2541
10175W        W27699   2.714  12.740   5.171  0.2273 -0.2289  0.1232
10176W        W27700   5.496   8.780  17.175 -0.1440 -0.2864  0.2763
10177W        W27701  16.965   8.264   4.287  0.0526 -0.1506 -0.0667
10178W        W27702  10.627   0.336  15.245  0.0860  0.1432  0.0515
10179W        W27703   1.365   8.271   5.361  0.1035 -0.0333  0.0325
10180W        W27704   6.996   9.576   4.867  0.0700  0.0681  0.1688
10181W        W27705  16.352   5.397   4.928  0.1802  0.2411 -0.3633
10182W        W27706   6.845  14.503  16.118  0.0231 -0.3320 -0.0543
10183W        W27707  12.425  16.896   4.819  0.1042  0.0692 -0.0979
10184W        W27708  15.567  16.919  12.612 -0.1206 -0.0492  0.0219
10185W        W27709   7.903  13.718   0.770  0.2603 -0.1864 -0.0247
10186W        W27710  10.638   7.994   1.616 -0.2141 -0.2045 -0.0651
10187W        W27711  14.098  11.939  16.763  0.0150  0.2377  0.0682
10188W        W27712  13.456  13.913   5.740 -0.0686  0.1772  0.4927
10189W        W27713  11.650  10.527   5.492 -0.1085 -0.1264 -0.0853
10190W        W27714   4.778   2.373   3.948  0.0479  0.1513 -0.3538
10191W        W27715   0.222  15.901  16.220 -0.0798  0.1894  0.0037
10192W        W27716   5.239   9.822  10.936 -0.1218  0.0047  0.0200
10193W        W27717  13.208  14.932   1.972  0.0413  0.0081 -0.2495
10194W        W27718   6.065   4.946   3.555 -0.0073  0.1808 -0.3966
10195W        W27719  12.142  14.678  16.679 -0.2488 -0.2243 -0.0831
10196W        W27720  12.491  11.821   3.211 -0.5262 -0.2588  0.3073
10197W        W27721   3.917  15.401   2.824  0.0154  0.1537  0.0445
10198W        W27722   9.006   2.432  14.723 -0.0100 -0.2092  0.2266
10199W        W27723  12.063   1.849  17.342 -0.0560 -0.1804 -0.2507
10200W        W27724  10.556  13.088   1.841  0.0120 -0.0537 -0.0261
10201W        W27725   9.171  10.801  14.383  0.1013 -0.1502  0.3601
10202W        W27726  13.377  11.068   3.169  0.1320  0.0735 -0.0830
10203W        W27727   9.915   4.869   1.969  0.1340  0.0272  0.0159
10204W        W27728   1.533   4.439  15.069 -0.0340  0.3023 -0.2036
10205W        W27729   1.398  12.375  14.029 -0.0732 -0.1003 -0.1261
10206W        W27730  14.878   7.545   3.928 -0.2370 -0.0561 -0.2739
10207W        W27731   1.284  15.626   1.475  0.0640  0.0599  0.0124
10208W        W27732   5.342   0.035  13.931 -0.1102 -0.0119 -0.2153
10209W        W27733   2.673  14.912  11.695  0.2787  0.1646  0.2639
10210W        W27734  14.902   7.069   2.748 -0.1605  0.1277 -0.1365
10211W        W27735   7.063  13.187  16.717 -0.1424  0.2075  0.1287
10212W        W27736   0.606  11.505   3.539 -0.0506  0.0265 -0.0929
10213W        W27737   5.297   4.575  16.751  0.1792 -0.0278  0.2900
10214W        W27738  11.218   4.524  16.296  0.0482 -0.0340  0.0289
10215W        W27739   8.470   2.213   4.866 -0.0331  0.2608 -0.3656
10216W        W27740   4.657   2.128  14.492  0.1091 -0.0567  0.0002
10217W        W27741   1.712   0.515   1.963  0.2982 -0.0814 -0.0847
10218W        W27742  11.069  13.165  17.308 -0.0147 -0.0345  0.1271
10219W        W27743  11.387   2.689  15.316 -0.2938 -0.2924 -0.0352
10220W        W27744   1.169   4.336  12.901 -0.0320  0.4807 -0.1843
10221W        W27745   9.015   7.509  12.497 -0.0359 -0.1133  0.2109
10222W        W27746  11.084   7.489  15.325  0.2648 -0.0025 -0.1519
10223W        W27747  15.750   0.373   5.412 -0.0496 -0.1137 -0.3695
10224W        W27748  15.569   8.763  15.499 -0.0194 -0.0050 -0.0425
10225W        W27749  13.231   5.737  12.585 -0.1589 -0.0924  0.0843
10226W        W27750   1.706  10.977   0.614 -0.0131  0.4593  0.0381
10227W        W27751   3.768  16.680  13.894  0.0795  0.2286 -0.1265
10228W        W27752   7.840   6.859   1.327 -0.0167  0.1482  0.0834
10229W        W27753  11.609  15.457  17.234  0.1380  0.0933 -0.0589
10230W        W27754   9.670   4.336  13.015 -0.0778 -0.0022 -0.0972
10231W        W27755  12.344  11.543  16.458 -0.1177  0.0677 -0.0495
10232W        W27756   7.770  12.490  17.017  0.2509  0.3008  0.2107
10233W        W27757  11.228  10.961   0.947 -0.4633  0.0808  0.1570
10234W        W27758   1.007   8.606   1.484 -0.0504  0.0754 -0.0128
10235W        W27759  10.381  13.187  14.691  0.0125 -0.3702  0.0333
10236W        W27760   5.696  12.454   6.400 -0.0616  0.0873  0.2507
10237W        W27761   1.222  14.480   4.228  0.0348 -0.0327  0.0866
10238W        W27762   1.982   7.532   3.861  0.1506 -0.2864 -0.1299
10239W        W27763  14.470  12.957  11.303 -0.0157  0.2076 -0.1916
10240W        W27764   2.225   7.049  17.071  0.3495  0.0574  0.0207
10241W        W27765   4.598   8.857  16.012  0.0610 -0.2245 -0.0312
10242W        W27766  12.714   7.631   2.474 -0.0366  0.0535  0.0721
10243W        W27767  10.906   5.647   2.795 -0.0219  0.1871 -0.2064
10244W        W27768   8.812  14.862   5.048 -0.2108 -0.2358  0.0049
10245W        W27769   3.345   9.143  14.300 -0.0361 -0.2144  0.4213
10246W        W27770  14.922   3.763   4.335  0.3103 -0.3598  0.2557
10247W        W27771  15.599   4.709   4.853  0.0350  0.0486 -0.0824
10248W        W27772   5.060   7.819  14.650  0.0959  0.2316  0.0315
10249W        W27773   9.710   6.410   4.645 -0.1548 -0.1388 -0.3179
10250W        W27774   0.443   4.223   4.374 -0.0745 -0.0769  0.0438
10251W        W27775   9.769   9.830   0.476 -0.1891 -0.0092  0.1743
10252W        W27776   3.377  13.229   0.289  0.2815  0.3505  0.1180
10253W        W27777   6.272   3.586   5.791  0.3050  0.0383  0.0353
10254W        W27778   5.473   5.402   0.275 -0.5380 -0.0546  0.2298
10255W        W27779   3.671  13.236   2.148  0.2725 -0.0444 -0.0639
10256W        W27780   8.232   6.871  15.318 -0.1390  0.1627 -0.1338
10257W        W27781  12.445  10.603   0.905  0.4188  0.1795  0.4245
10258W        W27782   1.719  16.535   2.860  0.2027 -0.1641  0.2607
10259W        W27783   8.653  14.676  15.841  0.0486 -0.2626 -0.2749
10260W        W27784   2.169   7.210   4.264 -0.1150 -0.0227 -0.1135
10261W        W27785   8.159  14.720   1.404  0.0302 -0.1432 -0.2717
10262W        W27786  16.098   9.895   6.380 -0.0473  0.0783 -0.1330
10263W        W27787  11.615  13.319  12.486 -0.1480  0.0947  0.1481
10264W        W27788   0.216  13.747  13.162  0.1133  0.0187 -0.0735
10265W        W27789   6.164   8.791  16.372 -0.1073  0.2553  0.2473
10266W        W27790   6.030   7.971  15.386  0.0281  0.2773 -0.2638
10267W        W27791  10.738   5.490   2.372 -0.1346  0.0658 -0.0416
10268W        W27792   6.712  10.230   5.220  0.3738 -0.2077  0.0760
10269W        W27793  13.657  13.438  16.290 -0.1322 -0.2223  0.1004
10270W        W27794   7.522   5.212  11.607 -0.1604  0.1514 -0.0036
10271W        W27795   5.094  10.447   0.720  0.0429  0.2637  0.0128
10272W        W27796   2.798  10.395   0.411  0.1647  0.0954  0.0099
10273W        W27797   0.236   5.398   0.991 -0.1908 -0.1958  0.3046
10274W        W27798   8.005   6.576  13.344 -0.1108 -0.0303 -0.1416
10275W        W27799   6.503   8.344  17.597  0.0503  0.0755  0.1802
10276W        W27800   0.956  14.363  15.740  0.0267 -0.0452 -0.1293
10277W        W27801   0.356  11.891  16.065  0.4827  0.0031 -0.5599
10278W        W27802  13.370  13.629   4.204 -0.3436 -0.1131 -0.1285
10279W        W27803   3.802   7.182   4.842 -0.1745 -0.0412 -0.2419
10280W        W27804   2.323  12.505   1.909 -0.0612  0.0659 -0.2408
10281W        W27805  14.136   5.931  16.387  0.1358  0.2217 -0.1055
10282W        W27806  11.632   3.830   3.389 -0.0973  0.4669  0.0177
10283W        W27807  15.806  12.130   3.769  0.2329  0.1877  0.0048
10284W        W27808   9.516  14.986  13.573 -0.1635  0.0739  0.0426
10285W        W27809   3.847  11.785  16.668  0.0181  0.0502 -0.0048
10286W        W27810   5.295  15.600  15.418  0.2173  0.0623 -0.1908
10287W        W27811  10.351   6.396   0.748 -0.2633  0.1695  0.0523
10288W        W27812   6.663  12.046   2.878  0.0798 -0.1166  0.1580
10289W        W27813  15.937   9.748   4.538  0.1073  0.2063  0.1735
10290W        W27814  15.634   7.337  17.519  0.3186 -0.0331 -0.1070
10291W        W27815  16.696  16.798   2.396 -0.0777 -0.1735 -0.0196
10292W        W27816   7.594  13.441   4.888  0.0013  0.1468  0.0246
10293W        W27817   9.953   2.022   0.623  0.0021  0.3085  0.1707
10294W        W27818  16.748  16.369  13.606 -0.0447  0.1975 -0.4227
10295W        W27819   9.297   3.960  14.918 -0.0733 -0.0743 -0.1701
10296W        W27820   7.753  12.913  13.520 -0.1742  0.1286 -0.3429
10297W        W27821   5.328  16.064   1.211 -0.1326 -0.0296  0.1232
10298W        W27822  13.920  13.759   1.166  0.0803  0.1368  0.3786
10299W        W27823  12.476   7.467   1.388 -0.1678  0.0235 -0.2547
10300W        W27824  12.471   5.662   4.574 -0.0621  0.1239  0.0347
10301W        W27825   2.133  12.437  15.577 -0.2122 -0.3383  0.0081
10302W        W27826  16.264   1.498  16.436 -0.0465  0.2180  0.2090
10303W        W27827  12.761  10.068  14.958 -0.1860 -0.3372  0.1017
10304W        W27828   7.257   1.152   2.281 -0.1667 -0.2522 -0.1304
10305W        W27829   5.218  11.349  15.320  0.0877 -0.0942 -0.0890
10306W        W27830  13.438   8.947   5.402  0.0487  0.1326 -0.2171
10307W        W27831   2.984  13.573   0.522  0.1597  0.0015 -0.2482
10308W        W27832   5.229   7.863   4.949  0.0611 -0.3145  0.0427
10309W        W27833   0.266   3.480  15.211  0.0651 -0.0233  0.1181
10310W        W27834  11.360  13.458  15.637  0.0802 -0.0052  0.1057
10311W        W27835   8.405  12.606   3.026  0.1929 -0.2198 -0.3073
10312W        W27836   5.710   5.398  12.441 -0.1908  0.2849  0.0154
10313W        W27837  12.557  14.166  13.710 -0.0057  0.0026  0.1589
10314W        W27838   6.059  11.909  15.648 -0.0250  0.1348 -0.1329
10315W        W27839  13.256  16.341   3.321 -0.5271 -0.0768 -0.3134
10316W        W27840   5.010  15.332  17.178 -0.0018  0.1278 -0.1389
10317W        W27841   8.481   7.659   5.083  0.2683  0.0583  0.1361
10318W        W27842  10.915  14.399  12.492  0.0534 -0.2768 -0.1979
10319W        W27843   5.392   3.971  13.798  0.0403 -0.1779  0.2899
10320W        W27844  11.491   6.334   4.173 -0.1431 -0.1218  0.2446
10321W        W27845   6.273   0.887   1.890  0.2555  0.0132 -0.0945
10322W        W27846  16.022   6.077  14.481 -0.2628  0.0297  0.0200
10323W        W27847   7.374   2.574   0.309 -0.3649  0.2374 -0.0756
10324W        W27848   7.024  14.548   0.940  0.0263 -0.1035  0.2865
10325W        W27849  16.997   6.352   3.863  0.0891 -0.0790  0.0880
10326W        W27850   3.003  12.962   1.043  0.0598  0.0810 -0.1653
10327W        W27851   8.525   5.585   2.652 -0.0329  0.4115 -0.0182
10328W        W27852   0.396  16.608   4.080  0.0976  0.0361  0.0780
10329W        W27853   1.418  10.746   3.496  0.3339 -0.1083  0.0164
10330W        W27854   3.880   4.230  15.734  0.3587  0.2329  0.3756
10331W        W27855   6.275   9.845   2.476  0.3145 -0.1273  0.2202
10332W        W27856   9.660  12.968  17.381  0.1778  0.1287 -0.1289
10333W        W27857  11.404   6.197  14.360 -0.1082 -0.3267 -0.1085
10334W        W27858  17.017  11.585   4.893 -0.0353 -0.1427  0.2453
10335W        W27859   5.902  13.902  14.741 -0.0611 -0.1215 -0.1686
10336W        W27860  10.451  12.167   1.759 -0.1715  0.2547  0.2626
10337W        W27861  15.559  11.485   4.620 -0.0437  0.2133 -0.1843
10338W        W27862  11.462   1.066   4.721  0.0496 -0.0542 -0.0191
10339W        W27863  14.020  14.264  17.336 -0.0652 -0.2208 -0.1802
10340W        W27864  15.854  12.244   2.272 -0.0368  0.2178  0.2131
10341W        W27865  15.667  12.419   3.157 -0.0904  0.0671 -0.3098
10342W        W27866   4.357  13.435   1.113  0.2139  0.1284 -0.0736
10343W        W27867   9.648   4.653  14.270 -0.0989  0.0199  0.3031
10344W        W27868  12.189  14.015   6.012 -0.0542  0.2946 -0.1062
10345W        W27869  13.171   4.120   3.813 -0.0407 -0.1070 -0.0833
10346W        W27870   9.322  15.696  16.757 -0.2692  0.2085  0.0216
10347W        W27871  16.550   5.230  15.338 -0.1303 -0.0361  0.1978
10348W        W27872   7.085  16.869  13.591  0.0417 -0.2076  0.2776
10349W        W27873  14.184   0.939   5.719 -0.3209  0.0695  0.0296
10350W        W27874   3.302   7.525   1.970  0.0934  0.3069 -0.2430
10351W        W27875   1.645  14.943  13.873  0.1075 -0.2769 -0.0708
10352W        W27876   4.999   2.374   2.457 -0.4728 -0.0749 -0.0226
10353W        W27877   7.579  11.420  16.869 -0.1113  0.3348 -0.4185
10354W        W27878   0.617  10.677  17.095 -0.0226 -0.0002 -0.2960
10355W        W27879   7.391   6.404   0.844 -0.2564  0.0386  0.2357
10356W        W27880   2.847   7.358   2.196  0.0721  0.3306 -0.2028
10357W        W27881   1.127   5.113   4.883 -0.0002 -0.0340 -0.0092
10358W        W27882  11.281   2.163   1.268  0.2789  0.3421  0.3958
10359W        W27883  12.175  10.745   3.275 -0.0182 -0.1213  0.2545
10360W        W27884   1.402   6.448   0.931 -0.0825 -0.2804 -0.1315
10361W        W27885  14.637  14.320   3.261  0.1290  0.1979 -0.3149
10362W        W27886   9.219   7.340   0.642 -0.2235 -0.1688  0.1538
10363W        W27887   7.024  10.857   4.846  0.0543  0.0460 -0.1997
10364W        W27888   8.445   7.932   1.789  0.2885  0.1053 -0.0955
10365W        W27889   4.915   2.285  14.101 -0.0168 -0.1814  0.0967
10366W        W27890   6.147   3.721   3.086 -0.0337  0.1473 -0.2137
10367W        W27891   5.350   1.617  17.286 -0.0247 -0.0366  0.0701
10368W        W27892  16.479   5.352   1.932  0.1674 -0.0349 -0.0168
10369W        W27893   5.396   1.270   0.343  0.1454  0.2984 -0.0624
10370W        W27894   5.582  14.337   0.109  0.0350  0.0093  0.1747
10371W        W27895  17.105  17.129  14.793  0.0627 -0.1057 -0.2132
10372W        W27896   9.294   1.991  13.391 -0.0407 -0.0638  0.0121
10373W        W27897   9.304  10.050  14.284  0.0186 -0.1760  0.0033
10374W        W27898   8.583   7.563   3.213 -0.3575  0.2436  0.0544
10375W        W27899   2.608   9.584   2.347  0.2383 -0.1877  0.3657
10376W        W27900   9.087  12.040   1.717 -0.0135  0.0485  0.0822
10377W        W27901   1.008   8.650   4.319  0.0886  0.1378  0.2769
10378W        W27902   5.265   2.190   0.257  0.1831  0.0838 -0.3517
10379W        W27903   1.148   5.945   1.890 -0.0898 -0.2989 -0.1520
10380W        W27904  11.125  17.136   5.077  0.0587 -0.0459 -0.3798
10381W        W27905   2.669  15.448   3.869  0.1565 -0.2220 -0.0035
10382W        W27906   0.284   1.027   5.836  0.2120  0.0228  0.0815
10383W        W27907   3.677  11.573  13.322 -0.1785 -0.1512  0.2301
10384W        W27908   1.909  13.729  16.052 -0.0341 -0.0382  0.1645
10385W        W27909   2.065   7.542   1.695 -0.0043 -0.2229  0.1422
10386W        W27910   1.708  10.349  16.814  0.0728  0.1369 -0.0304
10387W        W27911   8.437   4.377   3.712  0.2341 -0.1648 -0.1058
10388W        W27912   1.236   2.614  15.380 -0.2455  0.0310 -0.2133
10389W        W27913  11.704   5.311  12.576 -0.3423 -0.0043  0.3189
10390W        W27914  15.188   9.719  11.177  0.2838  0.0888 -0.4783
10391W        W27915   3.295   9.837  17.249  0.2138 -0.1251 -0.0554
10392W        W27916  16.337   7.192  16.895  0.1781 -0.1671  0.1113
10393W        W27917   1.626   2.340   2.043  0.1258 -0.0763 -0.3126
10394W        W27918   8.466   6.120   5.597  0.1836  0.0125  0.1553
10395W        W27919  16.519   8.840  13.564  0.1135  0.1575  0.1925
10396W        W27920  15.147   0.826  15.020  0.1983 -0.1131  0.0652
10397W        W27921   5.668   9.489   3.044 -0.1577 -0.1351  0.1176
10398W        W27922   9.269  13.498  13.503  0.0441  0.0853  0.0207
10399W        W27923   2.553  16.252  13.074 -0.4294 -0.2650 -0.1052
10400W        W27924  15.730   5.239   0.237  0.0922 -0.1363 -0.1886
10401W        W27925   8.492   5.045  15.220  0.2237  0.0682 -0.1494
10402W        W27926   8.438   2.227  15.505  0.1276 -0.3116  0.0023
10403W        W27927  16.152   9.144   5.175  0.2013  0.0059 -0.1140
10404W        W27928  10.276   1.059  16.504 -0.0135  0.0066 -0.0166
10405W        W27929  12.449  11.795   4.208 -0.1197  0.1872 -0.1637
10406W        W27930  10.420  14.903   4.585  0.3712 -0.0033 -0.3277
10407W        W27931   5.377   8.251   0.184 -0.4090  0.1544  0.3273
10408W        W27932  14.950   3.582  17.611  0.0564  0.4592 -0.2863
10409W        W27933   8.059   7.621   2.437 -0.1303  0.3000  0.1161
10410W        W27934   9.269   7.406  14.222 -0.0406  0.2302  0.1930
10411W        W27935   0.368   9.698  17.056 -0.0120  0.0057  0.0214
10412W        W27936  14.707   3.621   5.358 -0.1193 -0.0221 -0.1565
10413W        W27937   4.052  12.200   1.103 -0.1127 -0.2151  0.1215
10414W        W27938  14.357  16.655  16.641  0.0721  0.4101 -0.1303
10415W        W27939   1.937   6.692  12.653  0.3335 -0.3179  0.6194
10416W        W27940   0.175  12.125   0.542  0.1217 -0.0475  0.0909
10417W        W27941   9.631  13.149  13.627 -0.1139  0.3451 -0.2101
10418W        W27942  10.561   5.504  16.342 -0.2403  0.0359 -0.0068
10419W        W27943   0.993   3.429   4.322  0.2100 -0.0524  0.2199
10420W        W27944  12.384   0.059  13.077 -0.3228  0.1054  0.0336
10421W        W27945  13.269  15.799   4.195  0.1797 -0.0351  0.1167
10422W        W27946   6.092   9.401  15.279 -0.0134  0.0324  0.1277
10423W        W27947   1.583   8.477  14.351 -0.1529 -0.1811 -0.2465
10424W        W27948   1.257   8.344   2.917  0.1356 -0.0567 -0.1052
10425W        W27949  14.123  14.999   4.989 -0.1174  0.1076  0.0900
10426W        W27950  13.703   1.866   1.366 -0.0710 -0.0255 -0.0859
10427W        W27951   5.820  11.298  13.914 -0.2118 -0.1260 -0.0893
10428W        W27952  14.347   5.441  15.732 -0.1307 -0.0550 -0.0183
10429W        W27953   1.572  14.714  15.135 -0.0195  0.1753 -0.3275
10430W        W27954  15.033   0.393   4.153  0.2619 -0.1004 -0.2024
10431W        W27955   7.698   7.472   1.118  0.3695 -0.4926  0.0159
10432W        W27956   3.861   7.328   1.270 -0.0551 -0.1615  0.2594
10433W        W27957  11.765  12.736   4.286 -0.1083  0.3531  0.1620
10434W        W27958  12.061   4.191  15.684 -0.0171 -0.1948  0.1226
10435W        W27959  12.772   3.099   2.919  0.0885 -0.0118  0.1261
10436W        W27960   7.234   2.255  17.548 -0.3504  0.1606 -0.0900
10437W        W27961  11.379  12.323  14.848  0.0268  0.0727 -0.0123
10438W        W27962   5.442  14.234   5.187  0.0118 -0.0235 -0.0095
10439W        W27963  13.253  15.628  16.451  0.0294 -0.4796 -0.1628
10440W        W27964   0.073   5.656  17.664 -0.3234  0.3787  0.1836
10441W        W27965   4.050   7.346  14.252 -0.0008  0.0760 -0.0203
10442W        W27966   2.238   6.665  17.527 -0.0415  0.1444 -0.0217
10443W        W27967  15.447   6.302  13.345 -0.2561  0.2197 -0.0488
10444W        W27968  10.344   8.658   3.821 -0.0185  0.1405 -0.2282
10445W        W27969   9.038  12.094  15.968  0.1631 -0.0973 -0.0494
10446W        W27970   9.978   2.710   5.195  0.0444  0.1604  0.1465
10447W        W27971  10.514   4.489  13.161  0.0122 -0.0653  0.2231
10448W        W27972   8.543   8.901   1.747  0.1432 -0.3195 -0.0159
10449W        W27973  15.287  15.807   3.288 -0.0586  0.0030 -0.2636
10450W        W27974   6.821  11.199   3.484 -0.1210 -0.1153 -0.1228
10451W        W27975  16.647   6.751  12.805  0.1737 -0.1647 -0.2451
10452W        W27976  16.356   2.399   2.488  0.1851  0.0678  0.0038
10453W        W27977   0.604   0.649  16.494  0.2143 -0.1473 -0.2873
10454W        W27978  12.875   8.500  17.037 -0.2010  0.0395  0.0585
10455W        W27979   5.782   9.525   4.372  0.0564  0.3658 -0.1505
10456W        W27980   8.198   9.981  17.487  0.0343 -0.3773  0.2117
10457W        W27981   1.219   5.912  15.376 -0.0101  0.0030  0.2230
10458W        W27982  14.057   3.527   0.715  0.1197  0.0548 -0.0071
10459W        W27983  12.997   0.143   3.067  0.0159  0.1063  0.3786
10460W        W27984   1.939   4.803   3.341 -0.1444  0.0591 -0.1673
10461W        W27985   2.306  11.050  17.205  0.1210 -0.1517 -0.0531
10462W        W27986  14.867   9.742  15.134  0.3819 -0.3091  0.0002
10463W        W27987  10.301  13.865  15.508 -0.1154  0.1046  0.3151
10464W        W27988  10.133  11.915   1.402 -0.0564  0.4258  0.1272
10465W        W27989   5.903   2.857   0.071 -0.2981  0.1772  0.5049
10466W        W27990  11.414   9.202   1.180  0.2361  0.0299 -0.0355
10467W        W27991   0.469  17.067   5.290 -0.3575  0.0968 -0.1176
10468W        W27992  11.798  10.094   0.718  0.3942 -0.1312 -0.2302
10469W        W27993  16.201  10.882  13.555  0.0616  0.2418 -0.0119
10470W        W27994  11.015   9.716  14.038 -0.0203  0.0668 -0.3113
10471W        W27995   0.409  15.916   5.268 -0.1794 -0.0483 -0.0222
10472W        W27996  11.463   3.972  16.260 -0.0931 -0.1956  0.0524
10473W        W27997  14.026   7.159   5.328  0.1284  0.0119 -0.1421
10474W        W27998  12.186   2.640   5.106 -0.2914 -0.2414 -0.2889
10475W        W27999  12.644  17.101  12.649 -0.0046  0.2056 -0.4117
10476W        W28000   8.909   1.941   5.746  0.0505  0.0323 -0.0611
10477W        W28001   0.940  14.092   4.474  0.0434  0.1205  0.1864
10478W        W28002  16.340  12.528  13.340 -0.2267  0.5258 -0.0552
10479W        W28003  14.695  14.251   4.586 -0.1463  0.1525  0.0151
10480W        W28004  15.257   8.856   5.201  0.1268 -0.0283  0.0640
10481W        W28005  13.868   1.764   1.881 -0.1248 -0.2219 -0.1292
10482W        W28006   8.233   9.547   4.834  0.3704  0.0959  0.1695
10483W        W28007   6.655   7.153  17.368 -0.1010 -0.1152  0.2662
10484W        W28008  16.928   6.587   5.691  0.2526 -0.0071  0.1301
10485W        W28009   5.259  11.126  14.893 -0.0333  0.0996 -0.0854
10486W        W28010  14.866  14.296  13.879  0.0781 -0.1003 -0.2616
10487W        W28011  14.300   7.372   4.722 -0.0038 -0.0303  0.4037
10488W        W28012   5.653   5.504  13.375  0.1461 -0.2020 -0.0508
10489W        W28013   4.844   0.539   1.563 -0.1306 -0.2117  0.0695
10490W        W28014   0.106  10.490  17.030  0.0446  0.1892 -0.0719
10491W        W28015   7.918   9.517   4.463 -0.0458  0.3151 -0.1198
10492W        W28016  16.409   3.295  16.803 -0.1846 -0.2306 -0.3231
10493W        W28017   8.800  14.612  14.681 -0.2096  0.1145 -0.3164
10494W        W28018  12.993  14.569   5.267 -0.1096 -0.1720  0.1704
10495W        W28019  10.696   0.969  16.191  0.1490  0.0240  0.1958
10496W        W28020  15.481   0.862  13.305 -0.2126 -0.0484 -0.0702
10497W        W28021   4.486   8.459   5.187 -0.2211 -0.1080  0.2581
10498W        W28022  10.917   9.827  12.086  0.1953 -0.0359  0.0697
10499W        W28023  11.474  14.553  14.572 -0.3275  0.0553  0.0477
10500W        W28024   3.969   2.283  14.983  0.2908  0.0547 -0.0962
10501W        W28025  10.294  10.817   5.002  0.1126  0.0258  0.0655
10502W        W28026   0.197  11.414  14.883 -0.4152  0.1712 -0.0844
10503W        W28027  12.845   0.578   5.924  0.1210  0.0574  0.1892
10504W        W28028   3.970   4.117   1.865  0.1369  0.0466 -0.2088
10505W        W28029   1.344   1.063  17.580 -0.1187  0.4483  0.3315
10506W        W28030  12.259   4.766   1.805  0.1602  0.1914 -0.0648
10507W        W28031   0.640  10.393  13.475 -0.3390 -0.0287  0.0994
10508W        W28032   0.934   2.289  14.489  0.0616 -0.0066 -0.1355
10509W        W28033  14.262   0.060   3.216  0.2141 -0.0729  0.1062
10510W        W28034   6.820   1.128   0.411 -0.0639 -0.1088  0.1907
10511W        W28035   7.506   1.264   1.538  0.0068 -0.1748 -0.2186
10512W        W28036  12.734   5.211  15.081 -0.1319  0.0680 -0.2271
10513W        W28037  10.300  11.515   1.145 -0.2550  0.2313 -0.3847
10514W        W28038  15.974   6.935   1.589  0.1672  0.0351  0.1001
10515W        W28039   7.846   4.823   3.993  0.0618  0.1025  0.1821
10516W        W28040   5.261   4.036   0.488  0.0178  0.1516 -0.1218
10517W        W28041  15.914   4.152   3.154 -0.0517 -0.1814  0.1935
10518W        W28042   4.153  12.581   3.408  0.1503 -0.1053 -0.0490
10519W        W28043   6.606   6.559   5.266 -0.1138  0.0446 -0.2126
10520W        W28044  16.124  15.889  14.402 -0.0521  0.1701  0.3980
10521W        W28045   5.889  16.430  13.860  0.4422 -0.1103  0.1128
10522W        W28046   1.197   6.806   4.774 -0.0018 -0.2427  0.0714
10523W        W28047  12.988  15.491  14.165  0.1368 -0.1362 -0.4535
10524W        W28048  10.425  11.109  13.238 -0.1987 -0.0884 -0.2118
10525W        W28049   2.420  16.823   2.780  0.1350  0.2233  0.1406
10526W        W28050  13.355   7.030  16.080  0.2416 -0.1874  0.1151
10527W        W28051   6.777  10.616  13.955 -0.0595 -0.0780  0.1704
10528W        W28052  16.051  10.859   1.235  0.0937 -0.1687 -0.2035
10529W        W28053   3.082   0.478   3.101 -0.1253  0.1821 -0.0599
10530W        W28054  15.610   6.468   0.297  0.0034 -0.1721  0.1874
10531W        W28055   0.739   6.640   0.674  0.1003  0.2464  0.3453
10532W        W28056  12.881   4.239  16.264 -0.0234  0.1939 -0.0636
10533W        W28057  11.603  16.271   4.107  0.0357 -0.1450 -0.1742
10534W        W28058  16.003  16.394   3.995 -0.0512  0.1288  0.0056
10535W        W28059  10.457   8.663  15.310 -0.2971 -0.1167  0.0411
10536W        W28060  11.307   3.041  12.656  0.3686 -0.0183  0.1434
10537W        W28061  12.428   9.118  14.400 -0.1563 -0.2650 -0.1081
10538W        W28062   7.044  10.381  15.647  0.0496 -0.1629  0.0323
10539W        W28063   1.418  10.701   0.112  0.3231  0.1119 -0.0736
10540W        W28064   6.537  16.997  13.194  0.0842 -0.0035 -0.1147
10541W        W28065  12.942   6.141  13.433 -0.2648 -0.0583  0.2968
10542W        W28066  13.434   2.905  16.639 -0.0029 -0.0306 -0.0801
10543W        W28067   3.807  12.017   2.013  0.1786 -0.0592  0.0657
10544W        W28068   1.949   9.028  13.589  0.0621 -0.1056 -0.0524
10545W        W28069   2.554  11.319  15.992 -0.2251  0.1930  0.1452
10546W        W28070   7.939   5.065  15.576 -0.0862  0.1192  0.1125
10547W        W28071   6.052  12.387   3.975  0.4489 -0.3631  0.0837
10548W        W28072  16.812   7.153  11.171 -0.1024  0.0077 -0.1982
10549W        W28073  14.687   5.652   3.668 -0.0029  0.0633 -0.1203
10550W        W28074   2.475   3.727  12.668 -0.1267 -0.0481 -0.0298
10551W        W28075   0.016   6.623  17.622 -0.1793  0.2524  0.0569
10552W        W28076  14.579   6.662  14.644 -0.3016  0.0541 -0.2578
10553W        W28077  12.200   2.917  13.590 -0.0744  0.0677 -0.1803
10554W        W28078  13.668   3.410  17.041 -0.0787 -0.1253  0.1062
10555W        W28079   4.528   7.895  17.120 -0.1592 -0.0082 -0.1222
10556W        W28080   9.719  14.117   1.204  0.0766  0.1350  0.2395
10557W        W28081  16.323  13.223  12.519  0.3702  0.1664 -0.2849
10558W        W28082   4.961  10.289  15.320 -0.0344 -0.3401  0.1133
10559W        W28083   7.615   7.491  14.019  0.2295  0.0825 -0.0968
10560W        W28084  12.178  13.860   2.767 -0.0006  0.2201  0.1723
10561W        W28085   2.838   9.973   3.574 -0.2620  0.0493  0.1849
10562W        W28086  11.469   7.017   0.325 -0.0397 -0.0848  0.0936
10563W        W28087  15.178  14.700  16.406  0.1321 -0.1393 -0.3848
10564W        W28088   5.819   6.270   0.815  0.3080 -0.2369 -0.0393
10565W        W28089  12.360  14.653  13.848  0.1185  0.0606 -0.0393
10566W        W28090   9.706   6.977  12.238  0.2754 -0.1432 -0.0201
10567W        W28091   0.016  15.549   3.452  0.0017 -0.2055 -0.0705
10568W        W28092   6.380   4.479  17.204  0.2306  0.0045  0.1232
10569W        W28093   4.568  16.741  15.528 -0.0151 -0.2134  0.1487
10570W        W28094   4.221  15.553   0.943 -0.0528 -0.1332  0.0462
10571W        W28095   6.591  17.020  13.745  0.0576 -0.1741 -0.0047
10572W        W28096   8.419  13.597   0.577 -0.1004 -0.0965 -0.1254
10573W        W28097   1.097   7.484  14.623  0.0606 -0.1624  0.0868
10574W        W28098  16.065   6.552  16.205 -0.0956 -0.2767  0.4238
10575W        W28099  11.828  13.689  14.818 -0.1474 -0.0030  0.2694
10576W        W28100   6.829  15.278   2.148 -0.0247 -0.3464  0.0928
10577W        W28101  16.266   5.592  15.576  0.0057 -0.1159 -0.0123
10578W        W28102   9.819  11.235  15.089  0.2071 -0.1271  0.0947
10579W        W28103   0.024  12.950   3.599  0.0095 -0.1312  0.1465
10580W        W28104   8.379   8.054   3.316 -0.1841  0.0967  0.2954
10581W        W28105   8.445   6.178   5.062 -0.0224  0.0388  0.0793
10582W        W28106   8.655  11.601  12.854 -0.1979 -0.0016 -0.3436
10583W        W28107   1.641   8.658  15.297  0.0060  0.1402 -0.1991
10584W        W28108  13.956   2.418  15.423  0.1379 -0.0683 -0.1050
10585W        W28109   2.522   1.780   2.238  0.1392  0.0486  0.1807
10586W        W28110   2.591  14.449   2.625 -0.0004 -0.1281  0.2419
10587W        W28111  15.661   4.725  14.209 -0.0657 -0.1226  0.0188
10588W        W28112  16.614  16.552  16.559  0.2263 -0.1233 -0.1299
10589W        W28113   2.959  13.835   1.418  0.1745 -0.1187 -0.0447
10590W        W28114   5.541  14.684   5.513  0.0734  0.0162 -0.0220
10591W        W28115   1.233   0.571  17.550 -0.4030 -0.2522 -0.0016
10592W        W28116   2.372   1.404  16.724 -0.2516 -0.0256  0.0447
10593W        W28117   3.576   4.005  15.415 -0.1523  0.3928  0.3043
10594W        W28118  12.067  13.631   3.341 -0.2652 -0.0930  0.0935
10595W        W28119  13.641  15.262   3.409 -0.0424  0.1266  0.3642
10596W        W28120  16.192   6.808   5.436  0.0011  0.1300 -0.3803
10597W        W28121  14.009   6.585   3.562  0.0078 -0.1345 -0.2802
10598W        W28122  10.070   6.230   4.348 -0.1466  0.2475  0.0715
10599W        W28123  15.237   7.022   5.113 -0.1512  0.1300  0.2569
10600W        W28124  15.935   5.794   2.314 -0.2520  0.0182  0.0000
10601W        W28125   9.146   2.259  17.470  0.0657  0.0528  0.2615
10602W        W28126   5.261   0.465  15.635  0.1607  0.3790 -0.1959
10603W        W28127   2.918   5.613   2.279  0.2521 -0.0840  0.0140
10604W        W28128   0.811   7.522  15.853  0.0168 -0.2237 -0.1603
10605W        W28129  13.993  11.852  15.461  0.1282 -0.0514  0.3518
10606W        W28130   1.031  13.072   2.724  0.1177 -0.0477 -0.4282
10607W        W28131   7.709   2.733   5.134  0.0268 -0.1155 -0.0444
10608W        W28132  11.394   4.003   1.707 -0.0954  0.1497  0.1695
10609W        W28133  14.626   3.508   0.683  0.2336 -0.0435  0.1174
10610W        W28134  11.290  16.895  14.925 -0.3203 -0.1658  0.4806
10611W        W28135  11.098  11.870   2.900  0.1015  0.0666 -0.0304
10612W        W28136   9.299   8.922   4.551  0.2215 -0.1160 -0.1912
10613W        W28137   3.531   3.309   1.172  0.0295 -0.2251  0.0429
10614W        W28138   3.355  13.987   4.323 -0.1530  0.3250 -0.0004
10615W        W28139  14.058   7.892  12.603 -0.1706 -0.2131  0.5007
10616W        W28140   6.840  16.316  15.773 -0.2590 -0.3754  0.0169
10617W        W28141  11.484   0.417  15.129  0.0411  0.1909 -0.2538
10618W        W28142   3.639  16.115   3.117  0.1570  0.2366  0.3202
10619W        W28143  16.895   6.570   0.266  0.2357  0.2832 -0.3506
10620W        W28144  15.242  17.124  16.466  0.1254  0.2919 -0.2239
10621W        W28145   5.191  15.107  15.939  0.0331  0.1475 -0.1092
10622W        W28146   5.157   3.069  15.109 -0.1801  0.0640  0.0343
10623W        W28147  12.376  12.112   1.415 -0.0530 -0.0077 -0.3540
10624W        W28148   6.411   0.267   4.370 -0.3779 -0.3546  0.0478
10625W        W28149  14.140   5.999   6.080  0.0968  0.1592  0.0530
10626W        W28150   8.361   4.008  14.770  0.2120  0.0940 -0.1471
10627W        W28151  16.125   1.562   5.779  0.2543 -0.1520  0.0372
10628W        W28152  10.607   6.736   1.781  0.1208  0.2076  0.1795
10629W        W28153   9.759  14.814   1.639 -0.0800 -0.1145 -0.0331
10630W        W28154   7.480   1.515   3.263  0.1291 -0.2580 -0.0975
10631W        W28155  14.886  14.132   2.347  0.3116 -0.0045 -0.0857
10632W        W28156  13.507   5.595   5.286 -0.1648 -0.1589  0.2343
10633W        W28157  16.975  11.633   2.017 -0.1656 -0.0380 -0.1877
10634W        W28158   8.060   3.088   1.969  0.1136  0.1071 -0.0632
10635W        W28159  16.917   5.389   4.787 -0.0280  0.1870  0.0838
10636W        W28160  13.341   6.907   3.233  0.0470 -0.0840 -0.1453
10637W        W28161   4.761   5.554  14.675  0.0516 -0.1832  0.4493
10638W        W28162   1.077   4.467  14.771 -0.1810  0.0070 -0.0886
10639W        W28163   2.960   2.948  13.410 -0.0448  0.0663  0.0500
10640W        W28164  12.995  12.632   1.871 -0.1973  0.4121 -0.1792
10641W        W28165  13.857   8.390  16.068 -0.0385  0.0186 -0.2408
10642W        W28166   3.825  10.387  13.843 -0.0099  0.2967 -0.4585
10643W        W28167  15.383   3.812  16.913 -0.3140 -0.2431 -0.0328
10644W        W28168   9.518  10.928   1.184  0.2509  0.2283 -0.1521
10645W        W28169  12.664   2.834   0.520  0.2068 -0.1185  0.0424
10646W        W28170   5.934  12.907  13.534 -0.0381  0.0428  0.0866
10647W        W28171   9.745  16.074   1.594 -0.1355  0.1197  0.0455
10648W        W28172   0.341   0.609  13.375 -0.1774 -0.0291  0.0413
10649W        W28173   4.515   4.884  17.316 -0.2731 -0.0731  0.1304
10650W        W28174   8.287   3.243  16.677  0.4667 -0.1169  0.0163
10651W        W28175   5.278   1.408  15.361 -0.0293 -0.0668 -0.2021
10652W        W28176   0.872   8.529   3.324 -0.1578  0.5611  0.1233
10653W        W28177   0.951  14.324   5.002 -0.1097  0.0019 -0.1227
10654W        W28178   1.762  12.447  13.619  0.1441  0.5734  0.0955
10655W        W28179   0.923   9.193  15.321  0.1784 -0.4817  0.0421
10656W        W28180  12.897  14.778  13.869 -0.0623 -0.1139  0.0692
10657W        W28181   5.426   9.310  14.009  0.1848 -0.0873 -0.1799
10658W        W28182  14.433  10.573  13.611  0.0946 -0.3241  0.1967
10659W        W28183   3.068   5.817   0.290  0.1864  0.0097 -0.1379
10660W        W28184   6.950   6.906   5.186  0.2959 -0.0679  0.1393
10661W        W28185   5.410   1.346  15.868 -0.3990 -0.1231  0.0798
10662W        W28186  11.210   1.876  12.780  0.0779  0.2060 -0.1126
10663W        W28187   9.959   6.803   4.186  0.1369  0.2177  0.2547
10664W        W28188   5.596  14.287  12.423 -0.1369 -0.0833  0.2059
10665W        W28189   5.358  12.311   3.245 -0.0312  0.5400  0.0104
10666W        W28190   7.826   2.733  15.708  0.0587 -0.0656 -0.1355
10667W        W28191  12.898   6.415   5.473 -0.2968  0.2452  0.2067
10668W        W28192  14.744   0.744  15.832  0.0063  0.2256  0.1522
10669W        W28193  11.838   2.245  13.090  0.4963  0.1373  0.1590
10670W        W28194   7.678   8.192  15.272 -0.1871  0.1180 -0.3093
10671W        W28195   1.409   1.367   0.211  0.0057 -0.0963 -0.0955
10672W        W28196   6.442  15.992   3.700  0.0345 -0.0218 -0.1579
10673W        W28197  15.181   1.314  15.913  0.1733 -0.0526  0.1659
10674W        W28198   4.845   1.940  12.698 -0.2842  0.0522 -0.2430
10675W        W28199   2.451   1.543  14.071  0.1272 -0.1668  0.2290
10676W        W28200   4.774   4.936  12.603  0.0795  0.1685  0.0469
10677W        W28201   5.901   4.792  14.880  0.1849 -0.0485  0.2379
10678W        W28202  10.130  15.425  13.494 -0.0375 -0.0977  0.3615
10679W        W28203  11.724  14.332  14.130  0.2417  0.1988 -0.3190
10680W        W28204   9.908  10.673  17.365 -0.1597 -0.0045  0.0974
10681W        W28205  11.128  13.350  12.493  0.1389 -0.2151  0.0541
10682W        W28206   6.412   6.454   2.329 -0.1252  0.1169  0.1630
10683W        W28207   6.932  16.091   4.996  0.3837  0.0883  0.1900
10684W        W28208   7.143   2.213  15.455  0.2787  0.0184 -0.1862
10685W        W28209   6.766   9.862  13.457 -0.2726  0.0423  0.4297
10686W        W28210   7.772   3.234   2.431  0.2131 -0.2121  0.2522
10687W        W28211   9.281   2.502   0.941  0.0518  0.3122 -0.1095
10688W        W28212  12.897   7.231  16.088 -0.1068 -0.0105 -0.2460
10689W        W28213   5.379  14.287  16.077  0.1332 -0.0913  0.0218
10690W        W28214  14.341  12.204   1.440  0.2649  0.1443  0.0667
10691W        W28215   8.211   0.049   5.427 -0.2158 -0.1506  0.2332
10692W        W28216   8.932   9.365   0.613  0.1153 -0.1157 -0.2710
10693W        W28217   0.626   5.157  13.539 -0.2053 -0.1616  0.0791
10694W        W28218   1.870   2.933   5.467  0.0742 -0.2350  0.3845
10695W        W28219  10.417  14.589   3.348 -0.1250 -0.0198  0.0695
10696W        W28220  14.124  11.667  13.544 -0.1045  0.0726  0.1392
10697W        W28221   7.155  16.105  14.086  0.0197 -0.0476  0.1182
10698W        W28222  15.188  14.804  12.911 -0.2580  0.0691 -0.0165
10699W        W28223   7.249  10.109   3.039  0.2113  0.0209 -0.1144
10700W        W28224  14.916  10.440   5.952 -0.0417  0.0216  0.0104
10701W        W28225  10.153  15.989  15.899  0.3289 -0.0798 -0.0991
10702W        W28226  10.436   4.352   0.106 -0.1304 -0.0848  0.2370
10703W        W28227  11.566  13.819  17.071  0.1566 -0.0754 -0.2270
10704W        W28228  12.979   1.111  13.611 -0.1744 -0.0442 -0.3245
10705W        W28229  13.185  15.522   3.488 -0.2017  0.0561 -0.1472
10706W        W28230   1.390   6.781   1.433  0.3128 -0.2867 -0.0174
10707W        W28231   0.457   4.318   4.841 -0.2269  0.1400 -0.0434
10708W        W28232  13.884   9.978   0.970 -0.0651 -0.0532 -0.0194
10709W        W28233   6.188   9.412  14.458 -0.1826  0.2627  0.0845
10710W        W28234  10.576  16.231  15.744  0.3753  0.0188 -0.2124
10711W        W28235   0.322   0.158  14.539  0.1651 -0.0041  0.0330
10712W        W28236   6.987  14.608   4.077 -0.0164 -0.2264 -0.1896
10713W        W28237   2.288  14.892  12.477 -0.0443  0.0407  0.4119
10714W        W28238  10.082   2.988   4.782  0.2187 -0.0953  0.2502
10715W        W28239   1.506   1.463  14.045  0.1176  0.0696  0.1215
10716W        W28240  13.563   8.249   4.572  0.2589  0.1481  0.1294
10717W        W28241  15.814  10.306  15.247 -0.1189 -0.2068  0.2342
10718W        W28242   2.426  14.591  16.292 -0.0994 -0.1596  0.0870
10719W        W28243   4.011   7.862  15.104  0.3944  0.1148 -0.0854
10720W        W28244   4.157   1.618   2.975 -0.0414 -0.3194  0.1406
10721W        W28245   8.046  15.137   4.583 -0.0860  0.0667 -0.1021
10722W        W28246   0.822   6.751  14.005 -0.1469  0.1433 -0.1295
10723W        W28247  16.090  13.790   0.178  0.3023  0.4548  0.0150
10724W        W28248   8.845  14.773   4.545 -0.2774  0.3194 -0.2241
10725W        W28249   6.323   2.582  17.275 -0.1189 -0.1560  0.1018
10726W        W28250  16.897  15.054  17.716 -0.0745 -0.0464 -0.1493
10727W        W28251  11.793  10.389   4.216 -0.3317  0.0094  0.1285
10728W        W28252   8.752   5.531   4.648  0.0808  0.0585  0.0515
10729W        W28253   9.626   4.593  15.354  0.0816  0.0272  0.1861
10730W        W28254   4.035   5.788  15.316  0.0481  0.0387 -0.1480
10731W        W28255   4.946  12.056  14.145  0.2065  0.0911 -0.0405
10732W        W28256  10.706   9.518   0.293 -0.1368 -0.1612 -0.1518
10733W        W28257   2.428   5.434   4.609  0.1899 -0.3204  0.0285
10734W        W28258  12.564   1.017   5.274 -0.2189  0.0317 -0.2062
10735W        W28259   4.211   1.868  17.587 -0.0956  0.0053 -0.0417
10736W        W28260   3.619  13.855   0.019  0.0094 -0.0261  0.2340
10737W        W28261   0.783  10.070   2.438  0.2112  0.2604 -0.2386
10738W        W28262  11.107   2.699  15.744 -0.3137  0.0941 -0.1888
10739W        W28263  13.047   5.769  15.818  0.1723  0.1265 -0.0903
10740W        W28264  10.028   7.079  16.834 -0.1879 -0.1781 -0.3931
10741W        W28265   8.126  14.135   1.606 -0.1236  0.0417 -0.0494
10742W        W28266   4.762   9.532   1.762  0.0547  0.4489  0.0330
10743W        W28267   7.718  16.797   4.021  0.0603  0.3637 -0.2892
10744W        W28268  16.562  15.065   1.624  0.2339 -0.0578  0.0105
10745W        W28269   7.635  14.309  11.386 -0.1223  0.0406 -0.0175
10746W        W28270  15.722   2.792  15.259 -0.0435  0.2520  0.2087
10747W        W28271   5.030  15.206  12.908 -0.0418 -0.0054 -0.0433
10748W        W28272  15.048   2.137   4.842  0.1012 -0.1214 -0.0321
10749W        W28273   6.746  11.029   0.718 -0.0029  0.0579  0.0042
10750W        W28274   4.601  15.151   4.631  0.1544 -0.1322  0.1611
10751W        W28275   1.599   5.744   1.016  0.0821  0.1748  0.1213
10752W        W28276   5.940  14.072   2.245 -0.0646  0.1501 -0.0782
10753W        W28277  16.251   9.171   1.448  0.0637  0.3134  0.1192
10754W        W28278   4.471  13.935   3.461 -0.3121  0.1476  0.1561
10755W        W28279   1.925   2.318   3.374  0.3282  0.2214  0.1819
10756W        W28280  11.930   6.345   5.204 -0.2354 -0.2274  0.3133
10757W        W28281  14.156   7.270  15.832 -0.2474  0.2272  0.0592
10758W        W28282   8.308  16.192  12.949  0.0292  0.3412 -0.1537
10759W        W28283   3.535  13.264  16.658  0.0230 -0.0219 -0.0717
10760W        W28284   4.392  16.736   5.506  0.0039 -0.1243  0.1361
10761W        W28285  12.253  11.803   2.183  0.0944 -0.0537  0.2243
10762W        W28286   6.913  11.569   5.454  0.3272 -0.0461  0.0416
10763W        W28287   2.692   8.771  16.903 -0.0986 -0.1818 -0.2991
10764W        W28288   2.406   0.512  12.806 -0.1963 -0.0916  0.1318
10765W        W28289   2.391   5.225  12.779  0.1232  0.0569  0.4064
10766W        W28290  10.478  11.929  15.361 -0.4202  0.0647 -0.1177
10767W        W28291  12.822  12.529   3.657 -0.1725  0.1941 -0.1308
10768W        W28292  16.005   5.134   4.138 -0.0931 -0.2349  0.0362
10769W        W28293   4.938  13.650  14.596  0.0009 -0.2277 -0.0742
10770W        W28294   3.913  12.401  14.280  0.1521 -0.0681 -0.1347
10771W        W28295   3.834   2.843   0.113  0.0273  0.0577 -0.1430
10772W        W28296   2.447   6.988  13.587 -0.1467 -0.0956 -0.1435
10773W        W28297   4.000   0.925  16.283  0.1875  0.1438 -0.0944
10774W        W28298  10.094  13.185   3.588 -0.0617  0.0002  0.0167
10775W        W28299   6.643  12.347  13.863 -0.3423  0.2127 -0.1571
10776W        W28300   2.778   9.216  16.666 -0.2041  0.3426  0.0522
10777W        W28301  13.482  16.750  12.672 -0.0611  0.3329 -0.1215
10778W        W28302   0.756  10.254  16.742 -0.0103 -0.0899 -0.3964
10779W        W28303  10.160   5.155  14.814  0.2677 -0.2889  0.0191
10780W        W28304   2.004   1.498   5.210 -0.0775  0.1864 -0.1702
10781W        W28305   8.632  17.022   1.510 -0.0765 -0.2659 -0.0322
10782W        W28306  14.877   5.605   1.784 -0.0178  0.3096 -0.0515
10783W        W28307   4.072  12.674  12.224  0.0669  0.0896  0.1319
10784W        W28308   6.072  10.239  12.998 -0.3603  0.0190 -0.1225
10785W        W28309  15.628   1.068  15.804 -0.1180 -0.1275 -0.4209
10786W        W28310  12.991   4.792   0.151  0.0262 -0.0193 -0.0818
10787W        W28311   0.141  12.282  17.701  0.0744  0.1994 -0.1312
10788W        W28312   8.056  11.457   0.653 -0.0488 -0.1883  0.0359
10789W        W28313  13.360  10.078   4.300  0.1779 -0.4191 -0.3580
10790W        W28314  12.111   7.310   3.135 -0.2142 -0.1093  0.1871
10791W        W28315  11.629   0.319  17.128 -0.1342 -0.2977  0.0276
10792W        W28316   5.036   3.478  12.546 -0.0096  0.4568  0.1352
10793W        W28317   9.537  13.367   3.866 -0.1470 -0.1073 -0.0144
10794W        W28318   1.217   9.364   2.424  0.0198  0.2906 -0.0269
10795W        W28319   6.588   4.359   4.140  0.1897 -0.0418 -0.1594
10796W        W28320   2.799  10.383  17.671  0.0426  0.1517  0.1439
10797W        W28321   7.423  14.546   3.500 -0.1378 -0.3893 -0.0369
10798W        W28322  14.460   8.016  15.279  0.2029  0.1999 -0.4202
10799W        W28323   2.712  10.583   1.815  0.3089  0.1085  0.0193
10800W        W28324   0.516  12.213  14.541  0.1329 -0.0310 -0.3510
10801W        W28325   6.191   1.318  12.854 -0.1396 -0.1054  0.2222
10802W        W28326   6.589  13.543   2.850 -0.0073  0.0342  0.1510
10803W        W28327   7.882   7.669   0.566  0.2335 -0.0727 -0.0975
10804W        W28328   9.157  16.533   4.619  0.5626  0.2919 -0.2944
10805W        W28329  10.608   3.301   3.674  0.0275 -0.0542 -0.2381
10806W        W28330   5.011   1.970   1.257  0.2878 -0.1336  0.0345
10807W        W28331  10.358  17.042  16.459  0.0843  0.1989  0.0278
10808W        W28332   9.253   8.331  11.794  0.2297 -0.0616  0.1504
10809W        W28333  11.010   3.018  16.533  0.0636  0.0681  0.0749
10810W        W28334  14.395   7.778  12.235 -0.0652  0.2080  0.0673
10811W        W28335   9.732   7.618   1.231 -0.0904 -0.1185 -0.1020
10812W        W28336   1.631   3.997   3.579  0.1413 -0.0515 -0.0592
10813W        W28337  10.554   7.455  16.674  0.0249 -0.0273  0.4804
10814W        W28338  14.092   7.042  16.879  0.0528 -0.1781  0.1015
10815W        W28339  15.414  10.479  12.406  0.0965  0.0546  0.2306
10816W        W28340   6.439   0.538   2.237  0.2101  0.0292  0.2882
10817W        W28341   7.351   1.179  12.404  0.0904 -0.2889 -0.0912
10818W        W28342   6.839  12.649   2.740  0.0575 -0.2641  0.1246
10819W        W28343  12.590   8.882   0.287  0.0062  0.2384  0.0073
10820W        W28344   5.216   1.050   4.831 -0.1275  0.1668  0.0754
10821W        W28345  12.490  14.749   1.375  0.2162 -0.0267  0.0427
10822W        W28346   2.251  15.189  11.466 -0.3163 -0.1655 -0.0875
10823W        W28347   0.766  16.254   2.546 -0.3027 -0.0095  0.0624
10824W        W28348  11.657  11.318  15.335 -0.1010 -0.0115  0.2310
10825W        W28349  13.365   5.073   0.982  0.1764  0.2704 -0.0457
10826W        W28350   0.341   1.757  12.599 -0.2602 -0.2201  0.2781
10827W        W28351   1.984  13.783   2.271 -0.0999 -0.0972  0.0739
10828W        W28352   6.447   3.443  12.729  0.4039  0.0021  0.0581
10829W        W28353   1.177  12.812   3.569  0.1998  0.1866  0.0109
10830W        W28354  13.597  15.028  17.072 -0.0594 -0.1654  0.0799
10831W        W28355  12.254   9.149  13.151 -0.0939 -0.0283 -0.1864
10832W        W28356   4.452   9.475  13.143  0.0748 -0.0275  0.1805
10833W        W28357  14.212  14.659  16.186 -0.1802  0.0010  0.0627
10834W        W28358  13.114   8.823  12.076 -0.0607 -0.1521 -0.1382
10835W        W28359  12.040  10.918   5.432  0.0346  0.0397 -0.2041
10836W        W28360   2.475   9.641  16.494 -0.1034 -0.2223  0.0588
10837W        W28361  14.227   6.571   4.472 -0.0143  0.2323 -0.0174
10838W        W28362  16.790   2.863  14.489  0.0724 -0.3029  0.1675
10839W        W28363   4.091  11.033   1.119  0.2441 -0.1054 -0.3735
10840W        W28364   5.929   2.202  14.257 -0.3874  0.0406 -0.1010
10841W        W28365  16.441   7.578  12.420 -0.1950 -0.0232 -0.2840
10842W        W28366   8.285   9.929  15.778  0.0723 -0.1285  0.1175
10843W        W28367  11.735  12.920   4.823 -0.2273  0.1995  0.0661
10844W        W28368   1.962  15.615  12.672  0.0594 -0.0851  0.0263
10845W        W28369  12.074   9.220  12.689  0.1067 -0.0881  0.0632
10846W        W28370   8.430   1.096   2.848 -0.0943 -0.0143 -0.2971
10847W        W28371   7.580  13.170  17.671  0.4001 -0.0618  0.0651
10848W        W28372   9.011  11.972   3.103  0.2035  0.1107  0.1207
10849W        W28373  14.409  13.767   4.482 -0.0405  0.3925  0.0397
10850W        W28374  16.198   0.536   0.967 -0.0017 -0.0230 -0.0809
10851W        W28375   4.112  10.284  17.468 -0.1738  0.0653  0.2912
10852W        W28376   3.127  13.575   3.061 -0.0649  0.0115  0.1388
10853W        W28377  13.689   7.273  15.086 -0.0357  0.0701 -0.0964
10854W        W28378   7.730  16.729  15.518  0.2407  0.0041 -0.2037
10855W        W28379  11.106   5.908   5.422  0.1878 -0.3156 -0.0689
10856W        W28380   0.952  11.786  12.404 -0.0610 -0.0007 -0.0996
10857W        W28381   2.762   1.946  14.095 -0.1031  0.0120 -0.0481
10858W        W28382   8.777  11.134   2.227  0.1427  0.2689 -0.1824
10859W        W28383   3.990   3.354  15.990  0.1599 -0.2558 -0.1455
10860W        W28384  17.018  10.853   4.267  0.1235  0.2143  0.1501
10861W        W28385  11.494   7.213   0.887  0.0606  0.0417 -0.0741
10862W        W28386   3.221   0.840   5.856  0.0077  0.0151  0.1016
10863W        W28387  10.607  12.775  15.572  0.0931  0.2172 -0.1513
10864W        W28388  12.226  13.836  12.414 -0.2189 -0.1007  0.2929
10865W        W28389   1.469  13.509   5.393  0.0191 -0.0957  0.1306
10866W        W28390  16.761   9.420  16.633 -0.2823  0.0675 -0.2933
10867W        W28391  15.442   8.569  15.050  0.2454 -0.1947  0.0844
10868W        W28392   7.187   4.595   0.646 -0.1441 -0.2622  0.1104
10869W        W28393   3.115   8.189   5.251  0.1782  0.5024 -0.1640
10870W        W28394  15.398   1.791  12.228 -0.0075 -0.3320 -0.0970
10871W        W28395  10.914   3.528  14.539 -0.0028  0.2252 -0.1299
10872W        W28396   5.278   8.956   4.895  0.1770 -0.3189 -0.1338
10873W        W28397  13.803  10.330  15.863  0.0129 -0.2639  0.0944
10874W        W28398  16.932   1.592   3.926  0.1385  0.2644 -0.2099
10875W        W28399  13.567  15.892  12.592 -0.4456 -0.1036  0.0123
10876W        W28400   4.356   2.350   1.879 -0.0007  0.1973 -0.1908
10877W        W28401   9.860   1.022   5.379  0.0924 -0.6315  0.4893
10878W        W28402   5.433   1.227   3.831  0.1502 -0.0355  0.1593
10879W        W28403  11.265   5.367   4.108 -0.0845  0.0147  0.0353
10880W        W28404   5.600   1.917   4.700  0.3474  0.0661  0.3293
10881W        W28405   5.598   2.577   2.381 -0.2495 -0.1916  0.0637
10882W        W28406   3.672  11.153   4.170 -0.1207 -0.3612 -0.0094
10883W        W28407  12.471   1.769  13.525  0.3320 -0.1982 -0.0190
10884W        W28408   0.961   6.414  12.333 -0.2535  0.1127 -0.0192
10885W        W28409   8.642  14.342   2.515  0.1691 -0.1102  0.2292
10886W        W28410  14.151   3.107   3.539  0.0855 -0.0714  0.1963
10887W        W28411  13.453   2.509   4.578 -0.0360  0.0567 -0.2164
10888W        W28412  12.871   4.372  14.872 -0.3143 -0.1005  0.0255
10889W        W28413   8.206   8.253  16.712 -0.1502  0.0483  0.3255
10890W        W28414   6.201   3.084  13.169 -0.3883 -0.1392  0.3508
10891W        W28415   2.922  13.973  13.381  0.1859 -0.1280 -0.0689
10892W        W28416  15.943   0.048   0.682  0.0523 -0.1660  0.1620
10893W        W28417   7.386   3.932  15.271 -0.1679 -0.0107 -0.2230
10894W        W28418   6.730  13.932   3.268  0.0281 -0.0032 -0.0513
10895W        W28419   3.520   5.039   0.302  0.0571  0.1327 -0.1637
10896W        W28420   3.326  10.557   4.815 -0.2231  0.0804  0.0671
10897W        W28421  14.090   6.879   2.991 -0.0507  0.1522  0.1089
10898W        W28422   4.455  17.001  17.638 -0.1996  0.0225  0.0339
10899W        W28423   2.882   7.814  15.341 -0.3119 -0.0122 -0.0678
10900W        W28424   7.003  11.426   0.590  0.2844 -0.3055 -0.0764
10901W        W28425  15.204   4.077  12.525  0.0052 -0.0521  0.1105
10902W        W28426   3.268  13.518  16.325  0.2416 -0.1261  0.0855
10903W        W28427   8.115  16.018  13.384  0.2226 -0.1230  0.2573
10904W        W28428   9.494  13.074  14.790  0.1323 -0.2734  0.0986
10905W        W28429  10.752  14.449   3.685  0.2260 -0.1867  0.0765
10906W        W28430   4.477   6.291  17.143  0.0622  0.2042 -0.0958
10907W        W28431   8.225   5.337   1.063 -0.4512  0.0285 -0.1965
10908W        W28432  16.374   3.342   2.838 -0.2251 -0.1548  0.0323
10909W        W28433   7.873   1.000  17.505  0.1950 -0.1890  0.3582
10910W        W28434  16.702  11.179  16.692  0.2400  0.0785  0.1153
10911W        W28435   0.425  16.897  14.388  0.2019  0.0230 -0.0675
10912W        W28436  11.212  14.074   3.554 -0.0661 -0.3797  0.3571
10913W        W28437   5.543  10.734   3.672  0.2081 -0.1185 -0.0455
10914W        W28438   3.065   3.208  11.285  0.1254 -0.2228  0.3184
10915W        W28439  13.806   9.859  17.340 -0.0471 -0.3049 -0.2009
10916W        W28440   5.403  13.031  13.427  0.2270  0.4441  0.0806
10917W        W28441   5.930   3.655  14.179  0.0638 -0.0209  0.0629
10918W        W28442  11.090   7.205  16.350 -0.0714 -0.2104  0.2367
10919W        W28443   6.293   1.401  16.061 -0.3263  0.3200 -0.0329
10920W        W28444  11.886   4.571   0.110 -0.1525  0.0477 -0.3893
10921W        W28445   1.045   3.638   2.208 -0.0671 -0.0035  0.2956
10922W        W28446  10.698  16.566  16.991  0.6096 -0.1302  0.0649
10923W        W28447   0.485   2.827  14.018 -0.2337 -0.1594 -0.5087
10924W        W28448   1.475   5.118   1.673 -0.1508  0.1114 -0.0851
10925W        W28449  12.112  11.725  12.095  0.0393  0.2156 -0.0344
10926W        W28450  13.541  12.551  14.609 -0.0176 -0.0941  0.1119
10927W        W28451  15.306   0.175  13.869  0.1044  0.4604 -0.1576
10928W        W28452   5.118  15.232   0.736 -0.1101 -0.0761 -0.0660
10929W        W28453   2.004  12.944  13.654  0.1475 -0.3813  0.1467
10930W        W28454   7.959   7.548   6.262 -0.1158  0.0321 -0.2771
10931W        W28455   3.336   1.942   4.753  0.0776  0.3152  0.0956
10932W        W28456   0.720  16.121  16.365  0.2152 -0.2938 -0.4198
10933W        W28457  12.107   7.089  14.604  0.1302  0.0619 -0.4524
10934W        W28458   5.081  12.623   2.966 -0.0711 -0.1772 -0.3014
10935W        W28459   6.136  15.358  15.993 -0.0077 -0.2329 -0.1135
10936W        W28460  12.856   1.103  17.040  0.0979  0.0482 -0.0815
10937W        W28461   1.670   3.047  16.839 -0.1105  0.2859  0.0777
10938W        W28462   3.104   0.870  16.592 -0.1238 -0.1453  0.1109
10939W        W28463   2.164   8.008   4.801 -0.1501 -0.3021 -0.1692
10940W        W28464   7.838  16.471   5.011  0.1057 -0.2937 -0.2199
10941W        W28465   8.238  11.734   4.286 -0.0531  0.0834 -0.0367
10942W        W28466   8.944   9.316   1.129 -0.2943  0.0724  0.0509
10943W        W28467  14.239   9.161   0.980  0.0870 -0.1008  0.0675
10944W        W28468  11.764  15.056   3.100 -0.1489  0.0110  0.0012
10945W        W28469  14.205  14.901   6.704  0.1376  0.1743  0.1942
10946W        W28470   0.278  12.670   0.705  0.1095 -0.1124  0.0771
10947W        W28471   1.305  12.453   1.937 -0.1854  0.1175  0.0805
10948W        W28472  10.000  10.618  12.874 -0.0764 -0.0767  0.0116
10949W        W28473   6.760  13.150   2.618 -0.0597  0.1705  0.3091
10950W        W28474   3.129   6.353   2.746  0.0741 -0.1978 -0.1680
10951W        W28475   0.399  10.026   4.813  0.0551 -0.0553 -0.1527
10952W        W28476   4.858   8.068  15.262 -0.0874 -0.1031 -0.0968
10953W        W28477  13.045   5.635  14.181 -0.1931 -0.0744  0.2024
10954W        W28478   9.132   6.475  15.464 -0.2098  0.0904  0.0764
10955W        W28479   2.898  14.864   4.466  0.1029 -0.1908  0.1928
10956W        W28480   9.942  15.014  12.309 -0.1405 -0.0327 -0.2544
10957W        W28481  16.854   4.794  12.447 -0.1375  0.0133  0.0357
10958W        W28482  12.055   4.676  15.938  0.0939  0.0319  0.0385
10959W        W28483  14.639   1.955  15.740  0.1663 -0.0943 -0.2887
10960W        W28484   4.768   5.752   1.466  0.0241  0.3525  0.2111
10961W        W28485  12.520   5.316   1.230 -0.0614 -0.2818  0.2455
10962W        W28486  14.961  13.940   0.735 -0.1152  0.1432  0.2631
10963W        W28487  12.113  17.043  14.654 -0.1536  0.2251  0.0350
10964W        W28488  11.035  12.645   0.797  0.1199 -0.1280  0.3028
10965W        W28489  14.162   4.811  13.852 -0.1926  0.1548  0.2413
10966W        W28490   8.525  12.389  13.832  0.3239  0.0468  0.3979
10967W        W28491  12.396  12.406   5.122  0.0930 -0.1581 -0.0622
10968W        W28492   2.830   1.714   1.828 -0.0219  0.1260  0.0025
10969W        W28493   5.572  14.653  15.373  0.0466  0.1340  0.0773
10970W        W28494  12.631  10.853   1.667 -0.0718 -0.1309  0.0591
10971W        W28495   0.091   6.518   0.648 -0.2486  0.0418 -0.0921
10972W        W28496   5.227  11.687  13.405  0.2056 -0.1589 -0.1379
10973W        W28497  11.623  15.638   2.441 -0.0371 -0.1229 -0.1204
10974W        W28498   4.701   5.974  15.915  0.1788 -0.3133  0.2419
10975W        W28499   0.656   0.199   5.647 -0.0657 -0.3081  0.0339
10976W        W28500   1.853   0.805  13.954  0.0166 -0.1172  0.0843
10977W        W28501  13.757   7.376   2.251 -0.1498 -0.1940  0.1341
10978W        W28502   5.546  12.735   2.820  0.0949 -0.1301 -0.0043
10979W        W28503   0.145  10.512  13.587  0.1645 -0.3566 -0.4646
10980W        W28504  15.146  14.787   4.480 -0.2528 -0.0491 -0.0742
10981W        W28505   7.141   4.107  14.655  0.0286  0.0573  0.1769
10982W        W28506  15.159  15.097  14.261 -0.0730 -0.1519  0.0120
10983W        W28507  14.721  14.832   5.665  0.2676 -0.0087  0.0237
10984W        W28508   9.557   2.142  15.927  0.0051 -0.0466  0.1760
10985W        W28509   9.444   7.746  12.649  0.1700  0.1554 -0.2929
10986W        W28510   4.877   2.927  17.376 -0.0757 -0.0639  0.0681
10987W        W28511   0.080   7.621   5.472 -0.2040  0.1363 -0.1624
10988W        W28512  11.189   4.810  13.285 -0.1214  0.2200  0.2161
10989W        W28513   5.279  16.774   1.802  0.0341  0.1145  0.0629
10990W        W28514   2.225   8.531   5.071  0.2688 -0.1075 -0.2486
10991W        W28515   6.466   9.525  14.926  0.0493 -0.1024 -0.2209
10992W        W28516  16.773   2.748   2.723 -0.1071  0.1543  0.2355
10993W        W28517   0.465   7.709   2.327  0.3019  0.0646 -0.1852
10994W        W28518  13.609   8.325  16.598 -0.0646 -0.0242  0.1883
10995W        W28519   2.627   6.855  17.276  0.1811 -0.1089 -0.0524
10996W        W28520   8.787  11.894  14.514 -0.5399  0.0642  0.3687
10997W        W28521   3.136   1.285  15.310 -0.0708  0.3944 -0.0383
10998W        W28522  11.111   0.314   5.532  0.0188 -0.3354  0.0921
10999W        W28523  17.143  11.929   0.961 -0.1479  0.0120  0.0138
11000W        W28524   8.985   1.797  14.675  0.1174  0.2319  0.0586
11001W        W28525  17.118   9.475   1.454 -0.2946 -0.0299  0.2695
11002W        W28526   3.243   3.257   4.325  0.1166 -0.0967  0.2154
11003W        W28527  15.273   6.719   2.075  0.0708  0.1938  0.2273
11004W        W28528  13.934   8.966   0.650 -0.1955  0.0595  0.0800
11005W        W28529   8.487   2.550   2.269 -0.2434  0.2467  0.0912
11006W        W28530   3.177   0.951  17.500  0.1390 -0.2425 -0.2356
11007W        W28531   1.631   5.478  14.843  0.0634 -0.1682  0.3055
11008W        W28532  12.244  14.413  12.438  0.1358 -0.0052 -0.1337
11009W        W28533  13.253  14.725  13.528  0.2020  0.1635  0.1720
11010W        W28534   1.862  11.755  14.311  0.1725 -0.2502 -0.2091
11011W        W28535   5.832  13.541  14.377 -0.0269  0.1594  0.0142
11012W        W28536   5.111   6.382  12.414  0.1869  0.1543 -0.1976
11013W        W28537   1.242  12.971   4.033 -0.0417  0.1018  0.1784
11014W        W28538  12.805  11.694  16.797  0.2256 -0.0689 -0.0027
11015W        W28539  13.520  12.335  13.562 -0.1297  0.2524  0.0087
11016W        W28540  13.292   0.324   6.052  0.0462  0.0488  0.0751
11017W        W28541  14.962  12.588  14.329 -0.1220 -0.1449  0.1385
11018W        W28542  15.142  10.502  17.551  0.1035 -0.2310 -0.1474
11019W        W28543  16.969   2.405  14.511 -0.0240  0.0079  0.1434
11020W        W28544  16.488   8.796  14.488  0.3272 -0.0960  0.1808
11021W        W28545  11.344  15.636   3.868 -0.3055  0.1710 -0.3018
11022W        W28546  16.190   1.542   3.593  0.3041  0.0524 -0.2536
11023W        W28547   4.557   5.899   4.922 -0.0606 -0.1596 -0.0095
11024W        W28548  16.215   6.408   5.140  0.3378  0.0728 -0.0033
11025W        W28549   4.051   8.768  16.134  0.1273 -0.0665 -0.3274
11026W        W28550   4.197   4.509   1.679  0.3910  0.1678  0.1858
11027W        W28551   6.921   7.722  16.288  0.1399 -0.3561  0.3421
11028W        W28552   7.827   9.781   1.584 -0.1539  0.0537 -0.2299
11029W        W28553  10.672   3.469   1.272 -0.0238 -0.1143 -0.1414
11030W        W28554  10.832   9.428  15.977 -0.0130 -0.1287 -0.3200
11031W        W28555   3.325   9.101   0.195 -0.0987 -0.0559 -0.2342
11032W        W28556  15.252  10.545   3.119  0.0139  0.2077 -0.2177
11033W        W28557  14.081   4.371   1.909 -0.2276  0.1000  0.0476
11034W        W28558  11.034  15.831   0.428 -0.0137 -0.2749 -0.2656
11035W        W28559  15.873   0.126   3.196 -0.0027  0.1050  0.3790
11036W        W28560   3.279   3.564   2.709 -0.2310  0.3086  0.0549
11037W        W28561  13.179  12.786  13.117  0.0148 -0.0697  0.1051
11038W        W28562   9.249  10.855   3.768 -0.4124  0.2422 -0.0530
11039W        W28563   7.275   6.444   1.974 -0.0703  0.0787 -0.5613
11040W        W28564   1.509   0.002  17.591  0.0137  0.2694  0.0507
11041W        W28565   7.793  10.876  17.568  0.1770 -0.0687  0.1333
11042W        W28566   2.285  12.381   5.341 -0.2019  0.1121  0.0271
11043W        W28567  16.798   2.066   3.925 -0.0196 -0.1294  0.1640
11044W        W28568  12.304   8.204  13.573 -0.2072  0.4434  0.1261
11045W        W28569  14.035  12.328   2.741  0.1785 -0.3149 -0.1468
11046W        W28570   5.092  13.397   1.835 -0.0511  0.1635 -0.1080
11047W        W28571  12.882   2.296  13.004  0.0016 -0.0157 -0.2392
11048W        W28572   3.973  14.645  12.696  0.0137  0.3504  0.1846
11049W        W28573  11.882   0.317  13.897  0.0106  0.4122  0.1557
11050W        W28574   1.708   2.735  15.102 -0.0692 -0.1848  0.0465
11051W        W28575   2.583   3.029  15.559  0.0126  0.1706 -0.3812
11052W        W28576  16.892   7.805  12.296 -0.0709  0.0347  0.1371
11053W        W28577  15.349   1.505   4.216  0.1794 -0.0095 -0.2717
11054W        W28578   0.538   7.657  16.803 -0.0305 -0.2549  0.1409
11055W        W28579   8.417  15.888   3.155  0.1701  0.0466 -0.0078
11056W        W28580   1.723  16.645  15.543 -0.3046 -0.0657 -0.0307
11057W        W28581   3.021  16.882  16.627 -0.1107  0.2782  0.0282
11058W        W28582   1.831   9.807   3.530 -0.1793 -0.1300 -0.0030
11059W        W28583   7.740   6.620   4.427 -0.1887 -0.2020 -0.1185
11060W        W28584   3.613  10.698   5.271  0.3049 -0.0137 -0.1493
11061W        W28585   2.744  11.396   3.850  0.0264 -0.0396  0.1510
11062W        W28586  14.724  11.103   3.519  0.0511  0.0569  0.2183
11063W        W28587   2.759   0.782   4.755 -0.2501 -0.1871  0.0559
11064W        W28588   3.523   8.641  14.322 -0.2491 -0.0754  0.1869
11065W        W28589  13.383  13.753  12.759 -0.2097  0.1214 -0.1200
11066W        W28590  15.258   9.665  13.535  0.1429  0.1460  0.0624
11067W        W28591  11.685   7.319  12.275  0.1552 -0.1629  0.3472
11068W        W28592  12.345   7.350  15.982 -0.1881 -0.0416 -0.1830
11069W        W28593   7.037  15.724   4.016 -0.1041 -0.1272 -0.0688
11070W        W28594   7.712   0.569  16.634 -0.4593 -0.2332  0.3759
11071W        W28595   6.922   2.070  12.057  0.0050  0.1536  0.0154
11072W        W28596   9.661  14.112  14.617 -0.0866 -0.0799  0.0949
11073W        W28597   3.825  13.252  13.862  0.1121  0.0220 -0.0010
11074W        W28598   4.058  16.530  16.226  0.2751  0.2713  0.1648
11075W        W28599   0.984   2.975   3.169  0.2413  0.0792 -0.0841
11076W        W28600   7.614   5.728   4.884 -0.1384 -0.0682  0.0281
11077W        W28601  12.004   1.848   1.456  0.0091  0.0481  0.0554
11078W        W28602   8.164   4.375  12.214 -0.1225 -0.2508 -0.4542
11079W        W28603   7.694  12.058  14.756  0.0296 -0.1981 -0.0199
11080W        W28604  12.169   2.030   3.872  0.0181  0.1472 -0.0378
11081W        W28605  16.484   0.003   0.401  0.2311 -0.2015  0.1351
11082W        W28606  11.584  17.100   2.806  0.0500  0.0369 -0.0012
11083W        W28607   3.925   7.449  15.977 -0.3497  0.2775 -0.0542
11084W        W28608  15.933  13.796   0.699 -0.3487  0.2298  0.2849
11085W        W28609   4.325  16.331  17.125 -0.1375  0.0137 -0.1828
11086W        W28610  13.567   2.523  15.651  0.3603 -0.1694  0.1971
11087W        W28611   5.838  13.676   4.302  0.2197 -0.1178  0.2480
11088W        W28612  14.052  11.876   3.881  0.2546  0.1671  0.2391
11089W        W28613   6.140  13.549   1.355 -0.0504 -0.0233  0.0055
11090W        W28614  15.694   8.129  12.505 -0.0773 -0.0300 -0.0380
11091W        W28615   8.411   5.529   1.498  0.1827  0.0587 -0.1240
11092W        W28616  16.081   8.338   4.009  0.0931  0.0038  0.1076
11093W        W28617   4.467   5.709  15.539  0.0516  0.1864 -0.0554
11094W        W28618   9.367  13.258  17.670  0.0276  0.2216  0.0804
11095W        W28619   2.592  10.791   3.071  0.0417 -0.1042  0.2628
11096W        W28620  10.819  13.255   5.814 -0.0551 -0.0632  0.0296
11097W        W28621   2.122   9.773  12.306  0.1377  0.1894  0.0862
11098W        W28622   0.370   6.134  16.341 -0.0920  0.1875  0.0620
11099W        W28623  10.586   8.689  14.832 -0.0829 -0.0251 -0.1672
11100W        W28624  17.106  13.811   4.290 -0.1781 -0.2891  0.2014
11101W        W28625   7.876   4.539   4.426 -0.0602 -0.0986  0.0402
11102W        W28626   3.402  11.062  14.260 -0.0912  0.2777  0.4094
11103W        W28627   5.322  16.885  16.525  0.3036  0.2618  0.1418
11104W        W28628   9.499   5.345  17.692 -0.0932  0.0319  0.3312
11105W        W28629  10.005  11.859  13.630  0.1572 -0.1168 -0.1789
11106W        W28630  11.691   4.125   2.309  0.0059  0.1167  0.0232
11107W        W28631   0.346  13.500   4.253 -0.0475  0.2498 -0.0304
11108W        W28632  10.621   9.387   3.102  0.1359  0.0186  0.0537
11109W        W28633   9.283  16.220  12.935  0.0820  0.0273 -0.0810
11110W        W28634   1.838   0.194  16.259  0.2950  0.0717 -0.0935
11111W        W28635   6.075   1.113   2.606  0.0660  0.0151  0.3982
11112W        W28636   7.429  12.533   2.553 -0.1403 -0.2090  0.0674
11113W        W28637  10.031   0.345   2.585 -0.0589  0.3837 -0.1478
11114W        W28638   7.139  10.849   2.549  0.0292 -0.0032  0.0474
11115W        W28639  13.330  10.457   4.669  0.2294 -0.1581  0.0356
11116W        W28640   0.799   0.523  13.209  0.0713  0.1635 -0.3760
11117W        W28641   8.173   3.736   3.052 -0.0298  0.0665 -0.2074
11118W        W28642  14.906   6.820  15.887  0.3508 -0.0896  0.1184
11119W        W28643  14.107   0.987   0.529 -0.2107  0.2910 -0.0398
11120W        W28644  16.026   0.526  16.919  0.1555 -0.0493 -0.0563
11121W        W28645  13.467  13.756   0.878 -0.2695  0.1250  0.1374
11122W        W28646  16.437   3.373   4.187 -0.2407  0.0129  0.0852
11123W        W28647   5.991  12.707  17.164 -0.1137 -0.1710 -0.3405
11124W        W28648   7.431   7.138   0.399  0.3104 -0.1013  0.2278
11125W        W28649  11.219   0.942  17.462 -0.1754 -0.4178 -0.3015
11126W        W28650   4.558  15.840  13.126 -0.0301 -0.1334 -0.0087
11127W        W28651  10.041   8.640   3.431  0.0622  0.1036 -0.1275
11128W        W28652   7.522   7.371   5.002  0.0708  0.0093  0.0412
11129W        W28653  17.104  16.128  15.231  0.0068 -0.1995  0.1119
11130W        W28654  14.440   8.650   4.051  0.1016 -0.2530 -0.1778
11131W        W28655   3.367   0.259  12.917  0.1438  0.2009  0.1945
11132W        W28656   1.556   6.302   1.387  0.1658  0.0234 -0.2732
11133W        W28657  12.464   7.414  12.852 -0.1204  0.0138  0.2941
11134W        W28658   5.085   3.156   5.199 -0.0722 -0.1306  0.3798
11135W        W28659  17.013   7.772   4.487  0.2203 -0.0606  0.1129
11136W        W28660  16.805  11.774   2.481 -0.0175 -0.1177  0.1775
11137W        W28661   0.572  14.341  17.238  0.0010 -0.0082  0.2351
11138W        W28662   2.723  10.857  17.492 -0.0061  0.1003 -0.0613
11139W        W28663  10.502   4.993  14.499  0.1531  0.0952 -0.0552
11140W        W28664   8.752  10.676  15.316  0.1584  0.0041  0.1979
11141W        W28665  16.518   9.008  14.924  0.2405  0.1425  0.0093
11142W        W28666  15.192  11.597   2.566 -0.2273  0.0257  0.3134
11143W        W28667  16.601   0.322   3.613 -0.0912  0.3993 -0.0082
11144W        W28668  12.586  10.753  11.619 -0.2097  0.2261  0.2353
11145W        W28669   7.548  15.436  15.589  0.0617  0.1235 -0.1288
11146W        W28670  13.674   7.107  15.660 -0.0788 -0.0230  0.1040
11147W        W28671  13.385   8.615   0.073 -0.2510  0.1513  0.0897
11148W        W28672  12.924  16.966   1.291 -0.2353 -0.2850 -0.2836
11149W        W28673   2.123   9.670   4.419 -0.0405  0.1660 -0.0772
11150W        W28674   1.312   8.231   4.292  0.2272 -0.1384  0.0598
11151W        W28675  15.892  10.341  12.433 -0.1391 -0.3077  0.4007
11152W        W28676  12.121   3.426   3.941 -0.0079  0.3748 -0.0195
11153W        W28677  11.636  12.527  13.603 -0.1994 -0.0678  0.2386
11154W        W28678   1.497   2.271  16.367 -0.1045  0.1759  0.0527
11155W        W28679  15.385   7.455  16.526  0.0330 -0.0324  0.0028
11156W        W28680  10.878   2.308   2.798 -0.2067  0.4081  0.0518
11157W        W28681  14.686   8.999  15.988  0.0671 -0.0954 -0.0563
11158W        W28682   5.772   0.277  14.656 -0.1994 -0.1717 -0.0697
11159W        W28683   7.901  17.058  13.670  0.0152 -0.1447 -0.1395
11160W        W28684  16.278   1.043  13.573  0.0210 -0.1927  0.1057
11161W        W28685  14.732   9.067   2.600 -0.0710 -0.2991 -0.0085
11162W        W28686  12.782   1.151   3.289  0.0339  0.0643  0.0598
11163W        W28687   8.720   7.636   3.716  0.1208  0.4141  0.0858
11164W        W28688   3.974   1.200   3.129  0.0273 -0.0680 -0.0513
11165W        W28689   1.467   8.292  14.830  0.0944  0.0137 -0.0390
11166W        W28690   4.119   9.858  13.338 -0.0162  0.2366  0.0004
11167W        W28691   7.653   7.186  14.644 -0.1633  0.0477  0.1899
11168W        W28692   4.221   7.869   1.679 -0.3282  0.1066 -0.0921
11169W        W28693   6.571   4.156  14.802  0.0117  0.0981 -0.2821
11170W        W28694   1.920  13.260  15.324 -0.0643 -0.4065 -0.0745
11171W        W28695  13.869   8.376  12.795 -0.2739  0.3798  0.0126
11172W        W28696   8.315  11.667  12.459  0.0079  0.1130  0.0944
11173W        W28697   9.799  13.418  12.570 -0.1170  0.0837 -0.1326
11174W        W28698  10.702   0.480  12.521  0.1547  0.3222  0.1193
11175W        W28699  13.175   0.764   2.311 -0.0215  0.2290 -0.1293
11176W        W28700   3.990   8.285  14.783 -0.0661 -0.4111  0.5364
11177W        W28701   4.300   9.971   2.341 -0.0714  0.0524 -0.1706
11178W        W28702  17.138   2.684   4.379  0.1950  0.0491 -0.0808
11179W        W28703  10.642  16.259  15.275 -0.1731 -0.1818 -0.3416
11180W        W28704  15.357   4.785  12.377  0.2399 -0.0436  0.0374
11181W        W28705   6.522  12.326  15.465  0.1951 -0.2440 -0.1805
11182W        W28706   1.484   1.340  17.163 -0.1895 -0.2670 -0.2004
11183W        W28707   8.085   6.434   2.566 -0.1669 -0.0747 -0.0307
11184W        W28708   8.161   6.855   4.299  0.2686  0.0523  0.1538
11185W        W28709  11.127   4.601   0.611  0.0110 -0.1038  0.0178
11186W        W28710   5.454   9.800  14.813  0.2733  0.3136 -0.2265
11187W        W28711  10.557   9.780  12.932 -0.0023  0.1984  0.1389
11188W        W28712  14.794   2.530  15.535 -0.1124 -0.1583 -0.1433
11189W        W28713  14.209   2.151   0.568  0.1569 -0.2504 -0.0186
11190W        W28714  10.964   1.362  15.760 -0.2591 -0.3021  0.0344
11191W        W28715   8.728  16.139   3.416 -0.1405  0.4426  0.1434
11192W        W28716   5.238  12.109  12.606 -0.1774 -0.1386  0.1412
11193W        W28717   6.790   1.108  16.022 -0.1181 -0.0599 -0.2114
11194W        W28718  11.870  12.134   1.307 -0.1072  0.0276 -0.4590
11195W        W28719  10.419   4.397   5.720 -0.2806 -0.0743  0.1458
11196W        W28720  16.071  10.822   4.220  0.0316  0.0235  0.1321
11197W        W28721   4.997  11.478  12.069  0.2750 -0.2255  0.0758
11198W        W28722   3.494   9.034   4.230 -0.1147 -0.1021 -0.2105
11199W        W28723   6.688   3.333  15.338  0.0067 -0.0175  0.1562
11200W        W28724  13.924   2.830  16.471  0.0485  0.2061  0.2171
11201W        W28725  14.456   7.651   1.650  0.0236  0.0640 -0.2475
11202W        W28726  16.772  14.262   0.877 -0.2365 -0.1995 -0.0033
11203W        W28727  11.029   8.568  14.554 -0.2125 -0.1558  0.2177
11204W        W28728  11.138   2.324  17.564  0.1141 -0.2183  0.2385
11205W        W28729   7.957   4.955  15.057 -0.0569 -0.1822 -0.0378
11206W        W28730   9.310  14.931  13.134 -0.0523  0.1017  0.2703
11207W        W28731  12.888   8.477  14.199 -0.0339 -0.2957 -0.0914
11208W        W28732   9.411   0.311  12.513  0.1032  0.3050 -0.1190
11209W        W28733  10.229   2.597   4.283  0.1148  0.3471 -0.3571
11210W        W28734   6.830   8.940   1.634 -0.3082 -0.6925  0.1040
11211W        W28735   5.458  10.366  17.622 -0.1259  0.0368 -0.1143
11212W        W28736  11.685   6.766  14.557 -0.1729 -0.0043  0.0190
11213W        W28737  14.779  15.382  16.291 -0.0242  0.0168 -0.0758
11214W        W28738   0.093   4.048   1.251 -0.2021  0.0268  0.0723
11215W        W28739  11.405   6.028   4.601  0.0973 -0.0395 -0.0259
11216W        W28740  10.931  15.730  11.901 -0.0168 -0.2476  0.3427
11217W        W28741  12.773   8.668   4.344 -0.0707 -0.0768  0.1591
11218W        W28742  14.341   8.606   0.293  0.3742  0.3173 -0.2110
11219W        W28743   5.902   8.008  15.858  0.0549 -0.2635  0.0418
11220W        W28744   5.998   7.591  12.709  0.1879  0.2680  0.1162
11221W        W28745  16.253   2.095  14.740  0.0094  0.0075  0.0951
11222W        W28746   8.358   7.005  16.768  0.1297 -0.0433 -0.0695
11223W        W28747   0.166   6.442   1.593 -0.0284 -0.2323 -0.1267
11224W        W28748  16.568  16.713  12.587 -0.0845  0.1616 -0.0221
11225W        W28749  11.140   9.958   1.945  0.1247  0.2034  0.2715
11226W        W28750   3.563  11.296   3.674 -0.6743  0.1769 -0.1672
11227W        W28751   8.761  14.930   1.891  0.2634  0.2113 -0.1488
11228W        W28752  12.447   5.756   0.462  0.1605 -0.2514  0.0278
11229W        W28753  17.009   5.513  16.683  0.0538  0.0177  0.1179
11230W        W28754  11.999  14.857  11.807  0.2490 -0.0483 -0.0265
11231W        W28755  15.542  16.096   0.933  0.0208 -0.1011 -0.0827
11232W        W28756   1.262  12.087  12.690  0.0964 -0.0807  0.3754
11233W        W28757   7.383   3.186  12.362  0.3715  0.0766  0.0784
11234W        W28758  15.568   6.446  14.626  0.1834 -0.0648 -0.4124
11235W        W28759   2.987  16.457   6.031 -0.0431  0.0053  0.3917
11236W        W28760  15.003   4.761   3.243  0.0018 -0.3073 -0.2339
11237W        W28761   3.541   0.635  16.442 -0.2053  0.1625  0.0338
11238W        W28762   6.980  12.546  12.568 -0.4020 -0.0230 -0.5649
11239W        W28763  12.181  13.352  12.326  0.2750 -0.0631  0.0353
11240W        W28764  10.116  11.132   0.509 -0.1058  0.1184  0.1890
11241W        W28765   7.386   3.935  14.148 -0.0779 -0.2417 -0.1991
11242W        W28766  11.296   3.972  14.672 -0.1782  0.0581 -0.2192
11243W        W28767   2.712  14.049  17.110 -0.1550 -0.2534 -0.1757
11244W        W28768  16.755  14.853   5.394  0.2258  0.2596  0.6786
11245W        W28769   0.442  16.443  14.765 -0.0543 -0.3294 -0.1772
11246W        W28770   7.236   4.836  15.862 -0.2173  0.0106 -0.1375
11247W        W28771   8.397   3.546   0.487  0.0345  0.5137  0.4072
11248W        W28772   5.912   9.458  17.642 -0.1198 -0.0167  0.1057
11249W        W28773   4.398   5.041   1.739 -0.3516  0.3034  0.2226
11250W        W28774   3.737  13.399  17.512 -0.0930  0.0474 -0.0699
11251W        W28775  15.387   0.608   2.369 -0.1964  0.3655 -0.2260
11252W        W28776  10.678   9.329   1.234  0.0382  0.0944 -0.1148
11253W        W28777  11.579  12.430  15.401  0.0653  0.1321  0.1248
11254W        W28778  15.009   2.555  15.044  0.0313  0.0641  0.1947
11255W        W28779  15.440   6.485   0.914  0.0971  0.2095  0.0303
11256W        W28780   4.712  12.216   2.257 -0.2859 -0.3312  0.1286
11257W        W28781   0.055  14.267  12.556  0.2381 -0.0163 -0.0183
11258W        W28782  12.713   5.725  12.642  0.2968 -0.2185  0.0822
11259W        W28783   6.244   9.924  15.159  0.0697  0.3874 -0.1584
11260W        W28784   1.408   9.797  13.983 -0.5478 -0.3234 -0.0035
11261W        W28785  12.412   2.062   2.209  0.0043  0.3386 -0.0026
11262W        W28786  15.847   3.862   4.608  0.2398 -0.1053  0.0150
11263W        W28787   6.215  12.330  14.956 -0.0603  0.2054 -0.2028
11264W        W28788   5.603  16.934   3.083  0.0736 -0.2106 -0.0802
11265W        W28789   1.419   2.202   4.892 -0.1851  0.1597  0.1945
11266W        W28790  16.760   8.822  13.109  0.3712 -0.2827 -0.1290
11267W        W28791   5.811  12.628   5.290 -0.2631 -0.1334  0.0996
11268W        W28792   3.236  14.955  12.492 -0.0229 -0.3932 -0.2516
11269W        W28793  17.041  13.347   3.957  0.3276 -0.0788  0.0031
11270W        W28794   8.263  12.796   3.509  0.1795  0.0773  0.0526
11271W        W28795   6.941  16.086   2.831  0.2742 -0.1268  0.0409
11272W        W28796  12.275   5.189   5.792  0.2164  0.1958  0.1377
11273W        W28797  12.675   4.493   5.225  0.0712 -0.0629  0.0900
11274W        W28798   2.001   7.997   3.938  0.1038 -0.0540 -0.3202
11275W        W28799  12.820   8.275  16.144 -0.0282 -0.0596  0.2210
11276W        W28800  11.597   4.592   5.407 -0.2654  0.0818  0.2237
11277W        W28801  10.791   5.403  17.318 -0.0306 -0.0218  0.0698
11278W        W28802   2.045  14.126   3.760 -0.1782 -0.3611 -0.0818
11279W        W28803   7.458   0.149  17.326 -0.0002  0.0775 -0.0649
11280W        W28804   9.237   3.257  17.068  0.3619  0.2092  0.1858
11281W        W28805   4.875   4.343  15.632  0.0607 -0.3199  0.1210
11282W        W28806   9.206  15.047   3.263 -0.1351 -0.0706 -0.0160
11283W        W28807  15.263   4.938   1.278 -0.2573 -0.1473  0.0431
11284W        W28808   3.527  10.643  15.104  0.1356 -0.0846  0.2811
11285W        W28809   4.419   0.773   3.209 -0.2963 -0.0758  0.0512
11286W        W28810  14.998   2.664  17.662  0.1679 -0.3455  0.1987
11287W        W28811  13.620   2.198   4.951  0.2545 -0.1800  0.4066
11288W        W28812   3.749   4.279  16.212  0.2605 -0.1708 -0.1472
11289W        W28813   1.212   0.398  12.930  0.1036  0.0612  0.2889
11290W        W28814  13.779   3.655  13.113 -0.1499 -0.1452  0.2812
11291W        W28815   2.278  16.932   2.275  0.0906  0.0756  0.0635
11292W        W28816  10.572   2.441   0.997  0.1100  0.0667  0.1633
11293W        W28817   9.454   3.677  11.882  0.0149  0.2318  0.0577
11294W        W28818  15.394  10.611  13.635 -0.0073 -0.0313  0.2450
11295W        W28819  11.082  13.627   1.057 -0.0637  0.2321 -0.1497
11296W        W28820   9.992  14.973   6.301 -0.3482  0.2052 -0.0714
11297W        W28821  11.204   7.540  13.501 -0.2947  0.3905  0.3571
11298W        W28822  13.622  14.517  13.219  0.0646 -0.0036  0.1437
11299W        W28823   9.276   8.504  14.438  0.0938  0.0545 -0.2631
11300W        W28824   7.684  15.364   2.073 -0.0565  0.3781  0.1559
11301W        W28825   2.431  10.817  16.737  0.0903  0.0486  0.0550
11302W        W28826  13.625  14.307   5.449  0.3119  0.2730 -0.0229
11303W        W28827   4.782   3.398  15.234 -0.0366  0.2187 -0.2377
11304W        W28828   9.444  16.940  13.452 -0.1287 -0.0286 -0.0923
11305W        W28829   6.708  11.798   1.282 -0.0614  0.0048 -0.0893
11306W        W28830  16.324   5.800  12.587 -0.2247  0.3138 -0.1060
11307W        W28831  13.876  13.844  15.534 -0.1732 -0.1446  0.1260
11308W        W28832   4.120   1.959  17.075  0.1816  0.0246 -0.1059
11309W        W28833  16.145   0.191  15.154 -0.0130 -0.1812 -0.1543
11310W        W28834   5.054   4.684  14.632 -0.0149  0.1780  0.0821
11311W        W28835   9.082   8.500  12.221  0.1713 -0.3803  0.1154
11312W        W28836  12.578   1.358  13.820  0.2180 -0.0430 -0.2595
11313W        W28837  13.223   3.544  17.347 -0.1168 -0.2039  0.0758
11314W        W28838  13.172   9.560  16.209 -0.2321 -0.4569 -0.1406
11315W        W28839   5.477  10.059   2.167 -0.3329  0.2225 -0.1439
11316W        W28840  17.126  13.610   3.551  0.2647 -0.1640  0.1499
11317W        W28841   5.539   3.264   3.146 -0.0586 -0.3903  0.0812
11318W        W28842   2.499   9.022   0.124  0.1430 -0.1808 -0.0797
11319W        W28843  11.936   0.177   5.017  0.2196 -0.2799  0.1996
11320W        W28844  10.755   5.414  12.773  0.1198  0.0196 -0.4035
11321W        W28845   7.089  13.093  17.570  0.0871 -0.1550  0.0308
11322W        W28846  14.481   7.878   4.683 -0.1115  0.1983  0.0515
11323W        W28847   3.525  13.399   4.258 -0.1807 -0.0353 -0.2947
11324W        W28848   0.495  12.845   5.964 -0.0725  0.2578 -0.0010
11325W        W28849   1.589   6.213  15.957  0.3212 -0.2110  0.0347
11326W        W28850  11.140  15.208   1.553  0.0580  0.2545  0.1684
11327W        W28851  11.727   2.022   2.866 -0.2307  0.1324 -0.0074
11328W        W28852  14.282   8.909   3.085  0.1411  0.1041  0.3837
11329W        W28853   6.138   2.045   2.738 -0.1512  0.1566 -0.2265
11330W        W28854  12.395  13.682  12.927 -0.0587 -0.3336 -0.0627
11331W        W28855  12.167   3.430  16.030  0.0386  0.3019  0.4740
11332W        W28856   0.470  13.192  13.203  0.1083 -0.1633  0.0476
11333W        W28857   8.581  12.112   4.541  0.0168 -0.1031 -0.0911
11334W        W28858   3.633  13.146  15.524 -0.2127  0.1512 -0.2489
11335W        W28859   0.835   8.118  16.705 -0.1294  0.1721 -0.1466
11336W        W28860   4.921  13.393  12.997  0.2632  0.1837 -0.1547
11337W        W28861   0.531  12.405   1.063  0.0250  0.0476  0.0759
11338W        W28862   7.679   8.795   1.921  0.0341 -0.3837  0.0698
11339W        W28863   4.239   5.956  16.877  0.0161  0.1030 -0.1377
11340W        W28864   7.475  14.073   3.720  0.2560  0.1654  0.1910
11341W        W28865   5.200   6.148  15.015 -0.1245  0.0491  0.3657
11342W        W28866  15.520  11.926   4.842 -0.1588  0.0085  0.5696
11343W        W28867  13.385  13.954   2.054 -0.0980  0.0738 -0.0519
11344W        W28868  11.425   2.740  16.338  0.1171  0.0584 -0.0463
11345W        W28869   3.889  15.435   1.842  0.1037  0.1409 -0.0936
11346W        W28870   6.477   1.571  12.493 -0.1366 -0.3007 -0.1049
11347W        W28871   9.477   6.373   0.986 -0.0222  0.0598 -0.0901
11348W        W28872  12.644   9.921   3.686  0.1861  0.1488  0.0731
11349W        W28873  11.674   3.373  15.233 -0.2973 -0.2297 -0.0424
11350W        W28874   4.296   0.221   0.849  0.1597  0.2658  0.1765
11351W        W28875   9.088  12.525   0.184 -0.4155  0.2482  0.5234
11352W        W28876  16.866  13.857   0.606  0.0441 -0.2389 -0.3299
11353W        W28877  15.798   3.920  17.457  0.0824 -0.0809  0.1026
11354W        W28878   7.900  11.135  12.108  0.0058  0.2636 -0.0985
11355W        W28879  11.332   1.300   0.481  0.0171  0.0001  0.1004
11356W        W28880   5.494  12.557  17.546 -0.2169  0.0054 -0.0007
11357W        W28881   3.473   8.644  16.855  0.1915 -0.0629 -0.2429
11358W        W28882   0.921  10.838  13.319  0.3281  0.1382  0.1320
11359W        W28883   4.507  17.077   4.179  0.1061 -0.0554 -0.2263
11360W        W28884   9.649   7.748  17.694 -0.1655  0.1229  0.0718
11361W        W28885   6.746   2.926   2.333 -0.0888 -0.0967 -0.1664
11362W        W28886   1.075   2.072   0.945 -0.3202  0.1829  0.0242
11363W        W28887   1.489   5.572   5.512  0.1858  0.1478  0.1224
11364W        W28888  13.137  14.667   3.252  0.0534  0.0466 -0.0562
11365W        W28889   5.525  10.492   0.404  0.1373  0.0192  0.1188
11366W        W28890   9.199  10.618   0.997 -0.2630  0.0581 -0.1590
11367W        W28891   0.131  12.836   2.704  0.1466 -0.0450 -0.2269
11368W        W28892   0.266   4.509   1.423  0.0731 -0.3506 -0.0001
11369W        W28893  15.642  15.564   3.653  0.3398  0.0612 -0.1484
11370W        W28894   7.581  15.387  16.730 -0.1748  0.1731 -0.1613
11371W        W28895   6.164   4.081   4.015 -0.0065  0.2951  0.3088
11372W        W28896  14.616   3.931  15.523 -0.0529 -0.0487  0.0101
11373W        W28897  11.471  16.418  14.914  0.1824  0.0308  0.0496
11374W        W28898  10.953   6.448  17.391 -0.0849  0.3614 -0.0933
11375W        W28899   0.966   5.383  13.799  0.1990  0.0646 -0.3864
11376W        W28900   5.669  10.152  12.404  0.0486 -0.3047 -0.0065
11377W        W28901  10.834  13.149   0.410  0.4764 -0.1834 -0.2858
11378W        W28902  17.008   2.562  12.744 -0.2235 -0.1268 -0.0104
11379W        W28903   5.610   6.810  13.864  0.0639 -0.2287  0.1096
11380W        W28904  14.602   1.178   5.829 -0.2322 -0.0795  0.3782
11381W        W28905   2.205   1.034  17.555  0.2244  0.2652 -0.0797
11382W        W28906   5.481   0.909  17.596 -0.0140 -0.1395  0.0529
11383W        W28907  10.929  11.322   2.737  0.1723  0.3716 -0.1503
11384W        W28908  10.520   4.034   4.708  0.1378  0.3315 -0.4031
11385W        W28909  10.648   2.904  16.930  0.1042  0.0505  0.2810
11386W        W28910   7.632   3.355  14.970 -0.0756 -0.2915  0.1954
11387W        W28911  12.984   6.932  14.457 -0.1873  0.0706  0.0146
11388W        W28912   5.916  10.908  14.197  0.0645 -0.1134  0.1283
11389W        W28913   5.622   6.475  12.219 -0.0634 -0.0814  0.0424
11390W        W28914   0.526  14.839   0.952 -0.1489 -0.0684  0.1333
11391W        W28915   4.041  15.363  13.276  0.1280 -0.2322 -0.0529
11392W        W28916  11.793   1.501   3.005  0.6775 -0.2400 -0.4796
11393W        W28917   3.127  14.491   3.476  0.4514  0.0654 -0.1166
11394W        W28918   9.372   8.092   4.235  0.0705 -0.4408 -0.0582
11395W        W28919  15.082   4.458  16.318 -0.0066 -0.2419 -0.1236
11396W        W28920  14.154   9.883  14.257  0.1427  0.1492 -0.1667
11397W        W28921   0.974   0.934  13.472  0.1304 -0.2733 -0.1557
11398W        W28922  12.171   9.056   1.414  0.0354  0.2025  0.1055
11399W        W28923   8.365  16.223   5.109  0.2799  0.0183  0.0345
11400W        W28924   7.815  10.493  16.587  0.1732  0.0807 -0.1834
11401W        W28925  14.678   9.226   3.127 -0.0090 -0.0369  0.2717
11402W        W28926   9.898   8.907   3.934 -0.0631  0.1022 -0.1699
11403W        W28927   6.226  16.756   3.771 -0.0669  0.0281 -0.2896
11404W        W28928  10.559  13.139  17.350  0.1115  0.1746 -0.1544
11405W        W28929   0.046  10.393   3.412  0.0197 -0.1667  0.0317
11406W        W28930  14.699   7.780   1.179  0.2233 -0.2972 -0.1173
11407W        W28931   2.660   0.657  17.283 -0.0767 -0.3944  0.2268
11408W        W28932  13.038   0.695  16.097 -0.0192  0.0229 -0.0962
11409W        W28933   2.404  15.105   1.009 -0.0375 -0.1202 -0.0939
11410W        W28934   6.825  17.070   5.712  0.4627 -0.1762 -0.2720
11411W        W28935  13.492  13.612   4.751  0.0579  0.2774 -0.1760
11412W        W28936  14.572  14.126   1.930 -0.2552 -0.0464 -0.1293
11413W        W28937   8.427  12.005  17.680  0.0742 -0.0947  0.2727
11414W        W28938  14.345   0.350  15.756  0.2044 -0.0797 -0.0456
11415W        W28939  14.024   9.575  16.380  0.0618  0.0757 -0.3349
11416W        W28940  14.718   8.766  16.459  0.0286 -0.2372 -0.2160
11417W        W28941  16.943  13.116  15.633  0.1782  0.5167 -0.4114
11418W        W28942   6.837   6.191   4.568 -0.1046  0.2086 -0.3333
11419W        W28943   7.055  10.604  17.070 -0.0523 -0.1944  0.0392
11420W        W28944   9.123   0.403   0.915 -0.1313  0.3844  0.1192
11421W        W28945  10.176  11.177  12.772  0.0183 -0.0058  0.1611
11422W        W28946   9.337  13.865   1.432 -0.0293  0.1675  0.1322
11423W        W28947   3.003  15.383   2.994  0.2101 -0.0993  0.1999
11424W        W28948   1.685  10.114   5.595 -0.1113 -0.1585 -0.2627
11425W        W28949  11.057   6.762   4.113 -0.2669  0.3984 -0.0387
11426W        W28950  13.351   6.506   0.409 -0.1702 -0.1688 -0.0542
11427W        W28951  14.063  10.203  13.766  0.2330 -0.1316 -0.1215
11428W        W28952  12.089  11.699  12.849 -0.3383 -0.0764  0.2901
11429W        W28953   3.733   2.375   3.304  0.1773 -0.1250  0.1362
11430W        W28954  16.978   2.661   3.224  0.3338  0.4060 -0.0501
11431W        W28955  13.705   2.840   1.597 -0.2229  0.3064 -0.1287
11432W        W28956  13.902   2.697   3.734 -0.2901 -0.2354 -0.2388
11433W        W28957   6.215   0.451   3.564  0.0440 -0.1908  0.3992
11434W        W28958  12.354  16.640   4.388 -0.0251 -0.3349 -0.1312
11435W        W28959  14.352  11.179   4.275  0.0957 -0.0167 -0.0733
11436W        W28960  14.908  13.061   3.801 -0.2268  0.1480 -0.2227
11437W        W28961  15.973   5.470   5.232 -0.1751 -0.1137  0.0633
11438W        W28962   8.261   2.139  13.609 -0.1552  0.0772 -0.0452
11439W        W28963   5.297   8.169  13.217  0.0116 -0.1698 -0.0682
11440W        W28964  12.921   7.171   2.055  0.2066 -0.1738  0.1442
11441W        W28965   7.183  14.700   4.861  0.0935  0.2248  0.2266
11442W        W28966   2.093   4.137   5.917  0.1208 -0.0472 -0.0103
11443W        W28967   3.589   3.294  15.656  0.0624  0.1740  0.0868
11444W        W28968   7.330  10.047  14.993  0.3701  0.0708  0.0353
11445W        W28969   5.448   9.725  15.774  0.0511  0.0292 -0.0589
11446W        W28970   2.096  17.009   4.238  0.2210 -0.3275  0.0257
11447W        W28971   3.441  14.633  12.843 -0.4600  0.1243  0.1555
11448W        W28972   5.178   2.828   1.591 -0.0636 -0.2233  0.3340
11449W        W28973  14.773   7.794  13.149  0.4528  0.4181 -0.3408
11450W        W28974  13.306  13.474  14.059 -0.0477 -0.0373  0.2538
11451W        W28975  10.633   8.515   3.368 -0.2614 -0.0183  0.2381
11452W        W28976   0.646   1.803   5.330  0.1036 -0.0120  0.0439
11453W        W28977   9.403   9.256  12.607 -0.1280 -0.0231 -0.1069
11454W        W28978   2.071   1.363   0.304 -0.1011 -0.0936  0.1163
11455W        W28979  10.403  13.604  13.760  0.0414 -0.4186 -0.2269
11456W        W28980  11.779   1.824  15.441 -0.2386 -0.2102 -0.1200
11457W        W28981   4.991  16.471   1.090  0.0940  0.0304  0.0257
11458W        W28982  15.340   6.094  13.761  0.2255  0.0455  0.0159
11459W        W28983   6.214  11.160   2.666 -0.0116  0.2515  0.0525
11460W        W28984   2.949  15.215   1.037 -0.3141  0.0970 -0.0879
11461W        W28985   2.426  11.924  15.718  0.1326 -0.0175  0.3055
11462W        W28986  12.747   1.642   5.352  0.4464 -0.0087 -0.1865
11463W        W28987  10.181   1.363   3.146 -0.1687 -0.1088 -0.1491
11464W        W28988  15.454   7.170   0.963  0.2084 -0.0705  0.0299
11465W        W28989   7.011   7.289  12.361  0.3367  0.2457  0.0516
11466W        W28990   4.773   9.196  17.030  0.0141 -0.0940 -0.0849
11467W        W28991   1.109  10.667  17.017  0.0783  0.0232  0.1780
11468W        W28992  16.015  13.834  13.593  0.3316  0.0118 -0.0332
11469W        W28993   9.675   2.404   0.626 -0.1346 -0.0749 -0.1903
11470W        W28994  12.631   1.498   4.545 -0.0643 -0.1762 -0.0680
11471W        W28995  16.580   9.895  16.735 -0.0885  0.2565 -0.2945
11472W        W28996  15.444  14.767  14.700  0.3078  0.2758  0.1644
11473W        W28997   3.595   9.093   2.983 -0.4510  0.1269 -0.1886
11474W        W28998   4.743   8.207   5.557 -0.1550 -0.3085  0.2110
11475W        W28999   4.851   3.529   4.709  0.0657  0.3323 -0.2680
11476W        W29000  10.392  16.749  14.886  0.0871 -0.0632  0.0441
11477W        W29001   8.066  16.913  17.456  0.0941 -0.1160  0.0492
11478W        W29002   0.222   9.609   1.041  0.2213 -0.0497  0.0861
11479W        W29003   6.415   9.417  16.882 -0.0347 -0.0811 -0.3887
11480W        W29004   4.407   0.023  13.375 -0.2599  0.1632 -0.0992
11481W        W29005   0.078  14.198   0.480 -0.0531  0.0350  0.1930
11482W        W29006   9.911   2.505   3.844  0.0717 -0.2096 -0.0163
11483W        W29007   2.639   6.004  12.289 -0.1957 -0.1369 -0.0988
11484W        W29008  10.940  16.908   1.623  0.0020  0.1898 -0.1429
11485W        W29009  16.592   5.758   4.577 -0.0821 -0.1589  0.0082
11486W        W29010  15.963   8.180  14.117 -0.3051 -0.0793  0.3932
11487W        W29011   7.255  10.637  13.749  0.1852 -0.0609 -0.0476
11488W        W29012  11.392   1.585   4.972  0.2882 -0.1354 -0.0138
11489W        W29013   3.401   1.214   4.103  0.0678  0.1655 -0.1701
11490W        W29014  16.676   4.920  14.446 -0.1226  0.3284  0.0219
11491W        W29015   7.302  13.950   4.689  0.2629  0.0478  0.0184
11492W        W29016   7.696  16.163  13.195  0.0159 -0.0834  0.4340
11493W        W29017   9.870  15.162   2.071 -0.1440 -0.0454  0.1776
11494W        W29018   8.364   4.211   5.132  0.0296  0.2168 -0.0700
11495W        W29019  12.684   4.410  14.430  0.0791 -0.2704  0.0627
11496W        W29020   1.566   4.893  14.610 -0.1023  0.0608 -0.3695
11497W        W29021  11.382   5.870   4.075 -0.0650 -0.1989 -0.2760
11498W        W29022   1.064   5.919  12.174 -0.0830 -0.2202 -0.0484
11499W        W29023  10.627   2.213   4.400  0.2783 -0.2224 -0.0904
11500W        W29024   5.214   1.065   4.319 -0.1857  0.0784 -0.1401
11501W        W29025   5.055  13.444  13.519 -0.0472  0.2596 -0.0452
11502W        W29026   1.794  15.018  16.757 -0.1823  0.0446  0.0054
11503W        W29027   1.443   3.835  13.755 -0.2756  0.0752  0.5311
11504W        W29028   5.905   7.916  13.973  0.0459  0.0613  0.0864
11505W        W29029  12.169  12.488  12.087  0.0868 -0.0630 -0.0863
11506W        W29030  10.413   9.084   0.365 -0.1813  0.5438  0.2734
11507W        W29031   0.694   5.444   4.745 -0.0377  0.1481  0.0549
11508W        W29032  13.699  13.302   1.092  0.4699  0.1902 -0.1821
11509W        W29033   2.864  15.268   5.399 -0.1049  0.1361 -0.1613
11510W        W29034   1.321   2.187  12.970 -0.5071 -0.1482  0.1221
11511W        W29035  12.753   7.886   1.561 -0.3669  0.1018 -0.2701
11512W        W29036   6.950   5.227   5.576  0.2192  0.0804  0.0152
11513W        W29037   5.637  11.390   1.852  0.3859 -0.0079 -0.0138
11514W        W29038   9.526   8.769  12.435  0.1575  0.3374 -0.1766
11515W        W29039   6.698   6.044   3.625 -0.1662 -0.1877 -0.2582
11516W        W29040   6.709   6.097   2.560  0.3169 -0.2210 -0.3816
11517W        W29041   5.791   9.792   4.880 -0.0539  0.3109 -0.1822
11518W        W29042  15.319   9.839   5.189  0.1068  0.0769  0.1263
11519W        W29043  10.435   6.693  12.848 -0.0343 -0.1338 -0.0434
11520W        W29044  11.354  11.649  16.912 -0.0671  0.1685  0.0126
11521W        W29045   0.628   1.521  13.411  0.0762  0.0769  0.1087
11522W        W29046  15.909  11.303   3.409 -0.1802  0.3543 -0.1905
11523W        W29047  10.517   7.208  12.171 -0.4986 -0.1846 -0.1091
11524W        W29048   3.731   1.598   4.678  0.0900  0.0987 -0.0802
11525W        W29049  10.362  12.011  16.821  0.1595  0.1763 -0.0136
11526W        W29050   9.045  12.411  16.782  0.1184 -0.0281 -0.0510
11527W        W29051   2.356   4.789   1.772 -0.1716  0.2790  0.1584
11528W        W29052   4.958  10.296  13.066  0.0969  0.1680  0.3271
11529W        W29053   5.399  17.111  15.636  0.2787 -0.1019  0.1317
11530W        W29054  14.600   2.008   4.402  0.1031 -0.3107  0.2096
11531W        W29055   3.291  11.453  17.220  0.0087 -0.1185 -0.0736
11532W        W29056   5.756  15.454   4.303 -0.0002  0.1883  0.0179
11533W        W29057   5.115   0.865  14.144 -0.0468 -0.2401 -0.1706
11534W        W29058  10.206  15.136   5.015  0.1944 -0.1618 -0.0199
11535W        W29059  14.009  12.879  14.484  0.3872 -0.1704 -0.1296
11536W        W29060   1.557  12.550   3.506 -0.1349 -0.0933  0.1546
11537W        W29061  14.698   2.818   4.912  0.0096 -0.1076  0.1725
11538W        W29062  15.300  15.546   1.446 -0.0346  0.1049 -0.0041
11539W        W29063   1.106   0.587   2.687  0.0039  0.2747  0.0556
11540W        W29064  10.119  10.863  16.282 -0.1138  0.0417 -0.0521
11541W        W29065   5.549  12.735   3.303  0.1680  0.1065 -0.0789
11542W        W29066  11.468   6.262   0.382  0.0120  0.1916 -0.3131
11543W        W29067   2.757  14.005   1.854  0.0879 -0.3101  0.0501
11544W        W29068  15.713   9.827  17.194 -0.0529  0.1416 -0.1585
11545W        W29069  11.619   2.765  13.831  0.1945  0.3420 -0.1725
11546W        W29070   3.704   8.208  15.281 -0.1125 -0.1938  0.1122
11547W        W29071   7.550   0.200  15.639  0.1001  0.2265  0.1151
11548W        W29072   4.048   0.950  13.314  0.0514  0.0377  0.0666
11549W        W29073  14.297  10.083   4.546 -0.0245 -0.3180 -0.0402
11550W        W29074   8.450   9.617   4.277  0.1183 -0.1709 -0.2187
11551W        W29075   2.742  11.900   2.904 -0.2312 -0.0983 -0.0066
11552W        W29076  14.860  11.546  15.354  0.1237  0.2708 -0.3002
11553W        W29077   5.682   4.992   0.531  0.1623  0.1348  0.0792
11554W        W29078   6.507  11.452  15.049  0.0264  0.3122 -0.2223
11555W        W29079   4.221   1.474   0.163 -0.2124 -0.3778  0.3005
11556W        W29080   4.272   8.345   1.462 -0.1356  0.1187  0.1902
11557W        W29081   7.791  14.237  17.424 -0.1813  0.1319 -0.0151
11558W        W29082   6.227  11.259  16.285  0.1166 -0.0631 -0.1231
11559W        W29083   7.562   4.478  12.323  0.2931 -0.0078  0.1797
11560W        W29084  15.670   7.885  15.969  0.0502 -0.0328  0.0702
11561W        W29085   6.605   1.210  15.210  0.0707 -0.2229  0.3232
11562W        W29086   3.981   5.893   0.383  0.4154 -0.1334  0.1186
11563W        W29087  10.728   8.526  12.605  0.0549  0.2426 -0.0366
11564W        W29088   0.997   3.895  15.660  0.1611 -0.2080 -0.1584
11565W        W29089   8.946   5.972  17.151 -0.1477  0.1726  0.2368
11566W        W29090  16.256  14.637  17.408  0.0502  0.0771  0.0887
11567W        W29091   1.307  10.941  17.384 -0.1125  0.0663 -0.0512
11568W        W29092  10.167   0.590   3.054 -0.1484 -0.0755  0.0205
11569W        W29093   0.630   7.745  13.915  0.2554 -0.4238  0.0024
11570W        W29094   8.844   3.387  13.842 -0.1056  0.2697 -0.0680
11571W        W29095   5.891  15.963   1.801  0.1172  0.1860 -0.3449
11572W        W29096  13.898   8.641   4.784  0.0694  0.1493 -0.1288
11573W        W29097   7.442   9.215  12.864  0.1244 -0.1098  0.1898
11574W        W29098  15.168   3.415  13.333 -0.2837  0.0143  0.0228
11575W        W29099   1.517   7.486   3.105 -0.0219  0.2057 -0.0825
11576W        W29100  15.331  14.228   2.724 -0.0940  0.3334  0.1131
11577W        W29101   6.518   8.379  13.272 -0.0730  0.0887 -0.3135
11578W        W29102  14.483   5.486   2.471 -0.2166  0.0718 -0.1236
11579W        W29103  10.735   1.136  17.453  0.2551 -0.0348 -0.0291
11580W        W29104   4.305   2.423  17.097 -0.0620 -0.1870 -0.1291
11581W        W29105   7.095   1.862  14.168  0.0466  0.0542  0.0212
11582W        W29106  15.737   2.308   3.955 -0.0135  0.0119 -0.1132
11583W        W29107  12.601   7.593  12.331  0.2120  0.3124  0.1388
11584W        W29108   4.068   8.672  17.511  0.2549  0.0585 -0.2071
11585W        W29109   4.297   5.530   1.698 -0.1047  0.3496  0.2047
11586W        W29110  10.832   8.124  14.660  0.0935 -0.0187  0.0662
11587W        W29111   1.486   9.693  14.452 -0.4877  0.0146 -0.1070
11588W        W29112  10.219   7.619  15.806 -0.1867  0.1296 -0.0844
11589W        W29113   2.481   8.261  16.654 -0.0532 -0.0530  0.0981
11590W        W29114   7.275   3.982   2.916 -0.1530 -0.0806  0.0191
11591W        W29115   3.810  10.480   3.610 -0.0501 -0.0851 -0.0797
11592W        W29116   7.459   6.817   2.787 -0.0295 -0.0197  0.0860
11593W        W29117  17.077  13.870  13.796 -0.2837 -0.0388  0.2177
11594W        W29118   6.513  11.418  12.314 -0.2756 -0.2056  0.3345
11595W        W29119   7.143   4.253   1.884  0.0770  0.0950  0.0208
11596W        W29120  12.079  11.518  13.746 -0.1492  0.0529 -0.0739
11597W        W29121   7.022   4.372   2.676 -0.0275 -0.1707 -0.2800
11598W        W29122  15.141   1.541  16.421  0.2329  0.0656 -0.1029
11599W        W29123  11.205  13.062   1.192 -0.0012  0.0290  0.0281
11600W        W29124  11.063  11.816  13.275  0.0644  0.2930  0.1534
11601W        W29125   5.242   9.623   2.354 -0.3835 -0.1038  0.2490
11602W        W29126   4.519   0.444  16.886 -0.0792  0.2221  0.0634
11603W        W29127   4.138   3.735   3.468  0.1990 -0.2286  0.0785
11604W        W29128   6.751   6.356  12.332  0.2451  0.2387 -0.3770
11605W        W29129  10.658   0.049  15.627 -0.1990 -0.2695  0.1822
11606W        W29130   7.898   0.890   1.087 -0.0980  0.0887  0.2175
11607W        W29131   2.673  14.689   3.496  0.2178  0.3009 -0.0316
11608W        W29132   6.032  11.994   4.358 -0.0012 -0.0300 -0.1336
11609W        W29133  16.458   9.620  16.325  0.1414 -0.0092  0.1254
11610W        W29134  11.702   3.137  13.460  0.2396 -0.1786 -0.3064
11611W        W29135   8.235   4.358   1.938 -0.1526 -0.1168  0.0299
11612W        W29136  14.735   4.866   1.164 -0.3949  0.0223 -0.0068
11613W        W29137   3.497   1.528   0.896  0.0632  0.1054 -0.1279
11614W        W29138   2.685   3.044   3.343  0.1430  0.0009 -0.0416
11615W        W29139  10.222   2.507   4.783  0.0179  0.3194  0.3886
11616W        W29140   1.946   4.265   2.846  0.1787  0.0694 -0.2436
11617W        W29141   4.670   6.534   6.431  0.2319 -0.3929 -0.0249
11618W        W29142   8.081   8.079   2.209  0.0531  0.1215  0.1536
11619W        W29143   2.116  10.287   3.688 -0.1236 -0.2299 -0.0143
11620W        W29144   3.995   9.894  16.110  0.1741 -0.1547 -0.1961
11621W        W29145  16.314  16.302  13.899  0.0766 -0.1962  0.0361
11622W        W29146   9.690   7.457   3.650  0.0998  0.0205  0.0385
11623W        W29147   2.861  10.953  17.007  0.1931 -0.0284  0.0853
11624W        W29148   3.015   0.969   3.092 -0.0318  0.0447  0.2657
11625W        W29149   0.633  12.779   4.476  0.0280 -0.0857 -0.1295
11626W        W29150   1.483  12.548  14.515  0.0436 -0.3451 -0.2366
11627W        W29151  15.604  12.215  13.874 -0.2189 -0.3307 -0.0001
11628W        W29152   5.437  12.906   1.715 -0.0758  0.3025  0.0660
11629W        W29153   0.522  11.283  17.688  0.0055 -0.0738  0.0992
11630W        W29154   8.003   3.003  17.610  0.2130 -0.0027  0.2058
11631W        W29155  14.985   8.064   0.902  0.1266  0.1770 -0.0208
11632W        W29156  15.800   8.736  16.480 -0.1683  0.1448 -0.0714
11633W        W29157   2.013  10.877   4.549  0.0612 -0.0231  0.0718
11634W        W29158  12.769   3.941  15.117 -0.1260  0.0562  0.3219
11635W        W29159   8.723  10.330  12.173 -0.0165  0.1807  0.1335
11636W        W29160   3.542  14.551   0.155 -0.1546  0.2017  0.0941
11637W        W29161   7.573   1.032   4.654  0.1597 -0.1221 -0.0702
11638W        W29162   5.155  10.319   4.574  0.2034  0.2623 -0.0501
11639W        W29163   3.874  10.626  12.111  0.3295  0.0598  0.3376
11640W        W29164  11.030   1.546  16.358 -0.1206  0.1576 -0.1353
11641W        W29165   9.712   8.242   5.210  0.0152  0.1148  0.0773
11642W        W29166   1.640  13.158  13.451 -0.1063  0.1832 -0.1118
11643W        W29167   9.235  15.480   5.100  0.1805 -0.1856 -0.0035
11644W        W29168  10.882  15.553   1.221  0.0272 -0.2061 -0.2014
11645W        W29169   0.385   0.836  17.540 -0.1785 -0.0369  0.2393
11646W        W29170   8.282  13.526   2.799  0.0567  0.0586  0.0678
11647W        W29171   0.506   6.833   2.392  0.1389 -0.0921 -0.0082
11648W        W29172   2.884   7.651  14.129  0.0699  0.1962  0.1440
11649W        W29173   0.918   6.453  13.653  0.2513 -0.0484  0.0706
11650W        W29174   5.794  10.785  13.127 -0.3372  0.0571 -0.0910
11651W        W29175   3.762  12.085  17.718 -0.0362  0.1624 -0.0764
11652W        W29176   5.646  11.753  12.304  0.2219 -0.1905  0.0840
11653W        W29177   3.485   1.035   0.894 -0.3501  0.2028 -0.0866
11654W        W29178   7.910   4.877  16.151  0.0126 -0.0857 -0.2161
11655W        W29179  10.263  13.385   1.532  0.1042  0.1235  0.2317
11656W        W29180   7.521  14.978  14.784 -0.2263  0.0811 -0.1839
11657W        W29181  13.119   8.850  17.329 -0.2955  0.1039  0.2394
11658W        W29182  14.064   6.283   1.564  0.0152  0.0879 -0.3166
11659W        W29183   2.864  16.585   4.656 -0.2730 -0.0626  0.1043
11660W        W29184  11.681   2.236   4.239 -0.0933  0.0954  0.3013
11661W        W29185   2.988   2.070  17.264  0.0798 -0.1072  0.0807
11662W        W29186   2.912  11.995  15.413 -0.0786 -0.3242 -0.0899
11663W        W29187  12.255   3.573  13.994  0.2677  0.0982 -0.1446
11664W        W29188   8.831  10.924  14.709  0.0386  0.1860  0.2924
11665W        W29189   3.082   9.316   2.271 -0.0309  0.0816  0.1475
11666W        W29190  15.049  13.413  13.144 -0.0341 -0.2180 -0.1583
11667W        W29191   8.432   4.533  15.055 -0.2564  0.0762 -0.0647
11668W        W29192  11.063   7.755  12.641 -0.1492  0.1098 -0.0786
11669W        W29193   7.292   4.072  16.997  0.0878  0.2019  0.1046
11670W        W29194  14.184  17.027  14.429 -0.2026 -0.0988  0.0389
11671W        W29195   9.173   9.573  14.369  0.1894  0.3443 -0.1293
11672W        W29196  10.657   7.029  16.171  0.0572 -0.0388  0.1455
11673W        W29197  13.699   1.254  12.317 -0.2101 -0.3719 -0.2632
11674W        W29198  10.837   8.257   0.279  0.1146 -0.0669 -0.2510
11675W        W29199  15.912   1.835   3.335 -0.2288  0.0085  0.1509
11676W        W29200  15.498  15.040   0.885  0.1623 -0.2626  0.1379
11677W        W29201  15.756  13.078  15.743 -0.0281 -0.0534  0.1515
11678W        W29202   9.436  12.318   1.999 -0.0882 -0.0178 -0.0331
11679W        W29203  12.168  14.262  17.515  0.0579  0.3054  0.2193
11680W        W29204   1.501  11.263   3.665 -0.2405  0.0111  0.2251
11681W        W29205  17.156  16.116  14.505  0.0234  0.1445 -0.2585
11682W        W29206  10.896  14.776   0.489 -0.1958 -0.2732 -0.3527
11683W        W29207  15.920   2.566   0.025  0.0993  0.0621 -0.1293
11684W        W29208  16.454   5.041  17.348  0.0301 -0.1495 -0.0170
11685W        W29209  15.843  11.344   5.048  0.0044 -0.1200  0.1203
11686W        W29210  13.673   4.663   4.239 -0.0327  0.1331  0.2127
11687W        W29211   8.790  12.350  12.537  0.1162 -0.2322  0.1887
11688W        W29212   5.216  14.653   3.529 -0.1175 -0.2204 -0.0825
11689W        W29213  10.005   8.283   1.646  0.0189 -0.0044 -0.2021
11690W        W29214  10.483  14.289   2.897  0.0590 -0.0245  0.2191
11691W        W29215  12.182   4.685  13.024 -0.0925 -0.2749  0.0329
11692W        W29216  13.259   2.249   4.030 -0.0433  0.1363 -0.0011
11693W        W29217  10.114  16.667   5.137  0.2014  0.4756 -0.2092
11694W        W29218  11.647   6.554   2.623 -0.0212  0.0456 -0.0465
11695W        W29219   9.783  16.099   1.114  0.0807  0.0290  0.2949
11696W        W29220  15.907   3.883  15.097  0.1716 -0.3817  0.0555
11697W        W29221  10.305  11.026  15.400 -0.0601 -0.1361 -0.4507
11698W        W29222   5.065   1.239  17.544 -0.1162 -0.0053 -0.2019
11699W        W29223  11.977  13.121  15.170  0.0378  0.0870  0.1247
11700W        W29224   6.749  15.673  13.713  0.0085 -0.0630  0.1291
11701W        W29225   7.910   1.736   0.075  0.0926  0.3666  0.1742
11702W        W29226   5.840   0.552  13.560  0.0706 -0.0224  0.0496
11703W        W29227   2.777  14.629  15.573 -0.1284 -0.0630 -0.1130
11704W        W29228  13.114  11.870   3.458  0.0844 -0.1422 -0.0050
11705W        W29229   5.840   4.112  17.175  0.1291  0.4461  0.0998
11706W        W29230  12.824  16.943  11.346 -0.0392  0.0935  0.1446
11707W        W29231  10.619   7.536  17.590  0.3329  0.3117 -0.2087
11708W        W29232  14.195   7.083   3.492 -0.0406  0.0786 -0.0664
11709W        W29233  10.268  15.172  15.843  0.2929  0.1199 -0.0635
11710W        W29234  13.468  17.036  15.495  0.1468  0.1367  0.2834
11711W        W29235  15.520  16.357   4.120  0.1029  0.4224  0.0204
11712W        W29236  13.036   1.214  14.148 -0.1107 -0.2132  0.0591
11713W        W29237  14.272  13.105  15.802 -0.0570 -0.0028  0.0005
11714W        W29238   9.509  14.610   3.215 -0.3137  0.2811 -0.3483
11715W        W29239  16.187   3.631  11.390  0.1470  0.1586 -0.1305
11716W        W29240   5.418   1.529  14.153  0.2043 -0.0383  0.0867
11717W        W29241   6.268   5.440   4.349  0.0561  0.0165 -0.1027
11718W        W29242  11.817  14.504   3.897 -0.3883 -0.2845 -0.0832
11719W        W29243   6.137  12.907  17.598 -0.0296 -0.0387  0.0609
11720W        W29244   7.913   5.427  14.071  0.3460  0.2473  0.1154
11721W        W29245  11.594   5.104   5.504  0.1028  0.0288  0.0550
11722W        W29246   5.148   1.117   0.771  0.1692 -0.1782  0.0222
11723W        W29247   4.571  11.695   3.128  0.0954 -0.2965 -0.2498
11724W        W29248   0.762   8.706   1.895 -0.1434 -0.1892  0.1981
11725W        W29249  11.449   4.622  12.821  0.1681  0.0403 -0.3493
11726W        W29250  14.801   5.039  15.577  0.0876  0.0623 -0.6943
11727W        W29251   3.479   2.018  15.216 -0.0006  0.0026 -0.0438
11728W        W29252   2.275   1.362   2.367  0.2277  0.1050 -0.0445
11729W        W29253   2.606   5.585  14.469 -0.1556  0.0018 -0.1420
11730W        W29254   3.241  12.408  12.476 -0.0749 -0.1316 -0.0289
11731W        W29255   8.490  11.357  17.402 -0.3143 -0.0637  0.0020
11732W        W29256   9.434   5.304  12.158 -0.1588  0.1195  0.0793
11733W        W29257   7.738  13.162  12.739  0.2819 -0.0395 -0.1420
11734W        W29258  13.926  16.795  17.667  0.1796  0.0390 -0.2517
11735W        W29259  12.594  10.603   0.101 -0.2326  0.1096  0.1533
11736W        W29260   5.955  15.496   4.770 -0.1014 -0.1367 -0.0533
11737W        W29261   9.774   9.054   1.604  0.3765  0.1998  0.0601
11738W        W29262   8.019   4.129   4.191 -0.1319  0.0336 -0.1675
11739W        W29263   7.507  12.118  16.102 -0.0256 -0.0854  0.0415
11740W        W29264   2.382   7.397  16.656  0.1564  0.0424 -0.0564
11741W        W29265  14.753   9.783   3.346  0.1399 -0.0560 -0.1135
11742W        W29266   0.760  13.223  12.749 -0.0837  0.2206 -0.1782
11743W        W29267  14.802  14.223  14.482 -0.0904 -0.1495 -0.2190
11744W        W29268   1.289  11.527  14.412  0.0217  0.0876  0.1567
11745W        W29269   3.747   3.242   5.520  0.0284  0.0900 -0.0537
11746W        W29270  13.613   3.072  15.948  0.2097 -0.1843  0.0967
11747W        W29271  15.865  12.015  17.223  0.1190 -0.1618  0.0559
11748W        W29272   8.157  15.342   5.082  0.2328  0.1249 -0.0183
11749W        W29273  16.294  16.349   4.462  0.4363  0.2068  0.0197
11750W        W29274   8.244   2.252   3.267 -0.0113 -0.2748 -0.4306
11751W        W29275   1.315  11.000  12.938 -0.0564  0.1699 -0.1304
11752W        W29276   6.973  17.081  12.486  0.2332 -0.1750 -0.2325
11753W        W29277   3.631   0.241  11.555 -0.4682 -0.4158  0.1087
11754W        W29278  12.739   2.944   4.348  0.0824  0.1940 -0.1638
11755W        W29279   7.749  16.912   1.617 -0.0071  0.2426  0.2455
11756W        W29280   3.197   3.439   3.847 -0.3113 -0.1607 -0.0961
11757W        W29281  11.894  12.633  17.462  0.0708  0.0614 -0.0594
11758W        W29282  16.121  11.173   4.636 -0.0401  0.0622 -0.1384
11759W        W29283  15.067   5.540  12.902  0.1421 -0.2043 -0.2796
11760W        W29284  15.626   6.773  13.117  0.2845 -0.0310 -0.0252
11761W        W29285  11.933   0.126   2.457  0.4847 -0.0836 -0.1784
11762W        W29286  17.161   2.005  12.934  0.2821 -0.2110  0.1576
11763W        W29287   5.989  15.178   2.322  0.3816 -0.0941  0.1868
11764W        W29288  12.380   4.849   1.104 -0.1275  0.2208 -0.0355
11765W        W29289   5.935  15.926   1.255  0.1098 -0.2219  0.2057
11766W        W29290  11.722  13.018  15.897  0.0302 -0.0635 -0.0408
11767W        W29291   8.542   9.347  13.093 -0.1764  0.2402  0.0909
11768W        W29292   3.932  14.692  17.484 -0.0538 -0.3601 -0.0571
11769W        W29293   8.226  15.353  14.726  0.1821 -0.0016  0.1165
11770W        W29294   3.674   4.106   0.551  0.0993  0.2104 -0.1911
11771W        W29295   9.578  13.392  16.501  0.1192  0.0048 -0.2483
11772W        W29296   2.058  16.699  12.552  0.1219  0.1360  0.0618
11773W        W29297   7.124   9.387   5.391  0.1463 -0.1090  0.0192
11774W        W29298  16.241  16.088   3.129 -0.1029  0.0847  0.2169
11775W        W29299   2.482  16.987  11.662 -0.2901 -0.2772  0.1913
11776W        W29300   0.733   1.866  15.899  0.1358 -0.2172 -0.1264
11777W        W29301  11.127  16.433  16.503 -0.4996 -0.0549 -0.1422
11778W        W29302  14.653  15.670  13.731 -0.0877  0.1699  0.1296
11779W        W29303  15.134  13.003  14.659 -0.0712 -0.1224  0.5269
11780W        W29304   0.421  14.273  15.562  0.1525  0.1325  0.1886
11781W        W29305   8.092  13.702   1.921 -0.0541  0.0575 -0.2097
11782W        W29306  12.562   4.222   3.404  0.0373 -0.0948 -0.1756
11783W        W29307   5.865   1.941  13.020 -0.3028 -0.2901 -0.2172
11784W        W29308  15.057  14.617   2.967  0.0467 -0.2168 -0.0346
11785W        W29309   7.407   5.363   1.215  0.2435  0.0839 -0.3366
11786W        W29310  11.774  15.271  12.083  0.0707  0.2385  0.3571
11787W        W29311  14.306   4.967   1.459  0.0053  0.1405  0.0470
11788W        W29312   9.052  14.787   0.852 -0.1087 -0.1834 -0.0714
11789W        W29313   7.679  14.062   0.353  0.0365  0.1589 -0.3549
11790W        W29314  16.956   1.594  13.168 -0.1562 -0.2157 -0.2990
11791W        W29315   9.511   1.450  16.093 -0.0458  0.1123  0.0151
11792W        W29316   3.771   5.175   3.165 -0.0825  0.2729  0.0290
11793W        W29317   3.469   4.271   0.156 -0.0942  0.0400 -0.0264
11794W        W29318  13.787   0.937   3.422 -0.1402 -0.0518 -0.0214
11795W        W29319  13.327   9.130  14.836  0.0947  0.0080  0.0045
11796W        W29320   1.575   2.689   5.102 -0.1367 -0.1247  0.1821
11797W        W29321   5.257   3.118  13.363 -0.1401 -0.1094  0.1519
11798W        W29322   8.901   9.184  13.469  0.0169  0.1178 -0.1941
11799W        W29323   2.581   5.407  15.343  0.3625  0.3459  0.1037
11800W        W29324   8.957  10.727   2.981 -0.2548 -0.0788  0.4352
11801W        W29325  13.854   3.756   5.402 -0.0344 -0.0950  0.0050
11802W        W29326   7.828   9.379   4.981 -0.0750  0.1520 -0.0111
11803W        W29327   8.642  15.325   5.290 -0.0877 -0.0623  0.0613
11804W        W29328  13.946   5.157   4.109  0.0046  0.1702 -0.0736
11805W        W29329  14.824  12.919   4.250  0.0091 -0.1071  0.3564
11806W        W29330  10.961   2.536  16.759 -0.0774  0.1611  0.0774
11807W        W29331  13.676   1.189   3.038  0.1465 -0.3399 -0.0869
11808W        W29332  11.782  13.980   2.482  0.0550 -0.0280 -0.0925
11809W        W29333   2.755   5.947  12.902 -0.0612 -0.1212 -0.1000
11810W        W29334   7.397   0.918  14.281  0.0877  0.1161 -0.1169
11811W        W29335   7.211   0.465  15.871  0.0999 -0.3363  0.1801
11812W        W29336   9.244   6.299   2.919 -0.2617  0.0893 -0.1956
11813W        W29337  15.114   7.268   3.201  0.2102 -0.0083 -0.0746
11814W        W29338   3.272   1.609  14.363  0.0871 -0.0302 -0.1880
11815W        W29339  11.072   1.687   5.328  0.0686 -0.2015  0.0697
11816W        W29340  12.276   8.691   4.210 -0.3090  0.0075 -0.0210
11817W        W29341  10.654   5.784   4.083 -0.0177 -0.0730  0.0453
11818W        W29342   3.501   8.597   2.976 -0.2383 -0.0108 -0.1160
11819W        W29343   0.544  17.085  16.061 -0.0424  0.3785 -0.0708
11820W        W29344  10.187  10.388  16.483  0.0905  0.0403 -0.0417
11821W        W29345  14.102   7.131   4.239  0.1381  0.0835 -0.0467
11822W        W29346   6.887   3.036  14.929  0.2759  0.0185  0.1233
11823W        W29347   0.054   8.585   2.353 -0.1408 -0.1054 -0.1644
11824W        W29348   4.159   1.912   1.642  0.2666  0.0199  0.3057
11825W        W29349   9.373   4.439  17.166  0.0594  0.1083  0.1863
11826W        W29350   1.068   5.409  17.328  0.0506 -0.1940 -0.0653
11827W        W29351  14.848   1.383  13.294 -0.1567 -0.0196  0.2087
11828W        W29352  14.355   3.414  14.488 -0.2700  0.1682 -0.3761
11829W        W29353  16.689  15.130  13.803 -0.2045  0.0224 -0.1021
11830W        W29354  15.617  12.385  16.342  0.2559 -0.1216  0.6340
11831W        W29355   5.012   9.889   5.326  0.2854 -0.1182 -0.1549
11832W        W29356  11.230  15.144  17.279  0.1860 -0.0629  0.1540
11833W        W29357  12.716   6.147  13.859  0.0358 -0.1311  0.1967
11834W        W29358   6.636   6.944   1.529  0.0770 -0.0528 -0.0961
11835W        W29359  11.920   9.515  17.604  0.0279  0.0829  0.3953
11836W        W29360   8.154  12.746   1.437  0.1086 -0.3120 -0.0950
11837W        W29361  15.779  14.581   5.241 -0.2243 -0.2265  0.0407
11838W        W29362  10.186   2.960   2.235 -0.1181 -0.1535  0.1617
11839W        W29363   1.146   6.402  16.713 -0.1768 -0.1314 -0.0175
11840W        W29364   2.649   4.125   5.829  0.1895  0.0725  0.1301
11841W        W29365  10.522   0.561   4.771  0.3115  0.0609 -0.1569
11842W        W29366  12.775  17.127   1.768 -0.1907 -0.3379 -0.0720
11843W        W29367  11.740   2.349   1.501 -0.1302  0.0431  0.2488
11844W        W29368   7.283   1.174   0.411 -0.0928 -0.1483 -0.0431
11845W        W29369  10.506   4.206   1.824 -0.2757  0.1008 -0.0410
11846W        W29370   8.817   8.052   2.616  0.0820 -0.1105  0.3211
11847W        W29371   7.098  10.221  14.153 -0.1741  0.0876  0.2819
11848W        W29372  13.732   3.323  16.437  0.1843  0.0977  0.2019
11849W        W29373  11.423  15.959  11.988  0.1523  0.1596 -0.2859
11850W        W29374  13.263  13.370   5.746 -0.2028 -0.1112 -0.2918
11851W        W29375  13.628   4.039  17.529  0.2298  0.0144 -0.2835
11852W        W29376  16.089  10.314  17.291 -0.2364 -0.2019  0.0935
11853W        W29377   5.981   2.660  16.416 -0.1416  0.2001 -0.1127
11854W        W29378   4.325  15.275   5.839 -0.1535  0.2725 -0.2246
11855W        W29379  12.422  15.751  16.996 -0.0367 -0.3847 -0.1099
11856W        W29380   7.291   7.833  16.686  0.3789 -0.1864  0.1740
11857W        W29381  10.028  15.272   4.550 -0.0520 -0.0065 -0.1041
11858W        W29382   3.547   9.417   3.467  0.0356 -0.0274  0.2277
11859W        W29383  11.777  16.486   2.084  0.2518  0.0314  0.3251
11860W        W29384   6.819  14.619   2.673 -0.0736 -0.1299 -0.1858
11861W        W29385   5.110   5.953   2.473  0.0423  0.0930 -0.1455
11862W        W29386  15.196   2.715   2.447 -0.1584  0.2814 -0.0477
11863W        W29387   7.679   4.839   3.473  0.1400  0.0288 -0.3005
11864W        W29388  12.872  16.071   0.820  0.0085  0.0036  0.0434
11865W        W29389   5.864  13.863   0.176  0.2476  0.2856 -0.3589
11866W        W29390   7.371   2.551   4.463 -0.1891  0.1102  0.2457
11867W        W29391  12.586   0.281   3.343 -0.1030  0.1309 -0.2289
11868W        W29392  10.637  13.800  13.012 -0.1129  0.1512 -0.1337
11869W        W29393   1.035  10.983   1.063 -0.2276  0.4511 -0.0753
11870W        W29394   1.552   5.243  17.322  0.2848 -0.1717  0.0225
11871W        W29395   3.568  16.996   3.399 -0.3789 -0.4637  0.0091
11872W        W29396  13.680   5.835  15.010  0.0481 -0.0804  0.0316
11873W        W29397  16.327   1.316  16.908 -0.0421 -0.0765  0.1898
11874W        W29398   7.370  13.722   4.082 -0.2010 -0.1208 -0.1593
11875W        W29399   0.117   9.265   3.047 -0.0008 -0.1206 -0.3975
11876W        W29400  12.996  10.796   0.285  0.0503 -0.3185  0.1351
11877W        W29401   5.428  16.405  14.113 -0.1963 -0.2176 -0.2017
11878W        W29402   5.181  12.093   4.287 -0.2427  0.2810  0.0004
11879W        W29403   7.040   5.787  15.906 -0.1619 -0.0996 -0.1833
11880W        W29404  14.473  15.871   6.475  0.2804 -0.4954 -0.2187
11881W        W29405  16.260   2.813  13.478  0.2861 -0.1078  0.0861
11882W        W29406   1.497   5.723  15.906  0.0755  0.0499  0.0334
11883W        W29407   2.674  16.322   1.588 -0.1248  0.0717  0.2126
11884W        W29408   0.394  12.660  13.890  0.2256  0.0621  0.0867
11885W        W29409  12.409  13.320  17.089  0.1110  0.1905 -0.1958
11886W        W29410   4.513   4.696   4.260  0.3444  0.2364  0.1216
11887W        W29411  15.288   7.362   4.058 -0.3354 -0.3634 -0.1026
11888W        W29412  10.033  14.378   1.517  0.2374  0.1047 -0.1941
11889W        W29413   8.330   0.215  17.328 -0.2871 -0.2622  0.1417
11890W        W29414   9.958  13.085  12.969 -0.1412 -0.2156  0.1040
11891W        W29415  11.003  13.126  15.515 -0.0351 -0.0678  0.0896
11892W        W29416   9.660  10.961  16.192  0.1205  0.3327  0.0325
11893W        W29417   8.142   0.195   0.903  0.0740  0.1289 -0.1316
11894W        W29418   0.871  15.563   5.189  0.3184  0.1284  0.1265
11895W        W29419  11.218   8.049   2.677 -0.0131  0.1635  0.0383
11896W        W29420  10.674   3.797   3.665 -0.0437 -0.1475  0.1865
11897W        W29421  13.690   9.873  13.844 -0.0753 -0.0753 -0.1853
11898W        W29422   5.819   8.051   1.096  0.3335  0.1997  0.0175
11899W        W29423   3.088   0.209  14.747  0.1721  0.1204 -0.1557
11900W        W29424  16.372   3.145   4.809  0.0751 -0.0213 -0.0647
11901W        W29425  12.393   7.412  14.845 -0.1011  0.0434  0.0252
11902W        W29426  16.329   1.682   1.671  0.1382  0.0937 -0.2453
11903W        W29427  15.620  12.442   4.909  0.0922 -0.1952  0.0975
11904W        W29428   3.986  15.924   2.722 -0.0163 -0.0870 -0.0303
11905W        W29429  14.122   1.845   3.563  0.2200 -0.3420  0.2590
11906W        W29430  12.792   2.065  14.474 -0.3111  0.1036  0.0302
11907W        W29431   7.850   3.925  17.738 -0.1001  0.5251  0.1731
11908W        W29432   7.983   4.014   1.656  0.0816  0.1782  0.2797
11909W        W29433   9.820   1.608  11.954  0.0868  0.0756  0.1322
11910W        W29434   2.060   9.571   3.137 -0.2580  0.1743  0.2846
11911W        W29435  13.517   2.984   3.459 -0.2764 -0.0190 -0.1637
11912W        W29436  15.142   5.503  14.722 -0.0007  0.0748  0.2208
11913W        W29437  15.577   1.760  13.163 -0.2220 -0.0651  0.2924
11914W        W29438  10.705  13.897  16.288  0.1279  0.2193  0.1541
11915W        W29439  12.254  15.623   3.149  0.0256  0.1467  0.0315
11916W        W29440   2.704  12.932   4.050  0.1186  0.1121 -0.0541
11917W        W29441   1.340   3.872   1.242 -0.0145 -0.1890  0.0733
11918W        W29442   4.715   7.062  15.387  0.0843  0.0546 -0.1110
11919W        W29443   9.354   0.233   4.763 -0.0543 -0.2859  0.0471
11920W        W29444   8.432  13.154   0.288 -0.1037  0.1289 -0.2545
11921W        W29445   7.410   6.259  13.734  0.0356 -0.1330  0.0958
11922W        W29446  10.510   2.244  16.619 -0.2842 -0.1352  0.2002
11923W        W29447   0.924  14.502   0.896 -0.0127  0.2048 -0.3112
11924W        W29448  14.886   0.470   0.554  0.2786 -0.1232 -0.3254
11925W        W29449   1.599   6.528  13.159 -0.2603 -0.2187  0.2455
11926W        W29450   7.957  16.113  14.201  0.1663  0.0689  0.0818
11927W        W29451  10.744  12.390  14.160 -0.1818 -0.0225  0.1593
11928W        W29452   2.614  10.523   2.320 -0.0469  0.2160 -0.1852
11929W        W29453   7.438   4.833   4.380  0.2618 -0.0173 -0.1149
11930W        W29454  16.649   1.840   6.925  0.1275 -0.3758  0.0351
11931W        W29455  11.337   7.487   4.789  0.1788 -0.1465 -0.0436
11932W        W29456  10.195   9.255  12.257 -0.0652  0.2140  0.1144
11933W        W29457  12.906  13.129  17.050 -0.0418 -0.2096  0.3332
11934W        W29458  11.025  11.637  13.719  0.2461  0.0589  0.2057
11935W        W29459   2.777   2.140  13.063 -0.2315 -0.1148 -0.1688
11936W        W29460   0.083   0.635  15.707 -0.1437  0.0975 -0.2157
11937W        W29461   0.049   7.757  15.303 -0.0843 -0.0283 -0.3154
11938W        W29462  14.294  14.954  12.900 -0.1987 -0.0783 -0.0973
11939W        W29463   8.173   8.818   3.709 -0.0272 -0.0594 -0.0143
11940W        W29464   3.678  14.863   4.656  0.3307  0.1869 -0.1161
11941W        W29465  11.581   7.572  16.202 -0.0553 -0.1927  0.0740
11942W        W29466  11.631  12.810   2.108 -0.1558 -0.0004 -0.2496
11943W        W29467  11.719   0.550   0.345 -0.2099  0.1900 -0.0191
11944W        W29468   9.247   9.708   1.244  0.1218  0.1809 -0.0462
11945W        W29469   9.199   6.991  13.918 -0.1747 -0.2060 -0.1958
11946W        W29470  12.979   1.187  16.428 -0.1870 -0.0314  0.0957
11947W        W29471   7.498   5.684  16.113  0.0472  0.0955  0.2936
11948W        W29472   2.939   0.763   0.860  0.1571 -0.1808  0.0842
11949W        W29473   1.115   0.903  17.091  0.0205 -0.1453 -0.0422
11950W        W29474   8.682   1.061   3.703 -0.1068  0.0651 -0.1328
11951W        W29475   0.893   8.918   0.902 -0.2088 -0.0395  0.2039
11952W        W29476   3.720   7.218   5.426  0.1547 -0.0829  0.0657
11953W        W29477   6.078   3.271   1.084 -0.0414 -0.0277  0.0737
11954W        W29478   5.632   9.306  15.001 -0.1887 -0.2143 -0.1348
11955W        W29479  11.695   9.322   4.778 -0.2541 -0.0733 -0.2249
11956W        W29480  10.885   7.000  15.427  0.1006  0.0789 -0.1212
11957W        W29481  15.285  11.720  12.472 -0.1680 -0.2211  0.0909
11958W        W29482  16.747  16.557   4.176 -0.0777  0.2654 -0.3416
11959W        W29483  14.570  16.460  12.916  0.0137  0.0154 -0.0347
11960W        W29484   7.352   1.298  11.448 -0.1232 -0.3404 -0.1412
11961W        W29485  13.511   4.164   4.379 -0.0241 -0.0277 -0.0114
11962W        W29486   6.519   1.053   2.283 -0.1045  0.0472 -0.2021
11963W        W29487   4.435  14.850   1.134 -0.0998  0.2852 -0.0115
11964W        W29488   3.614  16.864   0.517  0.2425 -0.1190  0.0757
11965W        W29489  16.576  12.949  15.890  0.1013  0.0982 -0.1164
11966W        W29490   3.508   2.062   5.203  0.2368 -0.2323  0.0066
11967W        W29491   2.906  10.154  17.200  0.0751  0.0852 -0.2311
11968W        W29492   1.458  15.548  15.315  0.0365 -0.0597  0.0084
11969W        W29493  15.335  15.029  13.818  0.0749 -0.0191 -0.1778
11970W        W29494   8.364   2.524   4.443 -0.0178 -0.2410  0.1307
11971W        W29495  15.539  11.539  17.045 -0.3049  0.0457  0.0692
11972W        W29496   4.983   0.735  14.596  0.0239  0.1498 -0.1092
11973W        W29497   3.006   9.681  16.549  0.0462 -0.0371 -0.2727
11974W        W29498  11.961   5.753  15.498 -0.2374  0.1092  0.1692
11975W        W29499  14.851  16.362   6.250 -0.1576  0.1994 -0.1425
11976W        W29500   2.657  16.434  14.151  0.1395 -0.1749 -0.0515
11977W        W29501   8.364  15.319  13.780  0.0794 -0.3787  0.1632
11978W        W29502   0.474   9.663   3.158 -0.1667  0.2782 -0.4028
11979W        W29503  16.697  10.303   0.658 -0.0742 -0.0415  0.0806
11980W        W29504   4.677   2.726   5.917 -0.0200 -0.0378 -0.0696
11981W        W29505   3.179   9.864   3.203  0.0272 -0.0850 -0.2393
11982W        W29506  15.382   6.944   2.870  0.1446 -0.0523  0.1315
11983W        W29507  10.740   7.500   3.124  0.3199 -0.0584 -0.0580
11984W        W29508  10.145   5.199   1.296  0.0106 -0.1692 -0.1813
11985W        W29509  15.638   1.821   0.466 -0.0011  0.3272 -0.0010
11986W        W29510   5.084   3.563  13.667 -0.0598  0.2455  0.0382
11987W        W29511  15.743   4.315  15.504 -0.0897  0.0786  0.1898
11988W        W29512   4.433   3.675   1.286 -0.1341  0.0005 -0.0034
11989W        W29513   9.049   1.841   0.109 -0.1750 -0.0700  0.0145
11990W        W29514   7.158  15.527  13.290 -0.1322  0.0108  0.0230
11991W        W29515   1.465   3.192   4.566 -0.2101  0.0680 -0.0774
11992W        W29516  11.369   2.319   3.089  0.1847 -0.2294  0.0824
11993W        W29517   3.385  10.381  15.493  0.0183 -0.3746  0.0029
11994W        W29518   3.129  12.557  16.729  0.2067 -0.0676 -0.1364
11995W        W29519   8.898   1.734  10.966 -0.0409  0.0185  0.0368
11996W        W29520   2.989  14.062  16.236  0.1334 -0.0562 -0.3033
11997W        W29521   9.179   5.883   1.132  0.1240 -0.0082  0.2817
11998W        W29522   8.714   9.962  16.053 -0.2830 -0.1375 -0.2376
11999W        W29523   9.223   1.858   0.814 -0.2480 -0.2220  0.2952
12000W        W29524  14.734  14.098  15.808 -0.0297 -0.1770  0.3360
12001W        W29525  14.324  12.937   2.746  0.1308 -0.0826  0.0766
12002W        W29526   5.850  13.784  15.640 -0.0213  0.0499  0.1963
12003W        W29527   4.047   1.709  13.483 -0.0666 -0.1728  0.1283
12004W        W29528   6.360   6.544   1.675  0.1961 -0.1261  0.2146
12005W        W29529   5.893   6.874  13.471 -0.2439  0.1371 -0.1326
12006W        W29530   6.835   0.194   3.013 -0.0176 -0.1195  0.3959
12007W        W29531  13.850   8.602   2.327  0.1098  0.1495  0.0353
12008W        W29532  11.624   9.893  16.529 -0.0831 -0.2363 -0.2679
12009W        W29533  14.222  13.682  14.072 -0.0328 -0.0322  0.3803
12010W        W29534   2.322  16.859  12.125 -0.1016 -0.0517  0.1951
12011W        W29535  12.533   3.782  12.602 -0.2803  0.4856  0.0553
12012W        W29536  11.299   3.033   1.983  0.0657 -0.1770  0.1018
12013W        W29537   0.791  14.705   4.030 -0.1963 -0.2706 -0.0632
12014W        W29538   0.364   6.575  13.866 -0.0628 -0.1347  0.0464
12015W        W29539   0.878  14.551   2.997  0.5684  0.0121  0.0105
12016W        W29540  14.565  11.607   1.805  0.0885 -0.3578  0.0266
12017W        W29541   0.536  16.340  15.630  0.1029 -0.3648 -0.3293
12018W        W29542   2.412  11.338  13.546  0.4397 -0.3647 -0.2100
12019W        W29543  12.272  13.172  12.781 -0.4834  0.1073  0.3095
12020W        W29544  15.772  13.863   1.155  0.1820  0.1287  0.1430
12021W        W29545   1.885  11.366   2.802  0.1107 -0.1158 -0.0956
12022W        W29546   4.227   7.202   5.490  0.1072  0.0315 -0.0819
12023W        W29547   0.037  11.617   0.593 -0.0964  0.0498 -0.0956
12024W        W29548   8.966   6.599  12.767 -0.1059 -0.1041 -0.1957
12025W        W29549   7.107  12.048  12.408  0.3232 -0.1592 -0.0329
12026W        W29550   3.806  16.627   2.662 -0.0434 -0.2958  0.1315
12027W        W29551   9.384   9.539   0.768  0.2016  0.2633 -0.3526
12028W        W29552   9.110   0.730   2.389  0.1079  0.1908 -0.0357
12029W        W29553   4.032   6.488   5.621 -0.1893 -0.1175  0.0975
12030W        W29554  13.952   8.989  13.400  0.2624  0.0024 -0.0758
12031W        W29555  10.396  14.895  15.120 -0.2386 -0.2294  0.0330
12032W        W29556  11.555  10.648   0.698 -0.1297 -0.2996 -0.2510
12033W        W29557   8.178  11.839   5.232  0.0784  0.3975 -0.2007
12034W        W29558  10.351  11.582   4.437  0.1598  0.3510 -0.1139
12035W        W29559   4.801  14.563  15.035 -0.1758 -0.1499  0.1455
12036W        W29560   4.712  13.101  14.554  0.3765 -0.0217 -0.0330
12037W        W29561  15.017  17.160  17.434  0.1336 -0.3003 -0.0775
12038W        W29562   8.294  15.009   2.053  0.0483 -0.0963 -0.1721
12039W        W29563  16.575  14.982  13.228 -0.1528 -0.2062  0.4270
12040W        W29564   1.539   2.395  17.457  0.1811  0.3067  0.0039
12041W        W29565  14.790  16.388  15.413 -0.0240 -0.3695  0.2460
12042W        W29566   3.901  15.720   6.646 -0.3529 -0.0362  0.3876
12043W        W29567   2.931   1.791  16.008 -0.0306  0.0026 -0.1009
12044W        W29568   7.324  12.759  14.378  0.1028  0.0240  0.1892
12045W        W29569  13.467  11.612   0.232  0.1555  0.1283  0.0476
12046W        W29570  16.173   4.364   0.188  0.0090  0.1454  0.0680
12047W        W29571   3.535  16.734  14.363 -0.2550 -0.3351 -0.0188
12048W        W29572  15.290  12.286  13.379  0.1835 -0.0892 -0.0536
12049W        W29573   6.958   7.852   0.789  0.0854  0.0413  0.1250
12050W        W29574  11.206   8.931   0.812 -0.2055 -0.3780  0.1329
12051W        W29575  11.827   6.512  12.201 -0.3302 -0.0173 -0.2339
12052W        W29576  16.604  16.206  15.374  0.0620 -0.2939  0.0440
12053W        W29577  11.029   8.769  17.215  0.0048 -0.1016  0.0917
12054W        W29578   3.548   4.988   1.869  0.3571 -0.0784 -0.1665
12055W        W29579  15.744   0.619  12.549  0.1209 -0.0226 -0.2813
12056W        W29580   6.500  11.582  15.617 -0.0724  0.2088 -0.2053
12057W        W29581   9.913  14.824   4.754  0.2060  0.0210 -0.0473
12058W        W29582  16.053   8.204   3.475  0.0148  0.0905  0.1216
12059W        W29583   4.836  16.475   4.190 -0.1551  0.1273  0.0670
12060W        W29584   4.216   5.125   4.431 -0.3151 -0.2249 -0.1613
12061W        W29585   4.912   7.620  17.242 -0.1357 -0.3103 -0.3276
12062W        W29586   7.240   0.678   4.698  0.3734 -0.0283 -0.4671
12063W        W29587  14.274   3.237  15.528  0.1035 -0.3489 -0.0483
12064W        W29588   9.251  14.276  16.364 -0.2430  0.1754  0.0827
12065W        W29589   0.858  14.543   2.396 -0.3942  0.1416  0.0665
12066W        W29590  15.261   6.922  17.290 -0.0091  0.1276 -0.0535
12067W        W29591  16.929  11.108  17.108 -0.0846 -0.0380 -0.2343
12068W        W29592   9.548   9.977  16.273 -0.2533  0.0595  0.1910
12069W        W29593   5.063  10.328   1.311  0.1307 -0.1286 -0.0249
12070W        W29594   0.401   0.942   3.726 -0.1589 -0.2942 -0.1125
12071W        W29595   0.541   6.631  15.507  0.0791 -0.4015  0.3717
12072W        W29596  11.801   7.369  12.855 -0.1022  0.1117 -0.2868
12073W        W29597   3.089   5.816  16.457 -0.0190 -0.3556  0.0022
12074W        W29598  11.597   7.981   1.970  0.0798 -0.0490 -0.3725
12075W        W29599  11.316   7.294  15.833 -0.0478 -0.1721  0.0675
12076W        W29600  10.435   4.905   5.701  0.0244 -0.0492 -0.1809
12077W        W29601  16.010   7.195  17.254  0.0445  0.2565 -0.1469
12078W        W29602  10.590  13.968  15.129  0.1851 -0.1965 -0.0736
12079W        W29603  12.845  15.327  15.666  0.0798  0.3174  0.2714
12080W        W29604  11.055  13.682  15.223 -0.1711  0.0916 -0.0241
12081W        W29605   7.302   2.426  13.586  0.1037  0.0072  0.1656
12082W        W29606  12.933   5.835   4.435 -0.3132  0.1501 -0.1077
12083W        W29607   8.963  13.468   0.652  0.2143  0.0774  0.2192
12084W        W29608   5.985   6.798  17.046 -0.0738  0.0560 -0.3163
12085W        W29609  10.792  13.901  15.742 -0.0702 -0.0790  0.0645
12086W        W29610  12.281   4.046   1.045 -0.5143  0.1823  0.0681
12087W        W29611   9.416   5.770   2.375 -0.1843 -0.0569 -0.1138
12088W        W29612   6.557   0.095  16.240 -0.0845  0.2461 -0.1962
12089W        W29613   0.116  14.958  17.351 -0.0693 -0.1554  0.3662
12090W        W29614  13.618  12.774  15.010  0.1106  0.1805  0.0680
12091W        W29615   1.990   9.342  15.846  0.2205  0.2425  0.1260
12092W        W29616   3.588   1.817   2.136  0.1862 -0.1024 -0.3972
12093W        W29617  17.030  15.681   5.611  0.2449  0.2665  0.2729
12094W        W29618  14.261  16.273  12.571  0.4348 -0.1635  0.1568
12095W        W29619  10.032   0.163   3.351  0.1081 -0.1122  0.1827
12096W        W29620   4.572  15.954   0.888  0.1259  0.1104  0.0835
12097W        W29621   4.268   9.129   0.334  0.3157  0.0814 -0.0553
12098W        W29622   4.426  11.345  14.457  0.0219  0.0738  0.0116
12099W        W29623  16.271  15.591  16.968  0.0136 -0.1272 -0.0737
12100W        W29624   9.868   4.876  16.172 -0.0002  0.1255  0.5579
12101W        W29625  12.447  12.803  14.251  0.3862  0.0411  0.2344
12102W        W29626   9.377  16.425  14.514 -0.0970  0.0484 -0.0135
12103W        W29627   2.511   5.946   6.109  0.0660 -0.1166 -0.1316
12104W        W29628  16.392  15.904   2.592 -0.0201  0.0072 -0.0738
12105W        W29629  12.406   3.776   3.656  0.0207  0.2017 -0.4108
12106W        W29630   9.643   3.890   2.289 -0.0868 -0.3448  0.0493
12107W        W29631   3.235   5.754  12.826  0.0672  0.0237  0.0199
12108W        W29632  10.241   5.478  13.616 -0.1581 -0.3315 -0.0187
12109W        W29633   9.649  12.536  15.373  0.0874 -0.0701 -0.0992
12110W        W29634   7.797   8.103   4.335 -0.1493 -0.4020  0.2657
12111W        W29635  16.792   3.165   3.192 -0.1271 -0.1453  0.1563
12112W        W29636   3.020  15.196   1.528  0.2468 -0.1974  0.0919
12113W        W29637   0.761  14.866  12.908  0.0910  0.1212 -0.0404
12114W        W29638  16.155   1.156   0.109 -0.1803  0.1453  0.3802
12115W        W29639   7.343   5.687   3.920  0.2317  0.2013  0.0666
12116W        W29640  15.649   4.502   2.876  0.0384 -0.2042 -0.1443
12117W        W29641   2.833   2.819   2.428 -0.2928  0.0744 -0.0773
12118W        W29642   6.081  10.760  16.018  0.3187  0.1869 -0.0993
12119W        W29643   2.579   7.793   5.570  0.1514 -0.0305 -0.1154
12120W        W29644  15.330  10.560   3.647 -0.0667 -0.1013 -0.0858
12121W        W29645  11.808  16.629   3.101  0.0847  0.1359  0.1766
12122W        W29646  10.098  11.343  16.073 -0.2344  0.0989 -0.0118
12123W        W29647  11.232   7.076  15.029 -0.0307  0.3271  0.0864
12124W        W29648  14.659  12.667  16.972 -0.1454  0.2458  0.0520
12125W        W29649   8.476  15.906   1.776 -0.3182  0.0475  0.0782
12126W        W29650   5.068  11.883   3.840 -0.1234  0.0699 -0.1822
12127W        W29651  11.219  15.881  13.128 -0.2704 -0.1669  0.1123
12128W        W29652  16.985   6.760  14.782 -0.1688 -0.1327  0.1447
12129W        W29653   1.649  10.795  15.092  0.2692 -0.0501  0.2035
12130W        W29654   9.754   7.234   0.805 -0.0712  0.1734  0.0977
12131W        W29655   9.291  10.100  17.261  0.5371 -0.1953 -0.0220
12132W        W29656   0.819   0.397  15.186 -0.1074 -0.0241  0.1466
12133W        W29657  17.144   4.773  14.065 -0.0432  0.1145 -0.1360
12134W        W29658   6.730   7.905  14.249 -0.0879  0.1035 -0.1642
12135W        W29659   6.203  17.047   5.121  0.1733  0.0101  0.1733
12136W        W29660   1.112   5.482   1.611  0.0421 -0.0089 -0.5550
12137W        W29661   7.887  15.422   1.585 -0.0605 -0.0715  0.0146
12138W        W29662   0.945   1.421  17.116  0.0565  0.1924 -0.2398
12139W        W29663   8.485   6.652   4.667 -0.0330  0.0535  0.0423
12140W        W29664  15.555   7.843   4.628 -0.0550  0.1015  0.4107
12141W        W29665  10.544   3.529   2.563  0.2766  0.1366 -0.3081
12142W        W29666   6.441  14.557  15.235 -0.1626  0.0494 -0.1340
12143W        W29667   0.125  10.999  13.901 -0.1254 -0.2568 -0.2745
12144W        W29668  15.901  12.567   3.592 -0.4004 -0.2911 -0.1754
12145W        W29669   8.799   2.668   1.835 -0.1390 -0.0438 -0.0602
12146W        W29670   8.027   3.044   0.920 -0.1138  0.1105  0.2081
12147W        W29671   3.272   5.262  17.669 -0.2283  0.1084  0.3605
12148W        W29672  14.154   1.404  15.830 -0.2862  0.2408  0.1505
12149W        W29673  14.109   4.020  12.910  0.3381  0.0968  0.0531
12150W        W29674  16.862  11.495  17.502  0.1069  0.0732  0.0654
12151W        W29675  12.648  15.571  13.664 -0.2377 -0.0111 -0.0492
12152W        W29676  10.240   5.479   5.355  0.1665 -0.3431  0.1163
12153W        W29677   2.494  16.943  15.274  0.2438  0.0064 -0.0370
12154W        W29678   0.583   4.101   1.353 -0.0132  0.1354 -0.0171
12155W        W29679   4.796   8.989   1.030  0.0917 -0.0043  0.1599
12156W        W29680  15.502  12.452  17.197  0.0317 -0.1846 -0.1647
12157W        W29681   7.634   2.114  15.398  0.1683  0.2614  0.0929
12158W        W29682   3.358   1.049  12.463 -0.1491  0.2463  0.1560
12159W        W29683  10.823   1.810  13.111  0.1320  0.1716 -0.1133
12160W        W29684   1.163   1.142   0.841 -0.5255 -0.0641 -0.2798
12161W        W29685   0.860   8.031   0.358  0.1172 -0.1348  0.0518
12162W        W29686   5.764   4.539  12.892 -0.0025  0.0817  0.1792
12163W        W29687   1.049  15.486   0.503  0.4037  0.0249 -0.2402
12164W        W29688   9.567   4.061   4.085  0.1482  0.3433  0.2628
12165W        W29689   8.739   1.977   1.579  0.0624 -0.1540  0.0042
12166W        W29690  13.431  10.722  17.673 -0.0649 -0.0664 -0.2631
12167W        W29691  16.157   9.937  15.933  0.1257 -0.0087 -0.2451
12168W        W29692   0.938   5.404   4.246 -0.1307  0.0119  0.0210
12169W        W29693  17.106  15.433  17.076  0.3238 -0.2737 -0.1945
12170W        W29694   7.735  12.972   1.337  0.0963  0.1413  0.2346
12171W        W29695   9.352   4.900   3.034 -0.2905 -0.2972 -0.0563
12172W        W29696   3.229   5.233  15.938 -0.0709 -0.0223 -0.2456
12173W        W29697   9.269  10.386  16.621 -0.0767  0.1078  0.1949
12174W        W29698  15.570  16.979   2.669 -0.0780  0.1193 -0.1423
12175W        W29699   3.720  14.981  16.551  0.0609  0.1383 -0.0024
12176W        W29700   5.406   6.256   2.699  0.4066 -0.0676  0.1525
12177W        W29701   7.863   8.767  12.029 -0.2759 -0.0371 -0.0686
12178W        W29702  13.128   7.923  14.848 -0.2239 -0.2843 -0.0292
12179W        W29703   1.323   1.527  15.555  0.1653  0.1634  0.1625
12180W        W29704  12.530  14.572  15.182  0.0696  0.2411 -0.1192
12181W        W29705   6.421  15.190   1.050 -0.1534 -0.0056  0.1258
12182W        W29706  16.721   6.025   1.077  0.0919  0.5125  0.1562
12183W        W29707   6.558   9.853  16.952 -0.0148 -0.0274  0.2686
12184W        W29708  11.751  11.304   2.939 -0.0085  0.1105 -0.1639
12185W        W29709   1.771   6.477  13.960 -0.0185  0.1575  0.2085
12186W        W29710  14.565   1.093  14.772 -0.1267 -0.1538 -0.1622
12187W        W29711  11.797   5.108  12.121  0.2259  0.1344 -0.4848
12188W        W29712  11.741   5.991   2.841  0.0446  0.0412 -0.0310
12189W        W29713   8.513  14.120  12.177 -0.2333  0.0302 -0.0023
12190W        W29714   6.549   3.875   0.428  0.0858  0.1516 -0.3059
12191W        W29715  15.119   0.272   2.791 -0.1395  0.0637 -0.1127
12192W        W29716   7.287  15.921  14.520 -0.0107  0.1755 -0.2026
12193W        W29717   5.842  14.263   5.491 -0.2329 -0.1571 -0.0588
12194W        W29718  13.210   3.280   2.873  0.0757  0.1275 -0.1855
12195W        W29719   7.003   0.456  13.023  0.0202  0.0611  0.1983
12196W        W29720  11.165  15.892   1.489 -0.0193 -0.0447 -0.0668
12197W        W29721   6.069   9.323   1.634  0.0266 -0.1057  0.0568
12198W        W29722   4.785  10.376  16.253 -0.0045 -0.0314 -0.0652
12199W        W29723  11.089   9.314   3.590 -0.0781 -0.0183 -0.2638
12200W        W29724   3.713  12.944   3.252 -0.3535  0.0774  0.0031
12201W        W29725   8.261  10.443   4.985 -0.0471  0.0783  0.0697
12202W        W29726  12.634  10.816  14.879  0.1644 -0.3660  0.4484
12203W        W29727  16.724   0.355  13.611  0.2663  0.2038  0.2918
12204W        W29728   1.144  13.112   0.799  0.1437  0.4959 -0.0111
12205W        W29729  11.478  15.938   5.173  0.1980  0.0965 -0.0550
12206W        W29730   3.354   3.353   5.918 -0.1360 -0.0242 -0.0951
12207W        W29731   7.115  17.021   2.794  0.0830 -0.1177 -0.2394
12208W        W29732  17.107  10.430  14.065 -0.0971  0.0831  0.0586
12209W        W29733  14.083  16.226  17.227  0.0064  0.2713  0.0836
12210W        W29734   4.243   9.424  15.440 -0.1811 -0.2537 -0.0166
12211W        W29735   9.270   1.405  16.982 -0.0364 -0.1781 -0.1471
12212W        W29736  12.820  15.219   4.459 -0.0027  0.0216 -0.1089
12213W        W29737  10.140   3.162  14.718  0.2790 -0.1626 -0.0638
12214W        W29738   1.073   2.700  13.198  0.0177  0.2377 -0.0569
12215W        W29739   4.193  16.458   1.116 -0.0253  0.3263  0.1527
12216W        W29740  13.101   5.464   3.907  0.0853  0.2168 -0.0505
12217W        W29741   1.313  15.955   5.569  0.0526 -0.0839  0.2648
12218W        W29742  16.882   4.290  12.636  0.2340 -0.0817  0.0471
12219W        W29743   9.990   9.537  16.927  0.2063  0.0534  0.1175
12220W        W29744  13.434  15.441   3.872 -0.1010 -0.0413 -0.0117
12221W        W29745   5.206   8.034  13.736  0.2688  0.4842  0.0774
12222W        W29746   2.439  12.137   4.154  0.0464 -0.1322  0.0783
12223W        W29747   0.543   6.811  17.667 -0.0670 -0.1831 -0.2586
12224W        W29748   6.365   3.277   1.523 -0.0479 -0.1449 -0.2445
12225W        W29749  11.648  16.561   0.475 -0.0856  0.2343 -0.0337
12226W        W29750  16.471   9.866  15.177  0.1329 -0.0675 -0.1364
12227W        W29751  10.662  12.822  16.943 -0.0315  0.0796 -0.1264
12228W        W29752   0.032  16.484  17.713 -0.0685  0.2597  0.1258
12229W        W29753   1.839  10.001   4.035 -0.0757  0.0254  0.0401
12230W        W29754   8.087  13.246  16.692  0.2358  0.0779 -0.1725
12231W        W29755  11.933  10.613  14.111 -0.1690 -0.2822 -0.3847
12232W        W29756   6.559  15.339  15.706  0.1107 -0.2023 -0.1243
12233W        W29757  12.213   6.510  16.626  0.2868 -0.0528 -0.0140
12234W        W29758   8.507  12.384  16.662 -0.2712 -0.1462  0.1623
12235W        W29759   2.084  15.114   1.779  0.0240  0.0265  0.1012
12236W        W29760   7.873  15.207   6.044 -0.1703  0.2641 -0.2028
12237W        W29761   8.347  15.860  12.602  0.0830 -0.1207 -0.2000
12238W        W29762  15.097  13.620   1.269 -0.0146 -0.2806  0.1268
12239W        W29763  11.321   8.419   0.701 -0.2267 -0.0504 -0.0495
12240W        W29764  10.007  12.453   4.666 -0.1880  0.0189  0.0775
12241W        W29765   4.321  16.754   1.582 -0.1236  0.1862 -0.0395
12242W        W29766  12.080   7.957   0.211 -0.0224 -0.0709  0.6375
12243W        W29767  13.342  13.794   3.234  0.0356  0.0103 -0.2330
12244W        W29768  11.357  10.172   0.507  0.1057 -0.0611 -0.0337
12245W        W29769  16.774  11.320   0.496 -0.3813  0.2109 -0.1011
12246W        W29770  16.518  11.561   0.083  0.0022  0.1394  0.2223
12247W        W29771   2.346   7.487  13.377  0.3635 -0.1293 -0.2600
12248W        W29772   2.966  13.441  15.443 -0.1673 -0.0295 -0.0068
12249W        W29773   9.614  10.025  15.782 -0.2505  0.3630  0.0529
12250W        W29774  15.076  15.434  13.680 -0.2450 -0.1626 -0.0627
12251W        W29775   2.366  13.555   1.926  0.1833 -0.2827  0.0142
12252W        W29776  13.782  13.975  16.719  0.1758  0.3988 -0.1622
12253W        W29777   9.568   8.659   3.289  0.1811  0.2218 -0.2504
12254W        W29778  15.451   7.268   5.523  0.0079 -0.0285 -0.0094
12255W        W29779   6.141   0.975  13.813  0.1854 -0.1426  0.0690
12256W        W29780   4.778   6.896   3.941  0.3212 -0.0781  0.2891
12257W        W29781   8.379  10.928   1.808 -0.0184  0.0242  0.2727
12258W        W29782  14.808   6.465   5.353  0.0670 -0.1133  0.2300
12259W        W29783  16.317  12.652   3.053 -0.2715 -0.2243  0.1897
12260W        W29784   3.077   6.681   4.812 -0.0777  0.2183 -0.2401
12261W        W29785   9.478  11.823   4.727 -0.0381  0.0892  0.0486
12262W        W29786   5.773   1.199  12.581  0.1529 -0.1004 -0.2029
12263W        W29787  13.672   1.633  13.325 -0.1360  0.0572 -0.0734
12264W        W29788  16.313   4.999  15.684  0.1072  0.0356  0.4831
12265W        W29789   2.375   5.226  13.690  0.1346  0.1069 -0.0560
12266W        W29790   7.982   7.698   3.222  0.2607 -0.1011  0.0393
12267W        W29791  10.917  15.054   0.958  0.2608  0.1500  0.0831
12268W        W29792   0.655   1.097   7.140 -0.2717 -0.2286  0.0250
12269W        W29793   7.886   2.619   0.236 -0.0083 -0.0227  0.1375
12270W        W29794   1.183   7.774   4.503 -0.1127 -0.0070  0.0204
12271W        W29795   9.267  13.822   3.656 -0.0016 -0.0954 -0.1291
12272W        W29796   5.051   0.254  16.607 -0.0170 -0.1055  0.0257
12273W        W29797   8.212   2.767  12.455 -0.1409  0.0101 -0.0191
12274W        W29798  13.516  16.640   0.224  0.0620  0.0467 -0.0552
12275W        W29799  13.444   1.826  16.718 -0.1605 -0.3823  0.0045
12276W        W29800  12.834  12.198   3.196  0.2156 -0.1701  0.2316
12277W        W29801  12.635  14.523   3.368 -0.2886  0.1129  0.3313
12278W        W29802  13.842  14.249   3.910 -0.1060  0.3037  0.1264
12279W        W29803   7.444  14.692  15.216 -0.1518  0.2979 -0.1211
12280W        W29804  14.168  10.750  16.441 -0.0552 -0.1410 -0.1569
12281W        W29805   3.663   8.290   6.477  0.0827 -0.0441 -0.0092
12282W        W29806   7.889  13.171  14.895 -0.2212  0.1080 -0.1086
12283W        W29807   1.957   1.883   0.596  0.1103  0.1171  0.1200
12284W        W29808   4.765  11.813  14.530  0.0727 -0.1933 -0.1791
12285W        W29809   0.654  12.125   0.057 -0.0314  0.1689  0.1534
12286W        W29810   3.743  14.192  12.822  0.2219 -0.2095 -0.0909
12287W        W29811   8.535  15.533  15.658  0.0672 -0.1481  0.0403
12288W        W29812   6.663   6.827  13.601 -0.0920  0.0348  0.0209
12289W        W29813  15.254  13.869  17.380 -0.0237  0.0732  0.1006
12290W        W29814  10.629   2.325   1.552 -0.0934 -0.4076 -0.0106
12291W        W29815  16.410   7.424  14.362  0.0050  0.4064  0.2102
12292W        W29816  16.982   8.058   2.900  0.1790  0.0448  0.2641
12293W        W29817  10.905  16.552  14.870  0.2771  0.1001 -0.2367
12294W        W29818   0.437   6.609  17.219  0.0704 -0.0955  0.1737
12295W        W29819  14.923  11.142  16.786 -0.1790  0.0610  0.0414
12296W        W29820  15.348  13.368  15.355 -0.0161 -0.3682  0.0215
12297W        W29821   7.227   7.170  15.611  0.1523  0.2385 -0.0911
12298W        W29822   2.856   8.489  16.308  0.0743 -0.0541 -0.1944
12299W        W29823   8.544  16.235   3.900 -0.3546  0.2173 -0.1848
12300W        W29824   3.992   8.357   3.034 -0.0600  0.0536 -0.0601
12301W        W29825   6.512  14.246  17.435 -0.1616  0.1317 -0.2945
12302W        W29826  11.453  10.692   2.452  0.1095 -0.1384 -0.1766
12303W        W29827   8.424   5.801  15.077  0.1819 -0.2479 -0.1209
12304W        W29828  16.333  13.640   1.872  0.1823 -0.0772  0.1077
12305W        W29829   7.387  10.228  12.301 -0.1250 -0.2166  0.1442
12306W        W29830  15.490  10.711   2.488  0.0934  0.0670 -0.0376
12307W        W29831  12.015   0.677  15.088 -0.1075 -0.1340 -0.0763
12308W        W29832  16.826   5.068  16.443  0.2831 -0.1382  0.1476
12309W        W29833   7.915  16.297  12.657  0.2191  0.0932  0.1312
12310W        W29834   3.508   2.631  12.601 -0.1616 -0.3240 -0.1108
12311W        W29835  10.706   7.792   3.546 -0.1640  0.2852 -0.1271
12312W        W29836  15.824  12.548  15.542 -0.0822  0.2039 -0.2237
12313W        W29837   6.785   1.109   1.832  0.1232 -0.0400 -0.1348
12314W        W29838  10.113  10.342   5.204 -0.1395 -0.0497  0.0780
12315W        W29839   4.680  15.080  15.742 -0.0716 -0.0290 -0.1510
12316W        W29840  16.351   4.317  16.210 -0.1451  0.0200 -0.0789
12317W        W29841   9.882   6.802   3.601 -0.2206  0.0739  0.2254
12318W        W29842   1.987   9.017  15.391 -0.1697 -0.0438 -0.3098
12319W        W29843   6.596   6.106   5.032 -0.1230 -0.2749 -0.0071
12320W        W29844  11.155   1.937  14.418  0.1150 -0.0455 -0.1001
12321W        W29845   0.750  13.024  14.142  0.0626  0.2830 -0.0178
12322W        W29846  17.145  12.267   5.413  0.1162 -0.2090  0.0153
12323W        W29847   7.091   8.807   4.128 -0.1760 -0.2886 -0.0370
12324W        W29848   6.193   2.169  16.495 -0.1668  0.2614  0.0545
12325W        W29849  12.619  16.169  14.629  0.0121 -0.2969 -0.2797
12326W        W29850   1.291  13.524  15.524  0.0962 -0.0852 -0.2083
12327W        W29851   6.719   6.715   1.974  0.0184 -0.2013 -0.1955
12328W        W29852  12.229  15.826   3.573  0.2605 -0.1039  0.0406
12329W        W29853  15.107   3.581   2.440  0.0943  0.0646 -0.1990
12330W        W29854  15.197  14.499   1.520 -0.0535 -0.1446 -0.2648
12331W        W29855  12.864  11.442   3.969  0.0505  0.2466 -0.1516
12332W        W29856   0.386   9.310   3.514  0.2141 -0.1170  0.0295
12333W        W29857   7.370   7.995  16.191  0.4402 -0.1147 -0.1148
12334W        W29858   0.550   9.690   4.486 -0.5837  0.0799  0.0322
12335W        W29859  15.699   1.768  15.564  0.2947 -0.2499  0.0526
12336W        W29860  15.690  13.618   2.466  0.0567  0.5417  0.1445
12337W        W29861   8.070  16.440  17.689 -0.1736 -0.0447 -0.0775
12338W        W29862   4.613   5.346  13.354 -0.1615  0.0359 -0.3258
12339W        W29863   4.179   6.029   5.297  0.0340 -0.1604 -0.1757
12340W        W29864   5.661   7.586  15.494 -0.3236  0.1197  0.2099
12341W        W29865  10.424  14.544   0.522  0.0476  0.2743 -0.1737
12342W        W29866   8.289   7.212  13.828 -0.1424  0.2648 -0.2050
12343W        W29867  17.154  13.031  11.588 -0.0608  0.0730  0.0105
12344W        W29868  11.582  11.132   2.016  0.2378  0.0268 -0.2582
12345W        W29869  12.258   2.761  17.258  0.2007 -0.2444 -0.0341
12346W        W29870  10.797   5.482   0.471  0.1024  0.0826 -0.0881
12347W        W29871   0.115  15.969   3.072  0.0010  0.2070  0.1643
12348W        W29872  13.026   7.250   4.250 -0.0411 -0.1521  0.1150
12349W        W29873   1.649  15.710   3.982  0.1876 -0.0139 -0.0111
12350W        W29874  13.546   2.477   3.124 -0.0752  0.0544 -0.0788
12351W        W29875  12.511   2.051   5.641  0.3791 -0.1167 -0.0184
12352W        W29876   0.057  13.572  12.272  0.2575  0.1218 -0.1295
12353W        W29877  14.415  13.823   0.834 -0.0538  0.0628  0.0171
12354W        W29878   9.705  14.879  12.743  0.0909 -0.1486 -0.0444
12355W        W29879  12.658  13.539   2.062 -0.0765  0.1656  0.0054
12356W        W29880  15.854   6.395   4.716  0.0504  0.1837 -0.4809
12357W        W29881   7.300  11.519  13.246  0.0894 -0.1144 -0.0165
12358W        W29882  14.550   5.359  15.233 -0.0146 -0.0066  0.0809
12359W        W29883  14.695  10.180  13.024  0.4330 -0.0508  0.0065
12360W        W29884   2.804  14.088  14.688 -0.1664  0.0334 -0.1806
12361W        W29885   0.256   6.493  12.223  0.0384 -0.0835  0.0150
12362W        W29886  11.753   1.104  12.512  0.2826 -0.4584  0.2326
12363W        W29887  14.790   5.938  12.794  0.0270  0.1001  0.0647
12364W        W29888  15.220   8.222  14.726  0.0485  0.1286 -0.0228
12365W        W29889   7.878   2.523   4.319  0.0712 -0.0558 -0.1915
12366W        W29890  10.641   0.003   4.930 -0.2149  0.3304 -0.3188
12367W        W29891   8.808   0.208  12.242 -0.1583 -0.1226  0.0955
12368W        W29892   1.869  15.317   0.779 -0.0052  0.0876  0.1301
12369W        W29893  12.261  12.808  13.174 -0.0815  0.0754  0.0109
12370W        W29894   9.810  16.203  12.871  0.1323  0.2433 -0.0516
12371W        W29895   9.209   4.722   4.504  0.2249  0.0153  0.2791
12372W        W29896  14.877  15.669   4.782  0.3513  0.1686  0.2655
12373W        W29897  14.871   3.705   3.466  0.0962  0.1167  0.2434
12374W        W29898  16.070  16.106   1.692  0.1905 -0.0491  0.1198
12375W        W29899  10.564   5.094  16.108 -0.1483 -0.3655 -0.4404
12376W        W29900   1.880  14.628  12.593 -0.0455 -0.0070 -0.1870
12377W        W29901   3.761   1.091   0.474  0.1079  0.1307  0.0518
12378W        W29902  11.673  11.205   5.086 -0.0564 -0.4308  0.1933
12379W        W29903   4.954   4.992   2.505 -0.3123  0.2907 -0.0672
12380W        W29904  14.161   9.898   0.018 -0.0612 -0.0694 -0.0691
12381W        W29905   4.064   7.316   2.492  0.1493  0.1937  0.1012
12382W        W29906   4.622   4.077  16.066 -0.1520  0.0468 -0.0442
12383W        W29907  16.392  12.937  13.055 -0.0078  0.1801 -0.4069
12384W        W29908  11.766   9.768  11.823 -0.1248 -0.0446  0.1109
12385W        W29909   9.802   4.984   3.966 -0.2297 -0.0013  0.2784
12386W        W29910   5.235   9.076   3.044 -0.1487  0.1770 -0.0651
12387W        W29911  13.960   3.105  13.141  0.0272  0.2063  0.1977
12388W        W29912  17.117  14.645   3.325  0.1180 -0.2248  0.4130
12389W        W29913   6.290   8.207   0.948  0.1154  0.0958 -0.1101
12390W        W29914   8.262   3.366   3.930  0.1081 -0.2693  0.0947
12391W        W29915   6.270   3.492   4.582  0.2674 -0.1740 -0.0485
12392W        W29916   1.516  11.520  13.701 -0.0168 -0.1773  0.1083
12393W        W29917  10.778   6.920   4.563 -0.1446  0.0547 -0.0611
12394W        W29918   9.255   6.215  16.471 -0.1732  0.1320 -0.1800
12395W        W29919  13.468   0.387  15.369  0.1749  0.3971 -0.1462
12396W        W29920   6.070   1.963   3.267 -0.3095  0.3108 -0.4670
12397W        W29921   3.986   7.090  15.140  0.0606  0.0891 -0.2546
12398W        W29922   1.138  13.887   2.160 -0.4457  0.0076 -0.2466
12399W        W29923   7.689  13.374   1.924 -0.0754 -0.3872  0.0173
12400W        W29924  14.045   9.580  16.941 -0.1544 -0.1038  0.3924
12401W        W29925   8.856   7.213   3.445 -0.0261  0.1741  0.2200
12402W        W29926  16.586   2.769   5.620  0.0072 -0.0057  0.4386
12403W        W29927  16.054   0.767  14.254 -0.2849  0.0771 -0.0987
12404W        W29928   2.014   0.198   4.687  0.1432  0.0953  0.2488
12405W        W29929   3.064  12.541   1.606  0.5428 -0.2654  0.0394
12406W        W29930   0.769   5.293   3.011  0.2046 -0.1851 -0.0406
12407W        W29931  12.968   2.082   1.570 -0.0356 -0.1680  0.0850
12408W        W29932   8.737   5.220   1.741  0.2730  0.1861 -0.0750
12409W        W29933   6.493   8.582  13.744  0.2480  0.1797 -0.1732
12410W        W29934  14.777   0.596  16.840 -0.1386  0.0652 -0.2177
12411W        W29935  14.631  14.816   3.163  0.4778 -0.1995  0.4570
12412W        W29936  16.968   8.254   3.804 -0.1768  0.0375 -0.1101
12413W        W29937  13.346   2.397  17.596  0.3170 -0.0243  0.1718
12414W        W29938  16.191   4.515  15.668  0.1406  0.2645 -0.0937
12415W        W29939   6.156   6.337  15.563  0.0824  0.1512 -0.1545
12416W        W29940   4.100  14.568   4.070 -0.0011  0.0806 -0.3933
12417W        W29941  15.268   2.753   0.986 -0.0532  0.0910 -0.0569
12418W        W29942  14.112  16.691   6.223 -0.1222  0.0197  0.1361
12419W        W29943  11.324   0.166  15.901  0.0071  0.1409 -0.0974
12420W        W29944  16.392   4.507   2.268  0.1160  0.1064  0.2646
12421W        W29945  11.908   3.623  13.525  0.0333 -0.0280 -0.0746
12422W        W29946   5.668  14.429  13.957 -0.0228  0.2567 -0.0220
12423W        W29947   7.726  16.530   3.270  0.1806  0.0622  0.0024
12424W        W29948  14.110  12.674  14.974  0.0737  0.0069 -0.3253
12425W        W29949   1.742  10.861  12.695  0.1110  0.4329 -0.0420
12426W        W29950  10.270   1.509   2.654 -0.0014  0.0247 -0.1637
12427W        W29951  14.280   9.547  11.977 -0.2695  0.0467  0.5944
12428W        W29952  12.025   2.302   0.548  0.2101 -0.0594 -0.0524
12429W        W29953  10.782  11.701   0.827 -0.0882  0.1530 -0.2385
12430W        W29954   6.453   6.599  16.735  0.4816  0.3320 -0.2555
12431W        W29955   8.592   1.498   1.738 -0.0595 -0.2930 -0.0803
12432W        W29956   9.555   0.320   3.332  0.1602  0.4810  0.0790
12433W        W29957   3.200  15.290   3.941  0.1502 -0.2405  0.5065
12434W        W29958  10.594  15.398  14.451  0.0898  0.1269  0.2174
12435W        W29959   1.497   6.057   4.114 -0.0986 -0.0455 -0.0936
12436W        W29960  15.280  12.787  12.333 -0.1214  0.1351  0.3454
12437W        W29961  14.335   4.828   0.746 -0.2666  0.1377 -0.0650
12438W        W29962  11.299  16.933   0.604  0.1607  0.0874 -0.1671
12439W        W29963  12.178   2.915  12.699 -0.1144  0.2065  0.0126
12440W        W29964   8.733   0.531  17.686 -0.0894  0.1901 -0.1434
12441W        W29965   1.902   3.885   4.439 -0.4720 -0.4289  0.0010
12442W        W29966   6.007  14.738   5.324  0.2219 -0.1045 -0.2735
12443W        W29967  11.884   4.518  14.283 -0.0686  0.2260  0.1100
12444W        W29968  16.532  16.770  13.801  0.4314  0.0448 -0.0521
12445W        W29969   1.915  16.098   4.165 -0.3272  0.2548 -0.0767
12446W        W29970   4.598   3.449   0.270 -0.1325  0.1241  0.3043
12447W        W29971  13.991   8.623   1.062 -0.0602 -0.2153 -0.0197
12448W        W29972  12.856  15.900   3.825  0.3133  0.0142 -0.0694
12449W        W29973   5.880  10.868   4.967 -0.1411 -0.0019 -0.2134
12450W        W29974  11.868  15.237  15.562 -0.2468 -0.0850  0.1317
12451W        W29975  11.158   2.787   0.212  0.2216 -0.2115 -0.1083
12452W        W29976   9.273   5.268  14.772 -0.1493 -0.1347  0.0899
12453W        W29977   5.265   7.400   0.892 -0.2621 -0.0434  0.1184
12454W        W29978  15.600   9.150  17.209  0.1088 -0.1051  0.2595
12455W        W29979  15.129   5.354   5.436 -0.2667  0.1799 -0.1029
12456W        W29980  16.357  12.976  13.602  0.2801 -0.1387 -0.1389
12457W        W29981   5.004   4.826  15.586  0.0583  0.0658  0.0944
12458W        W29982   6.800   7.752   1.636  0.5047  0.2328 -0.2268
12459W        W29983   2.535  14.906   5.387  0.2489  0.0559 -0.1222
12460W        W29984  14.773   7.140  14.601  0.1902 -0.3461 -0.1781
12461W        W29985   0.244  16.409   3.310  0.0385 -0.0060 -0.0309
12462W        W29986   3.058  13.214   4.400  0.2155 -0.0790 -0.2951
12463W        W29987  10.227   3.461  15.384 -0.0608 -0.0487  0.1550
12464W        W29988  13.757   8.077   1.587 -0.1850 -0.1932 -0.0604
12465W        W29989   1.801   2.823   0.017 -0.4048 -0.0794  0.0110
12466W        W29990   0.180  11.183  12.189  0.2677 -0.1958  0.0560
12467W        W29991  10.030   4.825  15.169 -0.0366 -0.0377  0.1594
12468W        W29992   1.665  12.870   4.333 -0.2778  0.0023  0.1759
12469W        W29993  10.558  14.438  14.375 -0.0207 -0.1044  0.1332
12470W        W29994   2.516   6.818  15.400  0.2069 -0.2338 -0.1092
12471W        W29995   9.544   9.994   2.647  0.0478  0.1869  0.0254
12472W        W29996   6.055  15.839   3.987  0.4209 -0.3161 -0.3019
12473W        W29997  16.787  15.254   3.940 -0.1490 -0.1249  0.3242
12474W        W29998   6.566   2.975  12.402  0.0237 -0.0879  0.3547
12475W        W29999   5.835   0.165  13.162 -0.0980  0.1982 -0.0485
12476W        W30000  12.557  12.216  16.870 -0.0198  0.0652  0.2180
12477W        W30001   2.023  11.782   5.386 -0.2994 -0.0322 -0.2945
12478W        W30002   8.865   8.725  13.180  0.2173  0.1239  0.1430
12479W        W30003   8.405   1.515   3.654  0.0465  0.1631 -0.3382
12480W        W30004  11.048   4.298  13.234  0.0465  0.2144 -0.0311
12481W        W30005   2.681   4.808  13.678  0.2261 -0.3269  0.5031
12482W        W30006  11.151   5.367  17.647 -0.0330 -0.2631  0.0613
12483W        W30007   4.865   7.586   2.714  0.1134  0.0045 -0.2167
12484W        W30008   2.560  11.677  12.449 -0.1247  0.1397 -0.1758
12485W        W30009  15.545   6.972  14.358  0.1804  0.0623 -0.2473
12486W        W30010   0.778  10.751  15.134  0.1676 -0.0659  0.2571
12487W        W30011  10.491   6.388   3.206 -0.1991  0.1088 -0.0693
12488W        W30012   8.766  10.716   0.706  0.3511 -0.0641 -0.0268
12489W        W30013  12.718   5.778   2.969  0.0343  0.1690 -0.2814
12490W        W30014   1.891   3.035   2.255 -0.2196 -0.0503  0.0624
12491W        W30015   5.928   5.225  16.733  0.1013  0.0076 -0.0833
12492W        W30016   8.259  14.294   4.875  0.0567  0.0743 -0.1994
12493W        W30017  15.129   0.406  15.291  0.0796  0.0832  0.3700
12494W        W30018   8.894  14.037  11.492 -0.0709 -0.0218 -0.0973
12495W        W30019   6.698  13.231  15.496 -0.2915 -0.2911  0.2518
12496W        W30020   7.094   6.182  11.134  0.1738  0.0979  0.0837
12497W        W30021  13.473   0.454  14.366  0.1294  0.0403  0.1604
12498W        W30022   9.722  10.980  12.033 -0.0165 -0.3458 -0.1397
12499W        W30023  13.349   5.812   4.119  0.1535 -0.0477  0.1775
12500W        W30024  14.839   9.452  14.278  0.0608 -0.0538 -0.0944
12501W        W30025   6.904   7.034   4.008 -0.2529  0.0168 -0.0539
12502W        W30026   6.383   5.190   4.736  0.2967 -0.3944 -0.2090
12503W        W30027  15.146  14.403   4.768 -0.0663 -0.0925 -0.2144
12504W        W30028   3.303   0.639   2.669 -0.0519  0.2482  0.2955
12505W        W30029  16.809   0.009  12.631  0.2113 -0.2744  0.1826
12506W        W30030   0.640  12.454   5.656 -0.1352 -0.0354 -0.2489
12507W        W30031  11.513  12.240   0.261  0.2080  0.2247 -0.0561
12508W        W30032   3.802   5.758  12.758 -0.2214  0.1212 -0.0143
12509W        W30033  16.942  14.011  17.421 -0.2936  0.0661 -0.0378
12510W        W30034  10.044   2.314   1.019  0.0218 -0.0938 -0.2320
12511W        W30035  15.770  11.654  14.721 -0.0359  0.0983 -0.3756
12512W        W30036   3.707  10.834  15.486 -0.4981  0.0507  0.0050
12513W        W30037   8.712   5.310   3.684 -0.0966  0.1896 -0.2831
12514W        W30038  14.320   1.513   4.493  0.1590  0.0182  0.0903
12515W        W30039  13.634   6.633  16.644  0.1103 -0.0603  0.0831
12516W        W30040   8.676   1.937   2.370  0.0296  0.0730  0.0802
12517W        W30041  11.825   6.410   4.689 -0.1340 -0.0700 -0.1938
12518W        W30042   4.820  15.453  15.377  0.2038 -0.0181 -0.0998
12519W        W30043  15.624  12.819  14.912 -0.0353 -0.0950  0.0933
12520W        W30044  13.799   4.659  15.611  0.2468 -0.0763 -0.1998
12521W        W30045   1.746   9.624  17.419 -0.2160  0.3300  0.0844
12522W        W30046   1.477  16.412   2.077  0.2605  0.0049 -0.1239
12523W        W30047   9.733   7.587  15.003 -0.2763 -0.0004  0.1043
12524W        W30048   6.353   9.797  12.034  0.1239 -0.2850 -0.0090
12525W        W30049  11.453  11.947  13.832  0.1369 -0.1538 -0.1725
12526W        W30050  15.919   2.785   3.238 -0.1450 -0.1696  0.4634
12527W        W30051  16.701   6.990   1.074 -0.1415  0.3910  0.2941
12528W        W30052  10.577   3.143  13.132 -0.2162  0.1927  0.1595
12529W        W30053   5.431   2.949   5.439  0.1726 -0.0840  0.2209
12530W        W30054  16.617  16.822   3.384 -0.1240  0.1670  0.1646
12531W        W30055   2.727  14.174  15.411  0.2585 -0.1023 -0.0921
12532W        W30056  12.443   1.868   1.760 -0.0773 -0.1546 -0.1121
12533W        W30057   2.916  12.458  14.191 -0.2152  0.0397 -0.2364
12534W        W30058   8.046  12.143  16.409  0.1523 -0.1687 -0.1606
12535W        W30059  12.792  10.146   3.040  0.0037 -0.3450 -0.0153
12536W        W30060  11.180  15.122  11.117  0.0561  0.1019  0.0135
12537W        W30061  16.807  15.140   4.411 -0.1993 -0.1172  0.0621
12538W        W30062  12.047   4.155  12.295  0.0144  0.1106  0.2820
12539W        W30063   9.984  10.118   0.110 -0.2481 -0.0217  0.0272
12540W        W30064   3.142   4.343   4.641  0.2843  0.1498 -0.0008
12541W        W30065  11.822  14.470   0.017  0.3438 -0.0587  0.0811
12542W        W30066   6.698   8.112  15.916 -0.1123  0.0746  0.0735
12543W        W30067   1.078   3.430  11.431 -0.3062  0.1384 -0.2672
12544W        W30068   9.443   3.279  12.845  0.1467  0.0163  0.1855
12545W        W30069   3.738  10.092  16.576 -0.0171  0.1217 -0.1861
12546W        W30070  12.871   5.202   3.070  0.3297  0.0458 -0.1763
12547W        W30071   2.948  15.721   5.323 -0.1790  0.1587 -0.0449
12548W        W30072   8.695  10.259   2.898  0.0650  0.0738 -0.2321
12549W        W30073  10.199   7.347   0.522  0.2797 -0.0195  0.1117
12550W        W30074  13.892   5.183   5.675 -0.1558  0.1824  0.0248
12551W        W30075   3.434   2.183  17.504  0.0022 -0.1697 -0.0474
12552W        W30076  15.093  12.650   4.588 -0.2544  0.1547 -0.0530
12553W        W30077  13.463   3.905   3.468 -0.1267  0.0914  0.0398
12554W        W30078  15.841  14.926  15.665  0.1903 -0.0074 -0.0132
12555W        W30079   2.790  11.757   4.207 -0.2346 -0.1043 -0.1680
12556W        W30080  15.344  12.759   2.413 -0.0397  0.2230 -0.1008
12557W        W30081  15.576  16.498   5.589 -0.3257  0.1686 -0.5149
12558W        W30082  14.331   5.944  16.930  0.0824 -0.2539 -0.4023
12559W        W30083  13.010  12.005  16.268 -0.1642 -0.1054  0.1599
12560W        W30084   6.936  16.313  15.261  0.0626 -0.0296 -0.0829
12561W        W30085  10.440   8.787  13.986  0.3779  0.1010 -0.1158
12562W        W30086  15.689  12.405  14.648  0.0034  0.1871 -0.0781
12563W        W30087   0.863   1.726  15.421 -0.1074  0.1355 -0.2649
12564W        W30088   5.992  16.525  15.953 -0.2954 -0.1608 -0.5956
12565W        W30089  16.556   3.404  16.249 -0.2829 -0.0223 -0.3168
12566W        W30090  16.970   8.657   0.260 -0.0151  0.0286  0.2833
12567W        W30091   9.431  10.549  17.551 -0.0261 -0.0170  0.3772
12568W        W30092  16.282   7.840  16.200  0.0463  0.0449  0.0567
12569W        W30093  13.512   8.700  15.093  0.0219 -0.1955  0.3298
12570W        W30094  15.192   0.784   2.844  0.0491 -0.1631  0.1808
12571W        W30095   7.854   7.633  17.556 -0.0402 -0.0952  0.1479
12572W        W30096   9.613  14.874  17.179 -0.1134 -0.0805  0.0065
12573W        W30097  15.830   0.512   0.572  0.0084  0.1182 -0.0694
12574W        W30098   7.580   1.499  16.851 -0.1591 -0.2897  0.1961
12575W        W30099   8.832  17.135   0.850 -0.1590  0.1178  0.3074
12576W        W30100   0.792   3.531  12.436  0.0865  0.0636 -0.1837
12577W        W30101  10.856  11.656   5.271  0.1061 -0.0344  0.1932
12578W        W30102  13.765  14.428  16.941 -0.0082 -0.0121 -0.3414
12579W        W30103   1.540  12.020   0.086  0.4083 -0.1188 -0.0038
12580W        W30104  16.749   0.255  13.142 -0.3859 -0.0886 -0.2464
12581W        W30105   3.931  11.407   2.819  0.1849  0.3400 -0.2085
12582W        W30106   8.279   2.094  13.139  0.2082 -0.2202 -0.3389
12583W        W30107   4.324  10.132  17.003  0.0502  0.2153  0.1361
12584W        W30108   9.917  12.093  15.477 -0.0303 -0.0932  0.1686
12585W        W30109   0.842   3.107  13.918 -0.1251  0.1610  0.0369
12586W        W30110   0.290  15.820   5.860  0.1098 -0.1609  0.0244
12587W        W30111   6.082  11.490  10.972  0.2985 -0.0671  0.4261
12588W        W30112  16.649   1.886  16.594 -0.0713 -0.2159  0.0883
12589W        W30113   6.051  11.710   5.283 -0.4770  0.2188 -0.3461
12590W        W30114   4.306  14.649  14.981 -0.0038  0.0216 -0.0507
12591W        W30115  12.553  13.420   2.682  0.2094  0.2818 -0.1307
12592W        W30116   4.945  11.633  13.848 -0.0817 -0.0360  0.0532
12593W        W30117  15.771  12.564   0.842  0.1093  0.1089 -0.0058
12594W        W30118   1.448   1.696   4.415 -0.0474  0.0555 -0.2189
12595W        W30119   8.880   4.473  12.874  0.0047  0.0870 -0.2345
12596W        W30120  15.990   8.854  17.328 -0.1653 -0.0916  0.1362
12597W        W30121  12.999  14.132   3.391  0.2293 -0.3453 -0.1084
12598W        W30122   3.731  16.188  17.431  0.0243  0.2284 -0.1391
12599W        W30123   2.503  11.732  13.952  0.0676 -0.0127 -0.2271
12600W        W30124  10.585  10.975   2.038  0.0538  0.2571  0.2092
12601W        W30125   7.436  13.371   3.669 -0.0064 -0.0697  0.0480
12602W        W30126  12.639   4.932   1.515  0.0311 -0.2304 -0.1962
12603W        W30127  11.415  15.986  15.957  0.1324 -0.0069 -0.0840
12604W        W30128  10.713   2.325   3.346 -0.0875  0.2502  0.2042
12605W        W30129  15.818   4.972  16.569  0.0571 -0.2167 -0.1913
12606W        W30130   7.698   3.247   2.903 -0.1607 -0.0422 -0.1872
12607W        W30131   6.556   1.678   0.100  0.2230 -0.0672 -0.0701
12608W        W30132  12.653  16.717  15.424  0.2224 -0.3942  0.1667
12609W        W30133   7.513   7.620   0.150 -0.2326 -0.4402  0.0043
12610W        W30134  17.090   2.744   5.968 -0.0171 -0.2073 -0.3282
12611W        W30135  12.568   8.386   5.173  0.1596 -0.3861  0.0414
12612W        W30136  15.302   5.863  16.469  0.0578  0.0903 -0.0587
12613W        W30137   9.724   5.432  15.902 -0.1179  0.0242  0.0733
12614W        W30138  16.716  15.272  16.786  0.2335  0.0732  0.1812
12615W        W30139   8.689   5.185   1.239 -0.1207  0.0103 -0.4058
12616W        W30140  14.493   0.949   2.633 -0.3567  0.0657  0.0852
12617W        W30141   8.799  14.226   4.385 -0.0636 -0.1847  0.0664
12618W        W30142   3.648  12.658   5.486 -0.1704  0.1525 -0.0020
12619W        W30143  12.191   4.012   5.670 -0.1464 -0.1862  0.1350
12620W        W30144  13.849   7.885  14.504  0.0259  0.3423  0.1312
12621W        W30145  16.621   5.337  16.889  0.0561  0.1500  0.1127
12622W        W30146   7.922  12.747  15.312  0.0881 -0.4386 -0.0441
12623W        W30147  16.585  10.643   4.385 -0.1354 -0.2280  0.0791
12624W        W30148   8.531  10.374   3.956 -0.0214  0.0847 -0.1724
12625W        W30149  12.812  13.414  14.189 -0.0811 -0.3343 -0.2380
12626W        W30150   2.303   7.073   2.188  0.1769  0.1476  0.0917
12627W        W30151   4.239  10.434   1.831 -0.3778  0.3044 -0.0211
12628W        W30152   7.946  11.316  15.208 -0.1267  0.0817  0.0556
12629W        W30153   0.217  10.439   1.778 -0.1656  0.0421  0.0587
12630W        W30154   0.474  16.784  13.848 -0.2753 -0.2121 -0.0384
12631W        W30155   9.435  15.317  15.289 -0.0845 -0.2742  0.1689
12632W        W30156  10.746   8.501   0.768 -0.0920 -0.1594  0.3631
12633W        W30157  10.975  14.944  12.579 -0.2678  0.3438  0.0072
12634W        W30158   7.158  10.039   4.884 -0.0671 -0.1804 -0.2709
12635W        W30159   6.940  10.868  12.845  0.0705  0.1015  0.1907
12636W        W30160   4.759   6.851   4.430  0.2208 -0.1510 -0.2108
12637W        W30161   8.398  16.784  15.897 -0.1462 -0.0397  0.1173
12638W        W30162   5.649  17.127   2.516 -0.0704 -0.0722  0.3151
12639W        W30163   1.769  12.980   3.610  0.2033 -0.1469 -0.0323
12640W        W30164   6.758   4.796  17.014  0.0823 -0.0782  0.0266
12641W        W30165   5.291   0.562   0.789 -0.1449  0.1389 -0.1235
12642W        W30166   2.597   8.225   0.863  0.0075  0.3007  0.3204
12643W        W30167   9.094   0.383  14.061 -0.0054  0.2073  0.1702
12644W        W30168   5.344  16.616   4.231 -0.4205  0.0312 -0.1780
12645W        W30169   1.945  12.683  12.676 -0.1560 -0.3297 -0.0523
12646W        W30170   5.051  15.267   2.724 -0.2865  0.1825 -0.0508
12647W        W30171   1.638   9.843  16.909  0.3195  0.3045 -0.0692
12648W        W30172   4.733  16.371   5.280 -0.2900 -0.1255  0.0235
12649W        W30173   5.054   0.084   3.185  0.2573  0.1180 -0.2635
12650W        W30174   4.619   0.956  12.153 -0.0331  0.2121 -0.0936
12651W        W30175   0.376   4.077   0.509  0.1230 -0.0488  0.1020
12652W        W30176   2.223   4.939  15.216  0.0996 -0.2603 -0.3076
12653W        W30177  13.227   0.761   1.525 -0.0232 -0.2847 -0.1452
12654W        W30178  10.744  12.613   0.417  0.0178 -0.0713 -0.2850
12655W        W30179  10.712   6.283   1.086 -0.0052 -0.0396  0.0134
12656W        W30180   2.651  16.237  16.026 -0.0982 -0.1644 -0.1951
12657W        W30181   6.065   0.127  16.364  0.0381 -0.0875 -0.3021
12658W        W30182   3.200  16.323   4.928 -0.2499  0.1530  0.2898
12659W        W30183  10.485   4.457  14.587 -0.0487  0.3087  0.2074
12660W        W30184   6.293   8.170  12.162  0.1373 -0.0611 -0.1988
12661W        W30185   0.122  14.245  13.135 -0.0549  0.1860 -0.3369
12662W        W30186   6.289  16.180  14.922 -0.2460 -0.0168  0.0215
12663W        W30187  13.739  15.003   0.710 -0.0219  0.0605  0.2478
12664W        W30188  16.193   8.619  16.847  0.1625 -0.2208  0.0292
12665W        W30189  10.294   5.223  15.287 -0.1790  0.0894 -0.0755
12666W        W30190   1.413   3.587   3.391 -0.0907  0.0214  0.0126
12667W        W30191   5.632   7.060   0.990 -0.1287  0.0959 -0.0741
12668W        W30192   9.466  13.543   4.931 -0.1086  0.1939  0.3502
12669W        W30193   7.542   7.493  15.039 -0.2324  0.1994  0.3175
12670W        W30194  12.359   5.492  13.641 -0.0498 -0.1741 -0.2067
12671W        W30195  12.628  10.912  16.492 -0.0540  0.0470 -0.2205
12672W        W30196   6.462   3.005  15.658 -0.0046 -0.3497  0.3622
12673W        W30197  15.694  13.534   3.297 -0.1150 -0.0256  0.1470
12674W        W30198   3.654   5.575   1.232  0.0321 -0.0743 -0.0011
12675W        W30199  11.183   1.712   0.700  0.1446  0.0082  0.0665
12676W        W30200   8.955  16.218   1.224  0.1724  0.2375 -0.1532
12677W        W30201   6.461   8.977   4.742 -0.1002 -0.0492  0.1159
12678W        W30202  10.025   8.596  15.793  0.1645  0.0160  0.3352
12679W        W30203   8.790   2.340   3.230 -0.3242  0.2144 -0.0718
12680W        W30204  12.589  15.319   2.466  0.0875  0.1914 -0.0884
12681W        W30205   1.785   5.153  16.510  0.0057 -0.0242 -0.0780
12682W        W30206  13.349  11.685  12.191  0.2216 -0.0988  0.0176
12683W        W30207  10.625  14.743  12.221  0.0562 -0.0019  0.1275
12684W        W30208   9.059   1.304   6.111 -0.0906  0.5658  0.2038
12685W        W30209   5.138   0.961  15.526  0.1013 -0.2288 -0.2076
12686W        W30210   4.416  14.626  16.693 -0.1369  0.0538 -0.0345
12687W        W30211   6.358   2.226  13.438 -0.0908 -0.0180  0.0667
12688W        W30212  14.121   8.326  16.938  0.1155 -0.0358  0.0105
12689W        W30213   8.156  16.354  15.759 -0.3588  0.0856 -0.2180
12690W        W30214  12.050   9.839  16.163  0.1692  0.2440  0.2382
12691W        W30215   3.697   3.126  14.353 -0.0226  0.1718  0.1172
12692W        W30216  14.290  17.043  15.234 -0.0510  0.1620 -0.1819
12693W        W30217   4.071   2.208  15.805 -0.0046 -0.2886  0.1707
12694W        W30218   3.781  11.423   1.204  0.3458  0.1062 -0.0557
12695W        W30219  16.513   7.891   5.236  0.1030 -0.2466 -0.1141
12696W        W30220   8.190   5.552   2.986 -0.1273  0.1774 -0.0767
12697W        W30221  15.299   8.960   0.414  0.0994  0.2466  0.1219
12698W        W30222  10.739  14.792   2.255  0.0706  0.0993  0.0367
12699W        W30223   4.652   3.014  14.062 -0.2086 -0.1512  0.1443
12700W        W30224  15.750  13.375  16.116  0.0218  0.3720  0.0067
12701W        W30225  10.839  15.378  16.881 -0.1347  0.0664  0.1074
12702W        W30226  12.005   4.774   2.707 -0.3030 -0.1289  0.1525
12703W        W30227  11.720  10.780  15.469  0.1033 -0.1875  0.2174
12704W        W30228   1.128   1.666   3.606 -0.3317 -0.1798  0.3452
12705W        W30229   5.047  11.793  15.492  0.2551 -0.1641 -0.1045
12706W        W30230  16.183  13.770   4.098  0.0277 -0.1627  0.0464
12707W        W30231  10.153  12.007  17.548  0.0194 -0.0977  0.1579
12708W        W30232   5.327   0.920  14.957  0.4364 -0.1249  0.0112
12709W        W30233   3.596   1.409  14.676  0.0468  0.0986 -0.1789
12710W        W30234  13.420   5.349  12.274 -0.0245 -0.1231 -0.1884
12711W        W30235   9.947   5.938  13.375 -0.0478 -0.3788 -0.0077
12712W        W30236   4.098  17.080   3.379  0.0699  0.1226 -0.0141
12713W        W30237   9.795   8.062  15.200  0.2465  0.0519 -0.0003
12714W        W30238  10.718  16.035  13.187  0.0513  0.4964 -0.1333
12715W        W30239  16.020   4.712  12.174  0.0282  0.2467 -0.1237
12716W        W30240   0.528  10.689  13.893 -0.0610 -0.0450 -0.1463
12717W        W30241   2.027   0.797   2.971 -0.1280 -0.1875 -0.2255
12718W        W30242  14.543   7.297  15.402  0.2583 -0.2996 -0.2475
12719W        W30243  13.466   7.960   1.165 -0.1145 -0.0442  0.0602
12720W        W30244   0.903   8.078   2.514  0.1322 -0.0117 -0.0626
12721W        W30245  11.012  15.335   0.347 -0.1779  0.1949 -0.0911
12722W        W30246  11.597  10.601   3.701 -0.1847 -0.1102 -0.2748
12723W        W30247   6.066   2.620   5.036  0.0702 -0.0380  0.1094
12724W        W30248   6.587  10.009   3.810 -0.0118 -0.1516  0.0552
12725W        W30249   5.347  15.712   5.672 -0.1448  0.2556 -0.0584
12726W        W30250  15.592   3.794  14.707 -0.1172  0.1085  0.0540
12727W        W30251  12.882   3.158  17.668  0.0070  0.2214  0.2716
12728W        W30252  16.069   9.222  16.269 -0.0166 -0.1257  0.0166
12729W        W30253   0.484   3.713   4.273  0.0284  0.1709 -0.1948
12730W        W30254  12.463   1.258  11.887  0.1912 -0.0443 -0.1063
12731W        W30255  10.237   9.731  14.688 -0.0498 -0.2399 -0.3281
12732W        W30256  15.486  13.693  15.748 -0.2173 -0.5137 -0.2891
12733W        W30257  15.683  13.666   3.920 -0.0279  0.2534 -0.2806
12734W        W30258  16.367   5.548  17.276 -0.0741  0.0482  0.0053
12735W        W30259  15.498   3.156  17.160 -0.3091 -0.1432  0.3427
12736W        W30260   5.078   6.679  14.231  0.0212 -0.0649 -0.2543
12737W        W30261   5.934   1.638  17.344  0.0078  0.2495 -0.0859
12738W        W30262  14.980  17.036  16.013 -0.0678 -0.1689 -0.1923
12739W        W30263   9.448   2.999  17.730  0.0801 -0.4394 -0.0238
12740W        W30264   8.323   8.691  12.528 -0.0367  0.1451  0.2311
12741W        W30265  14.713  14.782  13.183  0.0321 -0.0172  0.0070
12742W        W30266   1.820  10.350  12.633  0.0753 -0.2374  0.0327
12743W        W30267  13.820   9.396   0.848 -0.0240 -0.1915  0.2990
12744W        W30268   7.480   6.001  17.670  0.0677 -0.0164  0.0012
12745W        W30269   3.847  15.386  14.038 -0.0899 -0.1065  0.3978
12746W        W30270   2.881   1.134  15.978  0.1319  0.0282 -0.0407
12747W        W30271   8.759  14.459   2.051 -0.0554 -0.0568  0.0842
12748W        W30272  12.751   4.211  12.520 -0.2637  0.1236 -0.4504
12749W        W30273   7.458   1.786  15.053  0.0889 -0.0229 -0.0498
12750W        W30274  12.189   9.552   4.812  0.0856  0.2491 -0.3013
12751W        W30275  11.581   7.481  15.259  0.1000  0.1380  0.1170
12752W        W30276   6.576   8.475   4.196  0.0409  0.3753  0.2323
12753W        W30277  13.745   4.948  12.937  0.0635 -0.5436 -0.2694
12754W        W30278   2.069   7.109   5.048 -0.0391  0.0616 -0.0356
12755W        W30279  13.247  16.525  13.964  0.1547  0.0485 -0.2669
12756W        W30280   1.157   1.192  12.689 -0.3275 -0.2633  0.1473
12757W        W30281  12.294   0.529  13.752  0.0506 -0.0988  0.0480
12758W        W30282   9.518   7.157   5.237  0.2159  0.0103 -0.0269
12759W        W30283  15.673   6.071   5.191  0.3052  0.3410 -0.1966
12760W        W30284  16.177   8.896   6.041  0.1313 -0.2368  0.0553
12761W        W30285   5.115   3.014   3.259  0.1708 -0.0455 -0.1559
12762W        W30286   1.773  10.453   3.384  0.3491  0.0742  0.0246
12763W        W30287  11.334   7.254  12.594 -0.0740  0.0699 -0.1154
12764W        W30288   3.455  11.111   0.300 -0.1276  0.1922  0.2283
12765W        W30289  14.537  12.789  15.438 -0.0244 -0.2760 -0.1825
12766W        W30290   0.997  10.224   2.840  0.1124 -0.0483  0.0683
12767W        W30291   1.707   1.824  12.734 -0.1176  0.2302 -0.2064
12768W        W30292  17.094  15.614  16.572  0.1911 -0.0367 -0.0853
12769W        W30293  13.965  11.162  16.271  0.1104 -0.0209 -0.0537
12770W        W30294   5.803  14.470   3.866 -0.1175 -0.3359 -0.0715
12771W        W30295   7.797  14.927  15.454  0.1850  0.0894  0.2371
12772W        W30296   7.139   6.298  12.063  0.0882  0.1249 -0.2331
12773W        W30297   5.678   6.027   3.056  0.1199  0.1732  0.3988
12774W        W30298  11.010  15.941  15.582  0.1014  0.2972  0.1913
12775W        W30299   7.440   2.019   2.803  0.0027  0.1162 -0.1931
12776W        W30300  15.326  15.265   3.443 -0.2032  0.0267 -0.0028
12777W        W30301   1.569  15.908   2.193  0.2570 -0.0366  0.0928
12778W        W30302   3.749  14.943  12.394 -0.1942  0.2561  0.0690
12779W        W30303   6.613  16.870   5.299 -0.2073  0.1016 -0.0747
12780W        W30304   5.150  11.345  16.766  0.1521 -0.1817  0.2223
12781W        W30305  12.645   0.708   3.988 -0.2689 -0.0730 -0.1559
12782W        W30306  12.095  12.190   1.845 -0.0526 -0.0494 -0.0704
12783W        W30307  13.246  13.442  13.114  0.1521  0.0200 -0.0532
12784W        W30308   5.845   4.615  17.343 -0.0020 -0.0785  0.1645
12785W        W30309   7.501   5.218  17.660 -0.1166 -0.2533  0.1374
12786W        W30310   4.010   5.758  16.409  0.3891 -0.5269 -0.1486
12787W        W30311  11.675  12.197   2.215  0.3537  0.0655  0.0270
12788W        W30312   1.968  14.126  13.546  0.1433 -0.0679  0.1216
12789W        W30313  10.026   7.759   2.929 -0.2726  0.1359 -0.1410
12790W        W30314   7.177   5.403  15.113 -0.0837  0.1930  0.1714
12791W        W30315   9.838  15.701  12.908 -0.1763 -0.0399  0.2336
12792W        W30316  12.781   5.550   4.996  0.0879 -0.0406 -0.0738
12793W        W30317  16.531   4.617  12.845  0.1600 -0.0803 -0.0319
12794W        W30318   6.332  13.109  13.154 -0.1706 -0.0088  0.0586
12795W        W30319   1.801   5.021   4.705 -0.1903 -0.0475  0.1025
12796W        W30320  10.779  14.555  16.881  0.2071  0.0178  0.1253
12797W        W30321   6.824  13.659  14.211 -0.1357  0.3700  0.0305
12798W        W30322  15.974   3.050   3.916 -0.1787  0.1846 -0.0180
12799W        W30323   9.341   5.949  15.458 -0.1704 -0.2065 -0.0416
12800W        W30324  12.217  11.190  12.924  0.2306 -0.0783  0.0876
12801W        W30325   4.032  13.080  16.645  0.1779  0.1270 -0.1608
12802W        W30326  12.065  14.928   4.043 -0.1077 -0.0837 -0.0046
12803W        W30327  13.138  17.157  12.536 -0.2121  0.2469 -0.3062
12804W        W30328   5.528  11.984   5.087  0.0148  0.2893  0.1241
12805W        W30329   0.431   5.849   1.148  0.0049  0.0414  0.1901
12806W        W30330   4.136   3.882   0.464  0.2126  0.2366 -0.0896
12807W        W30331   4.245   6.080   3.530 -0.0052 -0.3844 -0.1346
12808W        W30332   9.759  10.626  13.726 -0.0483 -0.1442  0.0033
12809W        W30333   4.897  12.956  13.304 -0.2346  0.3100  0.0526
12810W        W30334  12.642   0.182   0.706  0.1876 -0.0681  0.0317
12811W        W30335  16.524   4.574  17.317  0.3202 -0.0414  0.0947
12812W        W30336   0.561  14.868  11.724  0.1229  0.2144  0.5115
12813W        W30337   3.301  16.812  14.833 -0.0964  0.1779  0.0381
12814W        W30338  12.684   2.959  17.154 -0.0173  0.0924 -0.0263
12815W        W30339   1.899   1.701   5.917 -0.3049 -0.2774 -0.0499
12816W        W30340  16.971   3.646   4.903  0.0821 -0.2053  0.0855
12817W        W30341   1.975   7.412  14.780 -0.1197 -0.0131  0.0792
12818W        W30342   2.089  16.493   4.532 -0.0589  0.0905  0.1601
12819W        W30343  17.107   1.364   2.106 -0.0812  0.1844 -0.0683
12820W        W30344   7.670  13.803  14.241  0.1353 -0.0141 -0.1767
12821W        W30345   0.544   1.211  17.290  0.1280 -0.1065  0.0579
12822W        W30346  13.199   2.813   2.590 -0.2055 -0.5526  0.1398
12823W        W30347  11.142   9.189   0.383 -0.0096 -0.1874 -0.0811
12824W        W30348   5.755  13.539  12.760 -0.1181  0.0761  0.0953
12825W        W30349  11.205  15.376  15.077  0.2176  0.0111 -0.0875
12826W        W30350  12.799   8.377   5.746 -0.0777 -0.0796  0.0249
12827W        W30351   3.774   9.733   1.508 -0.2470 -0.0223 -0.0667
12828W        W30352  11.725  14.920   3.616  0.1151  0.0533  0.0559
12829W        W30353  15.083   3.491  15.159  0.0904 -0.1688 -0.1129
12830W        W30354  13.578   4.209   1.323 -0.1910 -0.0589  0.0512
12831W        W30355  15.105  12.500   0.675  0.1229  0.0409 -0.2274
12832W        W30356   2.168   6.109  16.814 -0.1233  0.0797 -0.0939
12833W        W30357   5.944  14.553   2.378 -0.2263 -0.1373  0.0120
12834W        W30358   5.315   8.677  16.706  0.1811 -0.0666  0.1304
12835W        W30359   6.405   5.475  14.332 -0.2120 -0.0789  0.0356
12836W        W30360   7.756  13.716   3.470  0.1274 -0.1905 -0.1931
12837W        W30361  15.011   1.100  14.628 -0.0336 -0.0035  0.1940
12838W        W30362  10.811   3.103   2.823  0.0285  0.1534  0.2145
12839W        W30363  15.940  12.869   2.718  0.0698 -0.2114  0.1092
12840W        W30364   6.007  13.384  14.824  0.0275  0.0273 -0.0964
12841W        W30365   0.197   9.225   5.912 -0.3726 -0.1732 -0.0258
12842W        W30366   7.081  15.940   4.570  0.0918 -0.1246  0.1574
12843W        W30367  10.131  10.397   3.643 -0.1757 -0.0936 -0.0659
12844W        W30368   1.694   8.640   2.842 -0.1755 -0.2338 -0.2187
12845W        W30369  17.021   4.825  13.431 -0.2980 -0.0405  0.1801
12846W        W30370  16.496   5.787  15.945 -0.2673 -0.0413  0.0521
12847W        W30371   7.033   6.709  17.346 -0.2142 -0.0675 -0.1226
12848W        W30372  14.625   7.706  13.677 -0.4049 -0.0086  0.0253
12849W        W30373   3.071   7.346   2.737  0.1382  0.2207  0.1227
12850W        W30374   5.200  16.429   5.056 -0.1233  0.0175 -0.1444
12851W        W30375   4.548  15.439  12.740 -0.1356 -0.0249 -0.0912
12852W        W30376  16.761  12.614  12.797 -0.0361  0.0326 -0.0832
12853W        W30377   8.633   1.852   3.176  0.1880  0.1189 -0.1292
12854W        W30378  15.319   1.627   4.780 -0.2277 -0.2588 -0.0071
12855W        W30379   4.921   5.512   0.515 -0.2207 -0.1221 -0.1578
12856W        W30380   2.493  14.378   1.586  0.0318 -0.2588 -0.1072
12857W        W30381   0.269  15.025   0.131  0.0268  0.2692 -0.3366
12858W        W30382  12.199   9.543  13.663  0.1611  0.1179 -0.0456
12859W        W30383   9.990   9.904   2.887 -0.1834  0.1650 -0.1143
12860W        W30384   5.534  16.033  13.149 -0.0768  0.0733 -0.1536
12861W        W30385   3.004   5.021  17.200 -0.1239 -0.1103 -0.0044
12862W        W30386  13.650   9.935  14.376  0.2091 -0.0682 -0.0510
12863W        W30387  11.663  17.039  17.000  0.0692 -0.0393 -0.1998
12864W        W30388  14.186   8.272   2.509 -0.1352  0.0363  0.0924
12865W        W30389  13.366   0.240  15.887  0.1453  0.3366 -0.0940
12866W        W30390   9.406   2.302  13.023 -0.0845 -0.1838  0.1895
12867W        W30391   1.815   0.356   2.989 -0.2600 -0.1409  0.1849
12868W        W30392  11.987   7.596  17.570  0.0495 -0.0797 -0.0114
12869W        W30393   6.194   8.001  13.047 -0.0830 -0.0339 -0.0208
12870W        W30394  12.103  16.586  17.532  0.1910 -0.0707  0.0638
12871W        W30395  11.808   3.326  14.466 -0.0826 -0.0492 -0.0775
12872W        W30396   5.265  13.516   2.422 -0.0824  0.0067 -0.0890
12873W        W30397  14.033  10.161  12.757  0.0954 -0.1410  0.1447
12874W        W30398  14.284  16.170  13.679  0.0368  0.1022 -0.3593
12875W        W30399   0.196   2.472  16.647  0.0871  0.2296 -0.2472
12876W        W30400   5.606  11.339  14.364  0.2599  0.2727 -0.0339
12877W        W30401   9.766  11.117  15.623  0.1112  0.0973 -0.3919
12878W        W30402  16.773   1.170   4.207 -0.0317  0.3113 -0.0235
12879W        W30403  16.329   2.272   3.332  0.0977  0.0644  0.1648
12880W        W30404   1.310  16.580   0.747 -0.1850 -0.0435  0.0716
12881W        W30405  13.019   3.212  13.174  0.0680  0.1267  0.2127
12882W        W30406   0.333   4.678   3.499  0.0690 -0.2710 -0.0931
12883W        W30407   5.462  14.089   4.184 -0.0425 -0.0009  0.1459
12884W        W30408   3.750   5.815   5.427  0.1562  0.0188 -0.2345
12885W        W30409  15.147  16.723   2.398 -0.1586 -0.1708 -0.1044
12886W        W30410  11.821   8.172   1.556  0.1294 -0.2973 -0.2503
12887W        W30411   4.656   9.438  14.413  0.0999 -0.0342 -0.0275
12888W        W30412  16.791   8.599  14.898 -0.3197  0.3278 -0.0184
12889W        W30413   8.362  11.543  15.122  0.1270 -0.0764 -0.2280
12890W        W30414   6.586  16.460   1.707  0.0282  0.0521 -0.0297
12891W        W30415   4.865   5.896  14.209  0.0566 -0.1104 -0.1203
12892W        W30416   1.646   7.150   1.113 -0.1611 -0.1154 -0.1429
12893W        W30417  15.091   7.683  13.909 -0.0634 -0.1262  0.0717
12894W        W30418   2.607  14.402   2.096 -0.0473 -0.1372 -0.3793
12895W        W30419   7.473   7.358  17.495 -0.0560  0.3244  0.1302
12896W        W30420  11.845   7.261  15.886  0.2281  0.0416 -0.2843
12897W        W30421   9.212   6.912   1.464 -0.0571  0.3385 -0.0700
12898W        W30422  10.342  10.749  14.379 -0.2424  0.1892 -0.2525
12899W        W30423  14.064  10.480   4.328  0.2904 -0.0978  0.0784
12900W        W30424   6.397  10.434   0.071  0.1652 -0.1775 -0.2277
12901W        W30425   4.648  14.603   0.638  0.1244  0.0194  0.1081
12902W        W30426   7.507  10.292  13.457 -0.4104  0.0149  0.0123
12903W        W30427  12.537   9.178   4.756 -0.0105  0.0826 -0.0665
12904W        W30428   0.471   8.258   3.228 -0.0500 -0.0447  0.0909
12905W        W30429  10.776  12.704   1.444  0.0243  0.1144  0.1251
12906W        W30430   4.992   8.129  17.016  0.1529 -0.0834  0.0865
12907W        W30431   9.524   2.435  12.491 -0.1063  0.0883 -0.0026
12908W        W30432  16.595  16.751   2.908 -0.4152  0.1399  0.1287
12909W        W30433   7.611  16.099   4.670  0.0031 -0.2147  0.0444
12910W        W30434  12.752   1.116   0.571 -0.1404 -0.3128 -0.0315
12911W        W30435   1.042   1.409  13.699  0.3032 -0.0198 -0.0938
12912W        W30436   3.015   2.546   5.087 -0.3302  0.0743 -0.1186
12913W        W30437   6.986   3.921  16.592 -0.1691  0.1688 -0.3074
12914W        W30438   1.676  13.910   1.913  0.2673 -0.0662  0.0099
12915W        W30439   8.651   4.326  13.318  0.0592 -0.2603  0.2751
12916W        W30440  16.613  12.135  14.685  0.0429  0.0802 -0.3453
12917W        W30441  16.640   8.342   0.989 -0.3475  0.1426  0.1691
12918W        W30442   0.175   1.196   3.329  0.0862 -0.0946  0.1892
12919W        W30443   2.487  14.954   2.589  0.0750 -0.4755  0.1823
12920W        W30444   4.244   5.682   2.958  0.1206  0.1385 -0.0321
12921W        W30445   1.021   1.738   2.748 -0.0558 -0.0435  0.0904
12922W        W30446   4.213   5.265  17.292  0.1033 -0.1621 -0.0031
12923W        W30447   6.384   0.074   5.560  0.1075 -0.1437 -0.1344
12924W        W30448  14.306  12.031   1.912  0.0155  0.0266  0.0827
12925W        W30449  15.877   3.748  16.892  0.2482  0.0830  0.0422
12926W        W30450  12.607   1.368   0.072  0.1544 -0.1962  0.2692
12927W        W30451   1.434  15.476   0.158  0.0401 -0.0548 -0.2307
12928W        W30452   0.711   4.789  14.972  0.0732  0.0980  0.0294
12929W        W30453   9.834   8.023  13.702 -0.2086 -0.3189 -0.2107
12930W        W30454  12.774   9.304   2.514  0.0980 -0.2551 -0.1825
12931W        W30455  12.513  15.345   4.853  0.1201 -0.0633  0.1217
12932W        W30456   6.891   0.112   4.317  0.1882 -0.1084  0.0394
12933W        W30457  15.739   9.124   2.543 -0.0610  0.0095 -0.0959
12934W        W30458   2.047   8.146  15.923  0.2020 -0.0104 -0.2107
12935W        W30459   9.194   8.037  14.383 -0.3001  0.2129  0.0722
12936W        W30460   5.682   7.073  14.653 -0.0780 -0.0799 -0.1168
12937W        W30461  17.117   2.045  13.858 -0.0411 -0.0820 -0.0275
12938W        W30462   4.869  13.168   5.106 -0.0629 -0.0889 -0.1769
12939W        W30463   9.104  14.991  15.153  0.1816  0.1110 -0.0781
12940W        W30464  16.734   8.101   4.746  0.3440 -0.0359  0.1258
12941W        W30465   6.617  13.238   2.013  0.1749  0.0665  0.3518
12942W        W30466  14.002  16.526  11.735  0.0973  0.0534  0.0409
12943W        W30467   9.607   2.367  15.464 -0.0969  0.0953  0.3648
12944W        W30468  11.718  16.929  16.185 -0.1779 -0.0613  0.1992
12945W        W30469   3.927  16.778   4.730 -0.1353  0.0790  0.2161
12946W        W30470  15.922   8.158   2.866 -0.1748 -0.1954 -0.1642
12947W        W30471   3.684  12.329  12.224 -0.1329  0.1798  0.1618
12948W        W30472  16.846   4.501   5.843 -0.0590  0.1221 -0.3232
12949W        W30473  16.739  16.718  17.566 -0.0397 -0.0809  0.0075
12950W        W30474  15.375  10.205   2.740  0.1886  0.1159  0.0252
12951W        W30475  11.293   5.072   1.737 -0.1384 -0.0019  0.2317
12952W        W30476  12.231   8.071   4.878 -0.2225 -0.0694 -0.3420
12953W        W30477   1.790  17.021   0.882  0.3661 -0.2456 -0.1329
12954W        W30478   4.473   9.535   0.138  0.0535  0.3313  0.0465
12955W        W30479   4.617  16.386   2.923 -0.3540 -0.2849 -0.3092
12956W        W30480   3.466  13.511   1.781 -0.0262 -0.2556 -0.0854
12957W        W30481   2.179  14.770   1.419  0.1665  0.0376  0.1037
12958W        W30482   4.662   2.747  16.794 -0.0756  0.0876  0.3905
12959W        W30483   1.616   5.291  13.214 -0.1170  0.2555 -0.1132
12960W        W30484  16.242   0.038   4.579 -0.1093  0.0374  0.2138
12961W        W30485  10.763   1.041   1.970  0.0768 -0.3183 -0.0234
12962W        W30486   8.088   8.199   1.330 -0.0457  0.1127 -0.0462
12963W        W30487  15.220  16.327   3.674 -0.0384 -0.0854 -0.2301
12964W        W30488   6.705   1.251  12.180 -0.1091  0.2501 -0.0683
12965W        W30489   2.640   3.751   4.694  0.1302  0.2637 -0.2042
12966W        W30490  12.508  11.950  12.827  0.2189 -0.1936  0.0650
12967W        W30491   2.580  12.178  13.810 -0.0313  0.0047 -0.0849
12968W        W30492   7.860  15.434  12.122  0.3830  0.1449 -0.0906
12969W        W30493  10.659   1.590   3.082 -0.2020 -0.1688 -0.0212
12970W        W30494   9.401  15.999   4.015  0.2127 -0.1151  0.1507
12971W        W30495  10.233   8.213   2.477 -0.1175  0.2364  0.2555
12972W        W30496   7.059   0.937  15.190 -0.2501  0.0074  0.0464
12973W        W30497  16.816  13.069  17.158  0.0419 -0.3315  0.1906
12974W        W30498   3.629   5.832  16.115 -0.1873  0.1038 -0.0653
12975W        W30499  13.054   5.243  14.508  0.1183 -0.2210  0.0503
12976W        W30500   2.970   7.469   1.539 -0.1503  0.0762  0.0148
12977W        W30501  14.623   5.897  11.914  0.0142 -0.0867 -0.0398
12978W        W30502   2.460   9.926  13.112  0.1698 -0.4651 -0.2696
12979W        W30503  11.103   2.613   2.153 -0.2234 -0.0640 -0.2241
12980W        W30504   6.692  12.221  16.227 -0.1695  0.0490 -0.0088
12981W        W30505  12.171  10.314  12.255  0.2510 -0.0379  0.3356
12982W        W30506  10.679   3.186   4.918 -0.0577  0.2079  0.2821
12983W        W30507  16.550   1.935  15.166  0.0090 -0.2352  0.2929
12984W        W30508   3.082  15.731   0.805  0.0772  0.1007 -0.2140
12985W        W30509  16.520   4.843  16.833 -0.0004 -0.0121 -0.0549
12986W        W30510   3.746   1.873  13.036 -0.0242  0.0601  0.2479
12987W        W30511  14.394   4.004   1.894 -0.5351  0.0843 -0.4288
12988W        W30512   8.485   0.170  13.105  0.0087  0.2554  0.0753
12989W        W30513   0.560   8.756  14.722  0.0047 -0.0559  0.0759
12990W        W30514  15.194  15.741  16.191 -0.1570  0.3024 -0.1596
12991W        W30515   5.271   9.422  12.686  0.3764  0.0722 -0.0351
12992W        W30516  16.771  13.692  15.126  0.2226  0.0391 -0.0123
12993W        W30517   9.225  14.274  14.748 -0.0032 -0.1010 -0.4173
12994W        W30518  17.095  14.877  12.575 -0.6733 -0.0063  0.1771
12995W        W30519   3.490   2.488   3.773  0.0320  0.1906 -0.2217
12996W        W30520   7.833   3.520   0.737 -0.0509 -0.1651  0.1908
12997W        W30521   8.509   2.006   3.667  0.1548  0.1832 -0.0550
12998W        W30522  16.348  13.158   4.629  0.0644 -0.0738  0.3658
12999W        W30523  12.114   6.068  17.011 -0.0741 -0.1793 -0.2755
13000W        W30524  16.076   2.625   5.332 -0.0411  0.1804 -0.0254
13001W        W30525   9.889   9.633  13.846  0.2635 -0.0914  0.0782
13002W        W30526   6.458  11.065  13.944 -0.1615 -0.1820  0.0101
13003W        W30527  10.568   8.140  11.810 -0.2498 -0.0707  0.1196
13004W        W30528   8.478   4.751   5.192 -0.1507  0.0364  0.2616
13005W        W30529  10.913   0.467   2.552  0.0915  0.0872  0.0146
13006W        W30530  11.663   7.237  14.774  0.3022 -0.2275  0.1072
13007W        W30531   4.465  14.542  12.721  0.0012 -0.4875  0.3616
13008W        W30532   5.822  12.153   3.516  0.2016 -0.0470  0.1900
13009W        W30533  11.275   5.490   5.601  0.0639  0.1967 -0.1630
13010W        W30534  16.950  12.340   0.296 -0.3392 -0.0089 -0.0441
13011W        W30535   8.269  12.208  12.537 -0.1074 -0.1930  0.3283
13012W        W30536  14.406   8.753   0.776 -0.0933  0.0188 -0.3228
13013W        W30537   3.321   8.937  15.594 -0.1872  0.0321  0.3213
13014W        W30538  12.901  14.434   3.799  0.1361 -0.0657  0.0844
13015W        W30539   8.675  12.143  17.073 -0.0658 -0.1535 -0.0031
13016W        W30540   5.452   3.689  11.797  0.2228  0.2751  0.1001
13017W        W30541  16.149   6.826   2.521  0.1565  0.0554  0.0340
13018W        W30542   8.802   3.768   4.442 -0.0451 -0.1545 -0.3652
13019W        W30543   4.025   5.220  12.556 -0.2208 -0.4410  0.0976
13020W        W30544  16.037  13.316   1.561 -0.0862  0.0682  0.0023
13021W        W30545  11.468  11.271  14.301  0.3037 -0.1665 -0.2344
13022W        W30546   5.123   4.048  14.302  0.0796  0.1554  0.1926
13023W        W30547   1.339  11.048  16.444 -0.0388  0.0204  0.1303
13024W        W30548   8.731  16.718   3.993  0.2513 -0.0641  0.0340
13025W        W30549   3.024  11.464  12.675 -0.1360  0.1301 -0.3281
13026W        W30550   7.197   8.594   2.034 -0.0024  0.1018  0.3171
13027W        W30551   6.571   9.695   5.197 -0.0524  0.0056  0.1076
13028W        W30552  16.932  15.737  14.943 -0.0618 -0.0094  0.1026
13029W        W30553  13.691   4.945   3.403 -0.0012 -0.0043 -0.1113
13030W        W30554   9.632   8.992   5.014  0.0927 -0.0217 -0.1394
13031W        W30555   0.933   7.655   1.223  0.1297  0.1170 -0.1938
13032W        W30556  11.568   4.428  15.903  0.1599 -0.1802  0.0766
13033W        W30557  12.509   9.528  12.785 -0.2656 -0.0426 -0.2113
13034W        W30558   7.954  16.165   5.495 -0.1091  0.0409  0.0564
13035W        W30559   4.509   0.341  12.906 -0.3165 -0.2263 -0.0052
13036W        W30560  14.686   9.030   0.156 -0.1148  0.1902 -0.0796
13037W        W30561  12.141  11.802  17.398  0.1247  0.0405 -0.0625
13038W        W30562   9.282   3.156  15.752 -0.0157 -0.0670  0.0787
13039W        W30563   1.379  14.307  15.472  0.2406 -0.1155  0.0607
13040W        W30564   0.647  11.980   2.573  0.0523 -0.0716 -0.1889
13041W        W30565   9.907  10.746   2.682  0.1453 -0.1372  0.1027
13042W        W30566  13.159  17.145   4.730  0.4407 -0.0426 -0.0679
13043W        W30567   3.640   2.123  17.039  0.2072 -0.0959  0.0729
13044W        W30568   6.599   2.800  12.856 -0.0910  0.0224 -0.0895
13045W        W30569   7.454  15.797   4.270  0.0602 -0.1193  0.1042
13046W        W30570   2.279   9.779  14.912  0.1806 -0.0920  0.1299
13047W        W30571  10.330  13.047  12.483  0.1081 -0.2886  0.0106
13048W        W30572   5.458  11.257   2.297 -0.0167  0.1679 -0.4951
13049W        W30573  13.239   9.712  14.093  0.0903 -0.0146  0.1072
13050W        W30574   0.149   9.864   1.759  0.1911 -0.0367 -0.3034
13051W        W30575   6.786   0.231  13.418  0.1212 -0.1732 -0.0964
13052W        W30576   1.342   1.635  12.266 -0.6280  0.2327 -0.1048
13053W        W30577   3.131   0.568  15.217 -0.2546  0.4141 -0.0379
13054W        W30578   3.111   8.819   2.177 -0.2800 -0.0020  0.2920
13055W        W30579  14.812   8.509   0.990 -0.0237  0.2837  0.0954
13056W        W30580   6.795   2.921   3.777 -0.2041  0.0355  0.0223
13057W        W30581   8.909  14.269  15.793  0.1080 -0.2663  0.0260
13058W        W30582   6.352  16.403  17.242  0.0159 -0.0088  0.1430
13059W        W30583  15.369   6.943   4.301  0.1293 -0.0681 -0.1390
13060W        W30584   2.299   4.787   2.883 -0.1528 -0.3723  0.1048
13061W        W30585  16.314  15.605   2.968  0.0173 -0.0119  0.0067
13062W        W30586   1.775  16.622   0.592  0.0710 -0.3640  0.0170
13063W        W30587   0.654   7.687   6.548 -0.0226  0.0287  0.1114
13064W        W30588   5.858   0.621  16.302  0.1184  0.3044  0.0461
13065W        W30589   9.138  15.464  14.903 -0.1413  0.2701 -0.0465
13066W        W30590  14.310  16.548  16.175  0.1067 -0.1966  0.0724
13067W        W30591  15.414  16.945  17.657 -0.0741 -0.2525  0.2705
13068W        W30592   6.780   2.542  17.331 -0.0538 -0.0013 -0.0884
13069W        W30593   1.881   7.558  16.526  0.1636 -0.0115 -0.3589
13070W        W30594  10.623   8.993  12.895 -0.0021 -0.0193  0.2136
13071W        W30595  11.697   6.899  12.694 -0.1974  0.3963 -0.1425
13072W        W30596  15.527   6.482  17.184  0.2302 -0.0280 -0.3645
13073W        W30597   2.298   3.965   0.063 -0.0885  0.0204 -0.0734
13074W        W30598   1.264  10.698  14.837  0.2610 -0.0697  0.0405
13075W        W30599  16.528   9.274   1.877 -0.3338  0.3111  0.1878
13076W        W30600  13.676   4.136  12.441  0.2114 -0.1402 -0.0580
13077W        W30601   6.051  14.962   4.848  0.1948  0.0732  0.1118
13078W        W30602   0.724  13.818  12.949 -0.2251 -0.3885  0.2401
13079W        W30603   3.885   5.597   3.423  0.1134 -0.2059 -0.0392
13080W        W30604  14.086  13.865   1.673 -0.0343  0.2186 -0.0082
13081W        W30605  11.890  10.851   1.515  0.1482 -0.2142  0.2183
13082W        W30606  10.340   4.432  15.100 -0.4072 -0.1447  0.0648
13083W        W30607  11.526   4.502   3.914  0.1731 -0.0456 -0.1682
13084W        W30608  15.463  10.106   3.804 -0.2477  0.0339 -0.0813
13085W        W30609   1.781  17.030  14.329  0.2358 -0.0213 -0.2988
13086W        W30610   2.659  10.523   5.403  0.0049 -0.0122 -0.1308
13087W        W30611  14.416   0.546   3.426 -0.2788  0.0630  0.1826
13088W        W30612   8.204  10.673  12.219  0.5095 -0.1798  0.0128
13089W        W30613  16.876  16.817  12.180 -0.0026 -0.1480 -0.0394
13090W        W30614   6.998   7.077   2.179  0.3301 -0.0188  0.0753
13091W        W30615   3.984   8.128   5.360 -0.1322 -0.1499 -0.0987
13092W        W30616  10.806   7.165   2.769 -0.2426 -0.1094  0.1894
13093W        W30617   4.532  14.676  16.033 -0.0295 -0.1259  0.0510
13094W        W30618  14.133  13.157  14.058  0.0706 -0.0348  0.3618
13095W        W30619   3.068   1.246   0.778  0.0844  0.2338  0.0290
13096W        W30620   7.970  15.558   2.979  0.0230 -0.2083 -0.0062
13097W        W30621   7.788   5.152  13.722  0.0539 -0.1351  0.1530
13098W        W30622   4.306   5.120  13.775  0.1022 -0.1125  0.0662
13099W        W30623  14.922   1.428   0.230  0.0066 -0.0612 -0.1385
13100W        W30624  16.691  10.725  16.943 -0.2777  0.2337 -0.3559
13101W        W30625  14.201   5.494  16.200 -0.0414  0.0575 -0.2270
13102W        W30626   6.738   4.422   0.751  0.0424 -0.2175  0.3937
13103W        W30627   1.770  14.539  17.563  0.1118 -0.0873 -0.2036
13104W        W30628  11.187   0.415  14.038 -0.0326  0.0847 -0.0242
13105W        W30629  14.670   8.494  16.973  0.1178  0.0392  0.0247
13106W        W30630   1.973   8.843   5.397  0.1577 -0.2776 -0.1110
13107W        W30631   3.514   2.504   1.552  0.0371 -0.1097 -0.0064
13108W        W30632   9.285   3.694   3.937 -0.2935 -0.3075 -0.0577
13109W        W30633  11.195   9.003   3.934  0.0131  0.0513 -0.0457
13110W        W30634   9.928   1.205   4.257 -0.0253  0.1037  0.0942
13111W        W30635  13.170   5.596  16.300  0.0297 -0.0534 -0.0508
13112W        W30636  13.181   8.252   2.853 -0.1325  0.1376  0.0207
13113W        W30637   2.676   8.191  12.226 -0.2786  0.0126  0.1127
13114W        W30638   4.658   3.401  17.458 -0.1571  0.2055  0.0774
13115W        W30639   2.139   3.133   1.792 -0.0025 -0.0884 -0.0658
13116W        W30640   0.552   8.608   4.733 -0.0507 -0.1129  0.0101
13117W        W30641   1.773  10.437   2.864 -0.0290  0.0284  0.0800
13118W        W30642  15.998   4.074  14.638 -0.2200  0.3431 -0.2086
13119W        W30643   4.246   0.337   5.000 -0.1179 -0.0337  0.2866
13120W        W30644  12.348   2.578   0.767 -0.0146  0.1081 -0.1824
13121W        W30645   9.021  13.912  14.478  0.1952 -0.1025 -0.1637
13122W        W30646   8.240  13.257   1.174 -0.2547  0.0473 -0.0075
13123W        W30647   0.684   5.356   5.866  0.1997  0.2654  0.1064
13124W        W30648   7.331   3.988   2.259  0.1284  0.0640  0.1043
13125W        W30649  10.981   0.934   4.673 -0.0817  0.0537  0.0826
13126W        W30650  17.018  10.394   6.269 -0.0354  0.1619  0.1251
13127W        W30651   8.966  15.223   1.508  0.1384 -0.2781  0.3977
13128W        W30652   8.531   4.599  14.283  0.3425  0.0701  0.0210
13129W        W30653   2.905   9.550  12.321  0.0365 -0.0044  0.0213
13130W        W30654   4.923  15.426  17.698 -0.0244 -0.1324 -0.1783
13131W        W30655   5.389   8.711   0.459 -0.2580 -0.0558  0.0063
13132W        W30656  13.334   6.881   1.441 -0.1125 -0.1494 -0.1045
13133W        W30657  11.513  15.512   4.706  0.1475  0.1601 -0.0715
13134W        W30658  14.065   9.691  12.408 -0.2487  0.1603 -0.0221
13135W        W30659   1.556  13.820   1.433 -0.1740 -0.0422  0.3255
13136W        W30660  13.519  10.432   1.767  0.2609 -0.2396  0.1446
13137W        W30661  14.265   0.459  17.468 -0.1725 -0.1198 -0.1426
13138W        W30662  15.434   9.724  16.338  0.2055  0.1243  0.2994
13139W        W30663   5.228  11.561   5.122  0.0659 -0.2257 -0.1065
13140W        W30664   7.113   4.048  13.059  0.0673  0.4879  0.1786
13141W        W30665   7.969   4.993   4.489  0.0978  0.0703  0.0635
13142W        W30666   2.892   5.600  16.886  0.2065 -0.2066 -0.1024
13143W        W30667   4.616   6.362  16.629 -0.0324 -0.1611  0.2180
13144W        W30668   4.154   4.355   0.497 -0.2083 -0.3769  0.1544
13145W        W30669  13.264   7.307   2.425 -0.1321  0.1905  0.1522
13146W        W30670   4.258   2.885  14.322 -0.0358 -0.2730 -0.3438
13147W        W30671   7.462   4.904  12.092  0.1502  0.0482  0.0923
13148W        W30672   5.007  11.044  15.723  0.1861  0.1293 -0.1801
13149W        W30673   8.772   8.157  17.602 -0.2143 -0.0563 -0.1960
13150W        W30674   2.687  10.776  13.606 -0.0315  0.1093 -0.0523
13151W        W30675  15.869  14.789   1.176 -0.3104  0.0272  0.1027
13152W        W30676  11.754   4.805  15.014 -0.2168 -0.1144  0.0675
13153W        W30677   0.527   8.404  16.409 -0.1103  0.2830  0.1288
13154W        W30678   7.091   1.158  13.373 -0.1316  0.0164  0.0792
13155W        W30679  10.338  16.953  17.397  0.1866 -0.2084  0.0260
13156W        W30680   5.321   0.261   2.799 -0.0415 -0.0329 -0.0741
13157W        W30681  10.200   7.152   4.450 -0.0133 -0.1366 -0.0013
13158W        W30682   9.743   3.778  15.762  0.0759  0.0970  0.0579
13159W        W30683  15.463  14.101  16.644 -0.0892  0.0007 -0.0421
13160W        W30684   6.152  10.653  11.276  0.0043 -0.0147 -0.0351
13161W        W30685  13.620   7.887  16.287  0.3829  0.1234 -0.0100
13162W        W30686   6.595   0.821  14.897 -0.4050  0.0507 -0.1451
13163W        W30687   8.773  12.737  17.133 -0.1226  0.0650  0.0638
13164W        W30688   6.317  11.370   2.193 -0.1407  0.0463 -0.0256
13165W        W30689   7.355  11.797   0.424 -0.1750  0.0666  0.1154
13166W        W30690  13.526  10.524  16.789 -0.0025 -0.0845 -0.3249
13167W        W30691   6.829   4.038   3.051  0.2340  0.2299  0.1081
13168W        W30692  12.443   2.399   3.608  0.0018  0.1332 -0.1528
13169W        W30693   9.681  16.873   4.061 -0.0508  0.2024  0.5607
13170W        W30694   5.095  14.668  16.183 -0.0908  0.1648 -0.1554
13171W        W30695   6.988  12.876  13.842  0.0859 -0.0579 -0.0757
13172W        W30696   0.550  10.602  12.994  0.0462  0.3796  0.1179
13173W        W30697   6.484   7.932   0.537  0.3668 -0.0349 -0.0668
13174W        W30698  16.790   8.599  13.889 -0.0735 -0.0653  0.0270
13175W        W30699  11.130   2.333   4.518 -0.0861  0.2498  0.1002
13176W        W30700   1.451   7.907   2.913 -0.0172 -0.0945 -0.0713
13177W        W30701  16.106  16.927   3.597 -0.1660 -0.3247 -0.2023
13178W        W30702   0.015  14.565   0.078  0.1931  0.2550 -0.0223
13179W        W30703  11.093   4.216  17.641 -0.1628 -0.1709 -0.0774
13180W        W30704  11.372  15.688  16.368  0.1929  0.2807 -0.1238
13181W        W30705   6.569   5.136   1.738 -0.2661 -0.0609  0.2132
13182W        W30706   9.359  13.276  12.244  0.0365 -0.1895 -0.0697
13183W        W30707  10.223   5.501   3.942  0.2033  0.0795  0.3466
13184W        W30708   9.632  12.705  13.051 -0.3599 -0.1013 -0.0652
13185W        W30709   5.916  13.829   1.779 -0.2170 -0.0268 -0.1511
13186W        W30710   4.351   3.542   3.860  0.2032  0.0585 -0.4013
13187W        W30711   0.961   7.876  13.262 -0.0098  0.1788  0.0417
13188W        W30712   6.128   2.855  14.052 -0.0256 -0.0816 -0.0827
13189W        W30713  17.111  15.552  16.020  0.1783  0.0028  0.1040
13190W        W30714   8.256  12.239   0.611  0.4747  0.3244  0.3748
13191W        W30715   7.869   2.572   1.075 -0.0698 -0.1736 -0.0732
13192W        W30716   6.489   2.149   4.639 -0.1965 -0.2748  0.1587
13193W        W30717   0.220  16.875  13.411  0.2004  0.0095 -0.0255
13194W        W30718   3.712  16.140  15.131 -0.0784  0.0324  0.0334
13195W        W30719  15.424   8.407  16.638  0.0973 -0.3962  0.0616
13196W        W30720   1.356  17.075   4.881  0.2367 -0.1389 -0.2266
13197W        W30721  10.833   6.786   5.101 -0.1666 -0.2280  0.1288
13198W        W30722   7.732   2.612  12.593  0.4285  0.1379 -0.2269
13199W        W30723   5.440  12.790   0.243 -0.0398 -0.3781 -0.1509
13200W        W30724  15.897  13.054   0.697  0.0017 -0.1068 -0.0449
13201W        W30725   3.824   9.978  17.079 -0.0775 -0.0200 -0.1208
13202W        W30726   8.087   2.020   5.252 -0.2604  0.1096 -0.3377
13203W        W30727  12.388   2.185  13.164  0.0630 -0.0370 -0.0730
13204W        W30728  12.315   2.094  15.526  0.0271 -0.1171  0.0986
13205W        W30729  14.228   9.006  17.674  0.4063 -0.1408  0.1057
13206W        W30730   7.576   3.751   1.313  0.2449  0.2002 -0.2558
13207W        W30731  13.221   0.125  11.579 -0.0382 -0.1024 -0.3474
13208W        W30732  10.268  16.000   3.565  0.2078  0.0337  0.3824
13209W        W30733   7.965   4.736   0.583  0.1209  0.0254 -0.0751
13210W        W30734  15.059  15.333   3.881 -0.0616  0.2491  0.3498
13211W        W30735  10.563   7.249  14.432 -0.2534 -0.0340 -0.5142
13212W        W30736  11.639   4.971   4.082 -0.1522  0.1587 -0.0724
13213W        W30737   7.044  14.216  11.162  0.1419  0.3078  0.1913
13214W        W30738  12.316   5.267   5.035  0.3820 -0.0304  0.0007
13215W        W30739   2.368   7.014  13.083 -0.1555 -0.2137  0.1235
13216W        W30740  15.045   9.280   4.534 -0.1436 -0.1118  0.0387
13217W        W30741   7.397   6.037   1.170  0.1787 -0.0180 -0.0104
13218W        W30742  12.380  11.211  14.546 -0.1523  0.3085 -0.2061
13219W        W30743   5.733   3.284  13.400 -0.2485  0.1499 -0.0746
13220W        W30744  10.299   5.477  14.422  0.0009  0.0126 -0.1526
13221W        W30745  14.708  10.754   2.293 -0.0744 -0.2359  0.0927
13222W        W30746   6.172  16.157   4.921  0.0276 -0.0431 -0.0235
13223W        W30747   0.840  11.828  13.556  0.1825  0.0501  0.1111
13224W        W30748   9.758   5.946  15.787 -0.2604  0.1814  0.0461
13225W        W30749   4.858   7.248  16.266  0.4904  0.0648 -0.1299
13226W        W30750   9.847   0.815  14.320  0.0602  0.1973 -0.0067
13227W        W30751   2.460   9.508   5.509  0.0017 -0.1669 -0.0069
13228W        W30752   7.336   4.957  16.313  0.1313  0.2425 -0.0780
13229W        W30753   0.016   5.423   2.810  0.0295 -0.0196 -0.1862
13230W        W30754  10.480   0.640  16.475  0.0027  0.0197 -0.0721
13231W        W30755  11.085  16.512  12.330 -0.0881  0.4279  0.0082
13232W        W30756   4.507   8.947  15.222 -0.1274 -0.1256 -0.0256
13233W        W30757   8.714   3.215   3.113 -0.3057 -0.0492  0.2020
13234W        W30758   2.086   7.856   0.264 -0.1543  0.2945  0.0443
13235W        W30759   5.249   5.814  14.644  0.0403  0.3655  0.0787
13236W        W30760   1.422  16.099  15.541  0.2231  0.1116 -0.2448
13237W        W30761   4.891   1.117  15.109  0.0344  0.0271 -0.2236
13238W        W30762   7.526  13.052  15.810  0.1379 -0.0132 -0.3211
13239W        W30763   6.009  10.419  14.438 -0.1120 -0.0214 -0.0936
13240W        W30764   8.385   7.311  12.830  0.3665 -0.0522  0.3775
13241W        W30765   3.835  10.118   1.086 -0.0625 -0.0832  0.1922
13242W        W30766  11.373   2.525  12.798  0.1856 -0.2702 -0.1408
13243W        W30767   6.569   0.454   3.905  0.1815 -0.1363  0.0758
13244W        W30768   8.638  12.723   0.046  0.4152  0.1153 -0.1506
13245W        W30769   8.633  14.121  17.693  0.0324 -0.2414 -0.2072
13246W        W30770   9.636   9.224  13.046 -0.1468  0.0611 -0.0338
13247W        W30771   8.040  11.149  13.311  0.1803  0.1521 -0.3008
13248W        W30772   1.933  15.716  15.241  0.0889  0.1268 -0.4543
13249W        W30773   6.097   6.569  15.977  0.1288 -0.3156  0.3578
13250W        W30774   4.202  16.439  14.277 -0.1522  0.1470 -0.1744
13251W        W30775   9.508   5.376   3.786 -0.0281 -0.2471 -0.0503
13252W        W30776   1.746   7.903  17.249 -0.1370  0.0431 -0.0890
13253W        W30777  10.392   8.842  16.111  0.0349 -0.1202  0.1418
13254W        W30778  12.300  12.900   4.889  0.1355  0.0395  0.0493
13255W        W30779   3.247   1.879   2.964  0.0606 -0.0123  0.0104
13256W        W30780  15.388  17.111   1.118 -0.1171 -0.1872  0.0109
13257W        W30781  10.007   1.841  14.431  0.1160  0.0945 -0.2062
13258W        W30782  13.909   3.834   6.424 -0.0296  0.0212 -0.0400
13259W        W30783  11.925   0.244  13.354  0.0049 -0.0080 -0.3613
13260W        W30784  15.261   4.992   0.036  0.0340  0.3488 -0.1657
13261W        W30785  10.457   9.948   4.682 -0.1590  0.2814  0.0465
13262W        W30786  14.851   5.910  16.781 -0.1780 -0.1253 -0.0848
13263W        W30787   2.030   5.350   5.001 -0.1293 -0.3467 -0.3137
13264W        W30788  10.456  10.755  12.747  0.1496 -0.0489  0.2331
13265W        W30789   1.382  10.997   5.065 -0.0982 -0.0970  0.0343
13266W        W30790   1.995  11.551   1.438 -0.1930  0.2384  0.2852
13267W        W30791   8.358  13.149  12.423  0.2942  0.1615  0.1143
13268W        W30792   6.222   4.945  17.233  0.0221  0.0679 -0.1107
13269W        W30793  11.074   0.357  15.485 -0.0810 -0.1981 -0.2036
13270W        W30794  11.168  11.743   1.158  0.0497  0.0735 -0.1876
13271W        W30795   4.649   2.326  13.086  0.1410  0.0861  0.1880
13272W        W30796  11.209   6.529   2.346  0.0149  0.1174 -0.0697
13273W        W30797  14.769  11.341   4.025  0.0295 -0.0231  0.0298
13274W        W30798   6.953   5.273   0.047  0.0814  0.1061  0.1279
13275W        W30799   3.961  10.486   4.987 -0.2075  0.3512  0.0949
13276W        W30800  11.592  13.444  15.169 -0.1604  0.1201 -0.5223
13277W        W30801  15.058   8.138  16.930 -0.2383  0.1959  0.1747
13278W        W30802   2.139  10.183   1.043  0.1775 -0.1788  0.0979
13279W        W30803   5.280  12.604  14.064  0.4883  0.2557  0.0326
13280W        W30804  15.496  11.818   2.900  0.1732  0.0810 -0.0557
13281W        W30805   8.335   4.064  15.845 -0.1186  0.1575  0.3607
13282W        W30806  15.011  15.141  12.464 -0.0477 -0.0980  0.0836
13283W        W30807   0.785   5.007   4.554  0.1299 -0.1786  0.4569
13284W        W30808  15.358   7.874  13.156  0.1230  0.2732 -0.2001
13285W        W30809  12.695  12.840  12.896  0.3542 -0.2000  0.1209
13286W        W30810  13.336  16.975  13.820 -0.2951  0.1628  0.3548
13287W        W30811  16.182  15.485   5.211  0.4344 -0.0330 -0.3292
13288W        W30812  11.996  11.683  15.309 -0.0954  0.3171  0.0000
13289W        W30813   5.995  14.456  15.075 -0.0394 -0.0209 -0.0742
13290W        W30814  11.307   1.366  17.221 -0.0036 -0.1992  0.1166
13291W        W30815   8.073   1.545   4.975  0.0162 -0.3260  0.1809
13292W        W30816  15.621  16.755   0.756  0.0973 -0.0022 -0.4383
13293W        W30817   8.395   9.963  13.861 -0.1633 -0.2602  0.0565
13294W        W30818  10.204  12.198  12.514 -0.1371  0.1342  0.0637
13295W        W30819   7.316   0.247  14.519 -0.0651 -0.4163  0.0495
13296W        W30820  12.960   2.688  16.833  0.2972  0.0102 -0.1531
13297W        W30821   5.852   0.956  13.036  0.0687  0.1685 -0.1472
13298W        W30822  11.487   0.822   0.725  0.1366  0.3277 -0.1535
13299W        W30823  12.385  10.116  15.874 -0.0089 -0.0347 -0.1824
13300W        W30824  16.434   5.540  16.404  0.2692 -0.0749  0.1773
13301W        W30825  11.992   9.882   1.657 -0.2059 -0.0489  0.1451
13302W        W30826  14.515   3.726   0.154  0.2683  0.1958 -0.1306
13303W        W30827   7.143  13.911   2.405 -0.1503 -0.0742  0.0689
13304W        W30828   3.419   8.464   1.432  0.0895 -0.3065 -0.2003
13305W        W30829   2.294  16.679  13.817 -0.0015 -0.0607  0.1068
13306W        W30830  11.078  10.516  13.340 -0.5401 -0.2068 -0.0397
13307W        W30831   1.947   8.588  12.452  0.0536  0.2002 -0.0561
13308W        W30832   0.372   0.382  16.874  0.0893  0.0602 -0.1022
13309W        W30833   5.014  16.107   0.709  0.0032 -0.3479  0.2598
13310W        W30834   1.730  14.933   3.590  0.1069 -0.2901  0.2807
13311W        W30835   4.639  13.999  14.789 -0.0278  0.0892  0.0616
13312W        W30836   9.266   0.075   5.242  0.1529  0.0043 -0.1136
13313W        W30837  13.079   1.796  14.126  0.0595  0.0731 -0.1714
13314W        W30838   7.672   5.773  13.784  0.1368 -0.0492 -0.0711
13315W        W30839   2.192  15.923  16.416 -0.0866 -0.2712  0.1321
13316W        W30840  15.760   4.980  12.732  0.3327  0.1309  0.2493
13317W        W30841  11.504   4.633   3.439 -0.1954  0.1784 -0.2205
13318W        W30842   5.621  15.641  14.398 -0.0023  0.4875  0.1262
13319W        W30843  13.161   9.358  16.774 -0.2543  0.3244  0.2644
13320W        W30844  10.167   6.314  12.009  0.0415 -0.0139  0.0715
13321W        W30845  10.199   9.555   0.409  0.0417 -0.0922 -0.1191
13322W        W30846   9.334   7.539  13.779 -0.2103 -0.1881 -0.0466
13323W        W30847  11.523   5.662  15.315 -0.1138  0.0066 -0.1698
13324W        W30848  10.456   6.617   0.327 -0.1028  0.0422  0.0244
13325W        W30849  14.751   4.860  14.528 -0.2037  0.1120 -0.0299
13326W        W30850  16.401   0.040   0.935 -0.1270  0.2736  0.0124
13327W        W30851   9.842  10.173  17.359 -0.1487 -0.1228 -0.0115
13328W        W30852   0.820  11.200  13.689 -0.2151 -0.1786  0.0006
13329W        W30853  14.325  15.198   1.626 -0.2307 -0.3838 -0.1994
13330W        W30854  13.686   0.740   2.771 -0.0806 -0.1206 -0.1109
13331W        W30855   5.804   6.272   3.516 -0.0976  0.1294 -0.0530
13332W        W30856  16.617   7.782  17.104  0.0622  0.0910  0.0994
13333W        W30857   4.329   6.820   0.080 -0.0196  0.1426 -0.0895
13334W        W30858  12.394   1.911  16.567  0.0320  0.1883  0.1402
13335W        W30859   0.339   5.535  14.995 -0.1412 -0.2371  0.0032
13336W        W30860   0.408  13.052  16.881  0.0492  0.0406  0.1129
13337W        W30861   9.493  13.171   0.416 -0.2728 -0.0862  0.3396
13338W        W30862  10.425  16.082  16.331 -0.0206 -0.0661  0.0104
13339W        W30863   5.571   1.720   0.400 -0.2010  0.1610  0.0096
13340W        W30864   5.544  12.452  15.204  0.3024  0.2469  0.1692
13341W        W30865  16.287   4.250  15.121 -0.0052  0.2284  0.0334
13342W        W30866   2.693   9.210  17.185 -0.2564  0.1444 -0.0945
13343W        W30867   2.528  10.824   1.195 -0.0001 -0.1036  0.1224
13344W        W30868   6.990  10.258   1.477 -0.1635  0.0635  0.1557
13345W        W30869  15.786  15.085   3.448 -0.3754 -0.0140 -0.0330
13346W        W30870   4.416  12.496  13.993 -0.0928  0.2027 -0.3671
13347W        W30871   8.353  14.850  17.151 -0.1675 -0.2811 -0.0843
13348W        W30872   1.738   4.781  13.451 -0.0103  0.0489 -0.0372
13349W        W30873  14.637   6.551   0.314  0.1796 -0.0506  0.0002
13350W        W30874   5.158  13.140   2.772 -0.0776 -0.0814  0.0393
13351W        W30875  12.571  16.238  16.770  0.1930 -0.2107  0.3979
13352W        W30876  14.891  10.994  12.172 -0.2134  0.0784  0.0800
13353W        W30877  14.697   6.386  16.890  0.0342  0.1257  0.4585
13354W        W30878  12.088  17.012  16.627 -0.0489 -0.2504  0.2124
13355W        W30879   9.028   6.568   4.968 -0.3344 -0.2421 -0.1076
13356W        W30880   7.953   8.790  13.409 -0.0572 -0.1322  0.1717
13357W        W30881  11.930   6.574   2.199  0.0460  0.3606  0.1066
13358W        W30882   0.287   7.044   0.888 -0.1782  0.1797  0.1198
13359W        W30883   9.463  14.122  12.967  0.2728 -0.0396  0.0959
13360W        W30884  13.644  11.715  15.005  0.2813  0.2016  0.0390
13361W        W30885   6.837  14.773  17.331  0.2484 -0.2645  0.0674
13362W        W30886  14.370  10.238   3.928  0.2113  0.1564  0.2026
13363W        W30887  13.074  10.581   2.886 -0.1460 -0.0207  0.0764
13364W        W30888   6.676   3.588   2.862  0.0588 -0.0722  0.3413
13365W        W30889   5.564   1.982  17.066  0.0863 -0.2367  0.1624
13366W        W30890  14.622   7.500  14.135  0.1780 -0.1507  0.0156
13367W        W30891   4.080   3.611   4.663  0.1711  0.1240 -0.1043
13368W        W30892  16.955   6.131  16.230 -0.0015 -0.3560  0.0423
13369W        W30893   2.125  11.003  16.306 -0.2007 -0.2357 -0.0582
13370W        W30894  12.646  15.921   1.219  0.2308 -0.2322  0.0941
13371W        W30895   6.162  14.479   4.752  0.0343 -0.0272 -0.2401
13372W        W30896   5.263   9.173   3.643 -0.0059 -0.0569  0.0572
13373W        W30897   3.735   7.600   3.960 -0.0242  0.0618 -0.3932
13374W        W30898   1.404  12.368   1.422 -0.1373 -0.2091  0.1006
13375W        W30899   4.082   7.429   4.268 -0.1913  0.0942  0.0284
13376W        W30900   5.730   7.371   2.755  0.2668 -0.0790  0.1721
13377W        W30901  12.023  13.385  17.517  0.1137  0.0103 -0.1433
13378W        W30902  10.273   7.148  12.631  0.0519  0.2579  0.1064
13379W        W30903  12.840  15.576  16.800  0.1372  0.2345  0.1615
13380W        W30904  11.866  15.776   0.951 -0.0794  0.2203  0.1636
13381W        W30905  13.862  16.159   3.553 -0.2006  0.0056 -0.1570
13382W        W30906  17.151   0.966   4.695  0.0679  0.1847 -0.0793
13383W        W30907  15.616   0.982   3.137 -0.1915 -0.1719 -0.0078
13384W        W30908   0.208   1.918  14.257  0.0068 -0.0429  0.1721
13385W        W30909   6.156   1.263  12.284  0.0831  0.1405  0.0657
13386W        W30910   4.889   3.993  13.864 -0.3860  0.0299  0.0133
13387W        W30911  11.631   7.708   1.501  0.1477 -0.1007  0.2017
13388W        W30912   7.904   1.823  13.952  0.0161 -0.1296  0.0538
13389W        W30913  12.629  15.511   3.514  0.0022  0.0439  0.0628
13390W        W30914   7.357   8.692  12.173 -0.1763 -0.1594  0.4294
13391W        W30915   4.775   3.169   0.627  0.1288  0.1426 -0.3794
13392W        W30916   5.891  10.586   4.125 -0.0516 -0.3166  0.0300
13393W        W30917   7.524   9.724  16.756 -0.0768 -0.0101  0.1305
13394W        W30918   1.064  10.383   3.391 -0.1255 -0.1083  0.2025
13395W        W30919  11.458  12.679  16.356  0.0162  0.0542 -0.0618
13396W        W30920   9.053   9.931  16.437 -0.2531 -0.0371 -0.4156
13397W        W30921   3.173   4.331  17.024 -0.0545  0.0857 -0.2401
13398W        W30922   1.807  14.172  14.366 -0.0239  0.4823  0.1011
13399W        W30923  15.884  14.247  15.959 -0.3185 -0.2439  0.1840
13400W        W30924  15.829   9.940   5.276 -0.1277  0.1630  0.2888
13401W        W30925  11.911  16.619  14.183 -0.0814  0.0951 -0.0852
13402W        W30926   3.504   4.565   1.048  0.4658  0.0244 -0.0102
13403W        W30927   1.566   0.170  13.189 -0.0124  0.0506 -0.0270
13404W        W30928  15.707  15.992   0.451 -0.0584 -0.1133 -0.3007
13405W        W30929   4.528  10.328   4.990  0.0033  0.0180 -0.1370
13406W        W30930   6.541   7.489  12.159 -0.0045  0.0150  0.0729
13407W        W30931  16.829  10.816  15.324  0.0405 -0.2078  0.0101
13408W        W30932   2.903   2.399  14.863 -0.3494 -0.1122  0.1375
13409W        W30933  12.175   7.890   1.800 -0.1794  0.0758 -0.1623
13410W        W30934  13.887   6.812  12.931 -0.0975 -0.0507 -0.3250
13411W        W30935  11.461   6.403  11.882 -0.2215 -0.0307 -0.0805
13412W        W30936   8.929   6.472   4.490  0.0363 -0.0010 -0.1827
13413W        W30937  17.030   4.862   4.109 -0.0909  0.1723 -0.0204
13414W        W30938   1.634   4.942  16.942 -0.1372  0.0723  0.1575
13415W        W30939  13.933   0.010  15.542 -0.1710 -0.0368 -0.0697
13416W        W30940   8.697   3.364   2.649 -0.0099 -0.2156 -0.3217
13417W        W30941   6.876  11.813   2.145 -0.4617  0.0475 -0.1587
13418W        W30942  13.410  16.656   2.030 -0.1233  0.2132  0.1542
13419W        W30943  13.842   7.831  13.112  0.3667 -0.2401  0.1191
13420W        W30944   2.615   2.526   4.200 -0.3799 -0.0297 -0.2018
13421W        W30945   8.855  12.102  14.070 -0.1705 -0.0566  0.1532
13422W        W30946  16.246  14.450   4.249 -0.1854 -0.0242 -0.0896
13423W        W30947   5.417  14.714  14.279 -0.0203  0.1358 -0.0063
13424W        W30948   0.114   7.192   1.410  0.0095 -0.1542  0.0115
13425W        W30949   0.038   9.594   3.853  0.0821 -0.1930  0.0517
13426W        W30950  16.850   9.872   5.145 -0.2859  0.1643 -0.4569
13427W        W30951  10.848   2.188  13.589 -0.0147 -0.1137 -0.2020
13428W        W30952   0.091   7.778  16.032 -0.0054 -0.1468 -0.1159
13429W        W30953   8.317  13.284  16.043  0.0337  0.3885 -0.0831
13430W        W30954  14.321  13.339   3.684 -0.0863  0.2125  0.1251
13431W        W30955  13.774   9.424  11.980 -0.0680 -0.3545 -0.1521
13432W        W30956   2.706  14.795   0.746 -0.2452  0.0745  0.1263
13433W        W30957   1.361  14.167  13.397  0.0121  0.1541 -0.0989
13434W        W30958   1.127  15.446   4.113 -0.2923  0.0175  0.0966
13435W        W30959   9.500   7.274  17.734  0.1706 -0.0199 -0.3632
13436W        W30960  16.202   2.502   4.125 -0.1678 -0.0058  0.2398
13437W        W30961  13.207   1.888   5.320  0.2064 -0.1077  0.0136
13438W        W30962   9.809   6.085  16.229 -0.0881 -0.1730  0.1101
13439W        W30963   4.708  11.281  16.501 -0.1441  0.1155  0.2551
13440W        W30964  14.749  10.996   2.953 -0.0569  0.0762  0.0594
13441W        W30965  11.725  15.078  14.648 -0.1977  0.0555  0.0137
13442W        W30966   6.783   9.067   3.619  0.3476  0.2822  0.1272
13443W        W30967   6.695   5.454  13.344 -0.0958 -0.2548  0.3111
13444W        W30968   8.280  11.251   4.542  0.0665 -0.0279  0.2121
13445W        W30969  13.441  14.293   2.466  0.2088 -0.0266  0.1590
13446W        W30970  14.830  10.311   2.001  0.0603 -0.1908  0.2021
13447W        W30971   2.630  14.100  17.630 -0.4095 -0.2233 -0.1223
13448W        W30972   5.986   7.943  16.393  0.1709  0.1555 -0.0835
13449W        W30973   5.797   2.368   5.859  0.0959  0.1059  0.2117
13450W        W30974   8.496   0.074  16.850  0.0683 -0.1661 -0.4080
13451W        W30975   7.164   3.532  15.145 -0.3669  0.0115  0.0419
13452W        W30976   0.429   1.057   0.303 -0.0766  0.1592 -0.3126
13453W        W30977   3.112  14.049   3.199 -0.2413 -0.1401  0.0916
13454W        W30978   8.028  15.884   1.995 -0.1328 -0.0585 -0.1128
13455W        W30979   5.014   3.116   5.802 -0.1008  0.2141 -0.2059
13456W        W30980   4.875   1.822   3.587  0.0091  0.0401 -0.1559
13457W        W30981   0.896   9.373   3.713 -0.1244  0.2325 -0.0248
13458W        W30982  15.148  11.608  17.427  0.1709  0.1478  0.5434
13459W        W30983   2.154   2.257  16.845 -0.0939  0.1481 -0.1383
13460W        W30984  14.528  15.822   0.378 -0.0426 -0.0652 -0.0650
13461W        W30985  15.227   4.617   1.837 -0.1723  0.2140  0.2130
13462W        W30986  16.051  16.293  16.494 -0.0673 -0.2359 -0.1024
13463W        W30987   7.982  12.110  17.567 -0.0374  0.1506  0.2300
13464W        W30988   0.993  14.191  17.667 -0.2987  0.1312  0.0412
13465W        W30989   8.688   0.037   1.993  0.1063 -0.1088  0.0662
13466W        W30990   4.254   5.815  17.370  0.1536  0.0347  0.1471
13467W        W30991   5.231   7.535   6.122  0.0558 -0.1246  0.0235
13468W        W30992   1.053  11.904   2.285 -0.0802 -0.3537 -0.3124
13469W        W30993  13.856  14.734   0.202  0.0935 -0.0021  0.1524
13470W        W30994  14.934   3.085   0.786 -0.2187  0.0030  0.1277
13471W        W30995  10.403   5.303   3.255  0.1688 -0.0107 -0.2931
13472W        W30996   2.121   5.027   4.319 -0.1123  0.0582 -0.1564
13473W        W30997  11.500  15.417   3.371  0.0283 -0.0121 -0.0667
13474W        W30998   5.100   3.956   4.826  0.1162  0.0198  0.1004
13475W        W30999  11.267   2.634   5.429 -0.3318  0.1768  0.0291
13476W        W31000  15.909   3.010  13.851 -0.2332  0.0794  0.1621
13477W        W31001   0.002  15.012   1.108 -0.1731  0.0849  0.2428
13478W        W31002   7.089  12.600   5.283  0.0554  0.0032  0.1606
13479W        W31003   2.827  16.844  14.838 -0.1886 -0.0425  0.1543
13480W        W31004   4.379   1.095  17.041  0.0665 -0.1707 -0.1705
13481W        W31005   5.474   8.235  17.074 -0.0240 -0.4929  0.1056
13482W        W31006  16.962  13.564  15.823  0.2041 -0.2237  0.0921
13483W        W31007  14.072   0.467   2.980 -0.3159  0.2321 -0.1402
13484W        W31008   0.672  12.099   4.595 -0.2561 -0.3002 -0.2298
13485W        W31009   2.865   9.585   3.996 -0.1321  0.0726  0.0251
13486W        W31010   5.360   8.918  14.361  0.0467 -0.1125 -0.1110
13487W        W31011  14.102   2.442   1.413  0.2951 -0.1903  0.2932
13488W        W31012  10.867   9.978   0.559  0.0726 -0.0283 -0.2557
13489W        W31013   2.379  15.310   4.243 -0.1773  0.0011 -0.1749
13490W        W31014  16.002   4.689   4.433  0.0565  0.1321  0.3284
13491W        W31015  12.070   1.047  17.678 -0.2483  0.0905  0.3129
13492W        W31016  12.153  10.751   0.016  0.2337  0.1684 -0.2310
13493W        W31017   8.327  16.906   0.963  0.0581 -0.0930 -0.2919
13494W        W31018   3.208   0.155  12.413 -0.0089  0.0419  0.0629
13495W        W31019   0.301  11.775   0.145  0.0152  0.2573 -0.0592
13496W        W31020  10.983   2.062  16.559 -0.0991  0.1309 -0.1653
13497W        W31021  15.350   3.578  17.337 -0.2331  0.0772 -0.1392
13498W        W31022  15.795  14.024  14.010  0.0322 -0.1294  0.1518
13499W        W31023   7.208  11.313   2.273 -0.1610  0.0178 -0.0208
13500W        W31024  15.795   9.426  13.614  0.0926  0.0315 -0.1772
13501W        W31025  10.130   3.587   2.861  0.0094  0.0931  0.1469
13502W        W31026   0.208   7.071   1.850 -0.3540  0.0994  0.1481
13503W        W31027  15.085   5.303  17.354  0.2626 -0.0234 -0.1603
13504W        W31028   9.629  13.545   3.352 -0.1672  0.3010  0.0384
13505W        W31029  17.002  11.644  15.144  0.2478  0.3633  0.4009
13506W        W31030   1.691   2.715  14.586  0.0365 -0.1640 -0.2781
13507W        W31031   3.086  11.504   0.459 -0.2553 -0.1436 -0.2202
13508W        W31032   9.014   9.157  16.182 -0.0213  0.1548 -0.0198
13509W        W31033  16.627   7.481   3.496  0.1736 -0.1860 -0.2515
13510W        W31034   7.269  11.792   5.179  0.0234  0.2504  0.0546
13511W        W31035  11.983  10.451   1.038 -0.3138 -0.1207 -0.0347
13512W        W31036  15.204  13.783   2.521  0.2169 -0.1279  0.2354
13513W        W31037  12.546   0.793   3.000  0.1380 -0.0054  0.0714
13514W        W31038  12.770  17.092   4.456  0.0558  0.0570 -0.1599
13515W        W31039   3.657  10.304   0.642  0.2266  0.0180  0.0525
13516W        W31040   0.315   9.467   2.030 -0.1530  0.0579  0.0887
13517W        W31041   9.097   4.859  13.743 -0.4550 -0.2968  0.1408
13518W        W31042   1.026  15.804  16.542 -0.2181  0.1964  0.1345
13519W        W31043  17.019   4.597   5.361 -0.0941 -0.1194  0.1320
13520W        W31044  17.089   4.004   2.126 -0.0353 -0.0594  0.0196
13521W        W31045   4.460   6.055   1.714  0.2267 -0.2874 -0.3438
13522W        W31046  12.752  12.393  12.565 -0.0633  0.0471  0.1845
13523W        W31047   6.650  13.226   4.613 -0.1705 -0.2714 -0.3422
13524W        W31048   9.589   1.221  14.087  0.2419 -0.1722  0.0114
13525W        W31049   9.861   6.391   5.509  0.1655 -0.1677 -0.2531
13526W        W31050   9.050   7.798   5.135 -0.0162  0.1465  0.2563
13527W        W31051  14.450   6.765  12.306  0.1837  0.1422  0.1013
13528W        W31052   4.098   2.018   3.332  0.1020 -0.0961 -0.2644
13529W        W31053  13.436  10.701  13.362  0.1709 -0.2430 -0.2638
13530W        W31054  16.781  10.944  13.947 -0.3173  0.1430  0.1860
13531W        W31055   2.883  13.432  14.587 -0.0323 -0.0195 -0.0038
13532W        W31056  10.570   0.319   0.746 -0.2678  0.1086  0.1101
13533W        W31057  16.582   5.346   5.390  0.0056  0.0924 -0.0512
13534W        W31058  10.460  15.746   1.389 -0.2499 -0.3660 -0.0165
13535W        W31059  15.094  13.542  14.448 -0.0056  0.0045 -0.1269
13536W        W31060  11.300   4.012   1.143  0.0188  0.0007  0.1102
13537W        W31061   3.209  15.467   2.325  0.2409 -0.1561 -0.2129
13538W        W31062   7.616   1.832   5.016  0.3545  0.0253 -0.1322
13539W        W31063  14.855   2.305   4.105  0.0061  0.1285 -0.0093
13540W        W31064   0.683  11.642   4.793  0.2278 -0.1807 -0.1077
13541W        W31065   0.613   7.290  12.435  0.1173 -0.0762 -0.4061
13542W        W31066   1.970   9.166  17.258 -0.1300 -0.2529  0.2302
13543W        W31067  15.503  16.321  17.273 -0.0199  0.1952  0.3684
13544W        W31068   3.346   1.685  17.143 -0.0761 -0.0982  0.1372
13545W        W31069   1.329   7.721   0.345  0.0050 -0.0190  0.1798
13546W        W31070   5.143   3.994  15.951  0.0663 -0.0724  0.0329
13547W        W31071   4.338   1.908  16.419 -0.1655 -0.0460 -0.0506
13548W        W31072  15.489   7.286  13.279 -0.2421  0.4080 -0.0765
13549W        W31073  16.903   8.421  15.359 -0.2003  0.2919 -0.0287
13550W        W31074  15.910  13.381  17.618  0.0528 -0.0272 -0.1532
13551W        W31075   3.826   9.247  12.618 -0.0842  0.3727 -0.1152
13552W        W31076   7.008   4.413  15.005 -0.1544  0.1272  0.3759
13553W        W31077   2.458   0.075  17.554 -0.1030 -0.0313  0.0904
13554W        W31078  10.524  16.485   2.805 -0.0406 -0.1865 -0.1904
13555W        W31079  11.567   2.612  13.324  0.1689 -0.0202 -0.1215
13556W        W31080   1.141  16.323  16.951 -0.1235 -0.0268  0.0115
13557W        W31081  13.457   2.199  14.122 -0.1479  0.0572 -0.3083
13558W        W31082  16.181  12.285  16.929 -0.1288 -0.2401  0.0600
13559W        W31083   2.339   1.065  14.739  0.3882  0.2233 -0.1494
13560W        W31084   8.182   9.564   1.293 -0.1008  0.1852 -0.3248
13561W        W31085   3.805   4.639   0.236 -0.1617  0.1171 -0.0143
13562W        W31086   1.730   4.237  13.980 -0.1139  0.0798  0.2038
13563W        W31087  17.001   8.706  15.829 -0.1532 -0.3754 -0.0256
13564W        W31088   7.505   9.374  17.558 -0.2514  0.1794  0.1008
13565W        W31089  11.616  10.308  14.317 -0.2077  0.1908 -0.1542
13566W        W31090  11.595   2.449   0.263 -0.1665  0.2303  0.0588
13567W        W31091  15.114   6.068   4.318 -0.1197  0.1073 -0.2870
13568W        W31092   8.733   7.033  12.668  0.0472  0.2169 -0.1160
13569W        W31093  11.697  15.895   1.601 -0.0705 -0.0660  0.0396
13570W        W31094   9.557  13.610   0.683  0.0991  0.1035 -0.2589
13571W        W31095   0.258  11.076   2.276  0.0205  0.0952 -0.0930
13572W        W31096   4.931   1.539   0.984 -0.1942 -0.0170 -0.1268
13573W        W31097   5.494   9.722  11.757 -0.0280 -0.0088  0.1108
13574W        W31098   9.225   9.856   0.390 -0.1255 -0.0737  0.1370
13575W        W31099   1.979   7.155  13.790 -0.2580  0.0415 -0.1863
13576W        W31100  12.162  14.950  17.158  0.1464 -0.1486 -0.1176
13577W        W31101   6.752  17.158  15.170 -0.0018  0.2093 -0.1745
13578W        W31102   4.269  10.824   2.140  0.2543 -0.0325  0.2369
13579W        W31103  14.875  15.649  17.014 -0.0227 -0.1126 -0.3291
13580W        W31104   2.208   2.605   2.517 -0.0009  0.0437  0.1157
13581W        W31105   9.732   4.164  16.778  0.0550  0.0682  0.1093
13582W        W31106   4.882  12.889  16.978  0.0614 -0.0116  0.2231
13583W        W31107   9.230   5.264  16.709 -0.1411 -0.1894  0.1124
13584W        W31108  16.668  15.808   1.046  0.0863  0.0674 -0.0593
13585W        W31109   1.238  12.101  16.335  0.0936  0.1408 -0.1563
13586W        W31110   6.555  15.435   4.003 -0.0313  0.0679  0.1497
13587W        W31111   2.970  11.993  16.048 -0.1742 -0.2649  0.1674
13588W        W31112   1.447   7.510  15.376  0.0499 -0.4082  0.0245
13589W        W31113   5.144   5.779  13.815 -0.1208 -0.1324  0.0051
13590W        W31114   5.755  11.737  13.576 -0.1440  0.0814  0.0555
13591W        W31115  11.780   7.179  11.795  0.0091 -0.0758 -0.0346
13592W        W31116   7.925   0.906  13.085 -0.1104  0.0149 -0.1978
13593W        W31117   5.385  10.251   5.389 -0.1666  0.0233 -0.0454
13594W        W31118   0.375   2.547  17.480 -0.0833  0.3137 -0.3266
13595W        W31119   0.279   3.262  15.930  0.1405 -0.2154  0.0269
13596W        W31120  10.728  15.197   3.108  0.0139  0.0290 -0.1679
13597W        W31121  17.008  14.245   1.403  0.0255  0.1527 -0.1830
13598W        W31122  13.510   5.630  13.989  0.1208  0.2168 -0.0936
13599W        W31123   0.784  16.535  16.676 -0.1388 -0.2133  0.0552
13600W        W31124  13.163   0.034   4.121  0.0791 -0.1797  0.0542
13601W        W31125   3.614   1.882   4.287  0.0680 -0.0834 -0.1785
13602W        W31126  13.633  15.794  15.843 -0.2635  0.2232  0.0055
13603W        W31127   9.153   2.753   3.995 -0.1779 -0.2115  0.3930
13604W        W31128  14.275   1.461  14.972 -0.1548  0.0431 -0.1185
13605W        W31129   7.539  15.202  14.218 -0.2979 -0.1188 -0.1202
13606W        W31130   2.890  13.055  11.694 -0.1289 -0.1962  0.3089
13607W        W31131  11.262  14.752   2.155 -0.2238  0.2473 -0.2723
13608W        W31132   2.478   6.073   4.380  0.1419  0.0863  0.1260
13609W        W31133  10.520  15.379   4.692  0.2636 -0.1134  0.1045
13610W        W31134  17.156   5.248  15.987  0.1598 -0.0880  0.0364
13611W        W31135  14.284   6.170   5.217  0.0454  0.2034 -0.0512
13612W        W31136   8.827   0.869  15.433 -0.2022 -0.1522  0.0307
13613W        W31137  16.450  14.545   5.154  0.0154  0.2097  0.0944
13614W        W31138   0.784  10.354   2.036 -0.0464  0.0506  0.2931
13615W        W31139   3.047  15.717  13.062  0.1633  0.3951 -0.1146
13616W        W31140   3.657   4.775   2.799  0.1199  0.0661  0.1823
13617W        W31141   5.603  12.748  15.953  0.0425 -0.1211  0.2520
13618W        W31142   2.235   2.705  15.215  0.0952  0.1322  0.1671
13619W        W31143   0.982   6.723   0.203 -0.0673  0.0389  0.3283
13620W        W31144  13.390  12.202  15.734  0.2590 -0.1335 -0.2180
13621W        W31145  16.235   9.817  17.209 -0.0860  0.0185 -0.0984
13622W        W31146   7.723   3.738   2.585 -0.0394  0.0373  0.1583
13623W        W31147   9.478   0.857   2.070 -0.0370 -0.1494  0.1742
13624W        W31148   0.945  11.345  13.201 -0.0815  0.4010 -0.0342
13625W        W31149  10.668  14.341   5.628 -0.1917 -0.0526 -0.0001
13626W        W31150   4.646   5.293   1.374  0.0931 -0.0774 -0.0603
13627W        W31151  13.716   3.748   1.032 -0.1077 -0.1320 -0.4364
13628W        W31152   6.776  13.909  12.233 -0.0708  0.1604 -0.2652
13629W        W31153   5.230   3.300   3.736 -0.1254  0.1680 -0.0511
13630W        W31154   5.081  11.139   5.380  0.1337  0.0568 -0.1730
13631W        W31155  11.538  10.847  12.670 -0.2068  0.3165 -0.0962
13632W        W31156   5.303  15.808   3.899 -0.0168  0.0122 -0.0477
13633W        W31157   0.350   5.763   2.282 -0.2234 -0.1910  0.0326
13634W        W31158  13.011   6.678  15.952  0.0554 -0.0416  0.1307
13635W        W31159  13.528  10.445   2.710 -0.0439  0.1348  0.0167
13636W        W31160   7.896  16.661   0.708 -0.1010 -0.0676  0.2368
13637W        W31161   4.285   6.970   4.272  0.0141 -0.1794  0.1007
13638W        W31162   4.764  13.426  12.491 -0.2658  0.1401  0.0032
13639W        W31163   6.779  12.277  14.998  0.0706 -0.1183 -0.1364
13640W        W31164  12.097   9.045   4.531 -0.0275  0.1458 -0.1830
13641W        W31165   6.561   3.019   1.051  0.2102 -0.1018  0.1854
13642W        W31166   1.123   4.570   0.141 -0.0520 -0.2729  0.0760
13643W        W31167  14.576   1.044   1.306 -0.0901 -0.0636  0.1550
13644W        W31168  11.680  16.685  15.314  0.1572  0.0736  0.0674
13645W        W31169  11.700  15.074   4.444 -0.0827  0.0729  0.0810
13646W        W31170   5.494   2.492   3.751  0.1911  0.2117 -0.1362
13647W        W31171  12.372   9.122  15.684 -0.3705  0.0272 -0.0944
13648W        W31172   7.182  13.306  15.456  0.1764  0.1938 -0.2928
13649W        W31173   1.460   1.956  15.300 -0.1684  0.2727  0.1872
13650W        W31174  10.855  16.117   5.061 -0.1500 -0.2053  0.2243
13651W        W31175  14.560  11.648   4.903  0.0134  0.1980  0.0622
13652W        W31176  16.723   8.618  16.223  0.3325  0.0654  0.2350
13653W        W31177  16.709   3.031   0.561  0.0854 -0.2016  0.1164
13654W        W31178  11.222   3.992   4.890  0.1689  0.0541 -0.1207
13655W        W31179   5.602  16.241  16.150 -0.0011 -0.2923  0.1195
13656W        W31180   8.250   0.503  16.740 -0.2399 -0.0703  0.3785
13657W        W31181  15.251  11.793  13.712  0.0091  0.3962 -0.0938
13658W        W31182   1.612   5.753   6.824 -0.0042  0.0354 -0.0810
13659W        W31183   2.622   2.521  11.780 -0.1758  0.1955 -0.1472
13660W        W31184   3.416  12.161  15.294 -0.2597 -0.1155  0.1240
13661W        W31185  13.047  13.996  14.465  0.0894 -0.0299 -0.0349
13662W        W31186  15.633  14.904   4.583 -0.1488  0.1779 -0.1276
13663W        W31187  11.017  15.359   4.819 -0.0614 -0.0506  0.0134
13664W        W31188  14.325   9.003   1.657  0.1335 -0.0408 -0.2240
13665W        W31189  16.647   1.592  16.181 -0.0138  0.1679  0.0502
13666W        W31190  12.845  14.358  14.102  0.0164  0.0163  0.1757
13667W        W31191  11.274   6.480   4.727 -0.0412  0.2822 -0.2410
13668W        W31192   9.836  13.694   2.396  0.1633 -0.0617  0.0861
13669W        W31193   0.722   0.364   2.405  0.1553 -0.1796  0.0588
13670W        W31194  13.633   4.677  15.121 -0.1413  0.0260  0.0583
13671W        W31195   6.061   9.489   1.089  0.0768 -0.3179 -0.1807
13672W        W31196   7.035   1.097  14.666 -0.1684  0.1151 -0.1332
13673W        W31197  16.294   2.126  15.707  0.0460  0.0177 -0.0187
13674W        W31198   8.701   5.171  16.701 -0.4245  0.0285  0.0961
13675W        W31199   8.266   3.303   2.365 -0.1451 -0.2375  0.3495
13676W        W31200  15.885  10.620  16.302 -0.1422  0.1550  0.0089
13677W        W31201   7.061   6.764  12.215 -0.1392 -0.0406 -0.4366
13678W        W31202   7.618  14.127   1.583  0.0492 -0.3391  0.0710
13679W        W31203   1.730   0.350  17.226  0.0519  0.1722 -0.1552
13680W        W31204  14.122  15.836   1.738 -0.0037  0.0058  0.0619
13681W        W31205   0.983   8.255  14.932  0.0924 -0.0764  0.0749
13682W        W31206  16.644   7.959  14.398  0.0356 -0.0031  0.3099
13683W        W31207  11.237  11.431   0.785  0.0383 -0.4200  0.3150
13684W        W31208   7.313   2.016  16.701 -0.0215 -0.0896 -0.1175
13685W        W31209  12.918   8.635   4.837 -0.0171 -0.3039 -0.0074
13686W        W31210  12.762  10.375  15.775 -0.0889  0.2180 -0.0589
13687W        W31211   5.199  16.822  12.666  0.0687  0.0481  0.0819
13688W        W31212  11.500   6.070  12.359  0.2038  0.0112 -0.0476
13689W        W31213   4.221  12.239   2.074 -0.3984 -0.0235  0.0482
13690W        W31214  16.782  12.816   3.271 -0.2057 -0.1024  0.0964
13691W        W31215   5.413  13.783   1.888 -0.1196 -0.0155 -0.1415
13692W        W31216   8.904   2.436  15.798 -0.0766 -0.1235  0.1919
13693W        W31217   6.491   4.694   3.657  0.0040  0.0154 -0.1991
13694W        W31218  11.728  16.641  13.440  0.0687  0.3888  0.0210
13695W        W31219   1.082  15.915   3.956  0.0328 -0.0124  0.1748
13696W        W31220  11.014  14.508  14.769 -0.1467  0.0246 -0.4394
13697W        W31221   5.876   5.569   5.358  0.1279 -0.0259 -0.2741
13698W        W31222   3.433  13.787   0.452  0.1980 -0.0142 -0.0209
13699W        W31223  10.716   7.568   2.483 -0.0686 -0.0257 -0.0612
13700W        W31224   5.656   1.458  13.664 -0.4104 -0.2030  0.0389
13701W        W31225  10.053   3.960   4.833 -0.1353 -0.0824  0.0122
13702W        W31226   0.802   2.731   5.488  0.2163 -0.2011  0.0678
13703W        W31227   9.588  11.500  14.775 -0.1112 -0.1385 -0.2198
13704W        W31228   4.553  10.423  14.524 -0.1028  0.0506 -0.0111
13705W        W31229   3.088  16.439   3.903  0.0578  0.1277 -0.0651
13706W        W31230  12.266   2.474   5.576 -0.0961 -0.0007  0.0842
13707W        W31231   6.397   8.539   4.969  0.1372  0.1621  0.2642
13708W        W31232   7.959  16.068  16.159  0.0997 -0.2316 -0.0083
13709W        W31233   7.467   3.517  13.804  0.2615  0.0465 -0.1441
13710W        W31234  13.872   1.669  14.681 -0.0698  0.2220  0.2664
13711W        W31235  10.806   3.973   5.218 -0.2065 -0.0100 -0.1910
13712W        W31236  14.863   3.564   1.087 -0.1443  0.0473  0.0224
13713W        W31237   8.973   3.902   1.524 -0.0720 -0.0928 -0.0883
13714W        W31238   3.317   4.849   2.275 -0.1080  0.1197 -0.1461
13715W        W31239   3.447  16.379   3.543 -0.2346 -0.3630 -0.0771
13716W        W31240  10.158   6.254  12.992  0.0386 -0.0730 -0.0996
13717W        W31241   1.927  11.010  15.839 -0.1485  0.1622  0.2770
13718W        W31242   7.869   6.313  16.716 -0.0199 -0.0458 -0.0957
13719W        W31243   0.352  14.537   4.260 -0.0359 -0.1873  0.0915
13720W        W31244   7.033   9.690  17.700  0.0834  0.2589  0.0366
13721W        W31245  12.654  14.324   1.113 -0.0108  0.0318  0.1602
13722W        W31246   4.831  16.846  16.381 -0.0926 -0.0026  0.2123
13723W        W31247  16.096  16.927   2.922  0.0566 -0.3252 -0.5331
13724W        W31248   2.267   7.471   0.870  0.0251  0.3811  0.3423
13725W        W31249   5.583   8.537   1.260 -0.3196  0.2426 -0.0224
13726W        W31250  16.286  11.634   5.130  0.1104  0.1172  0.1062
13727W        W31251   1.680  13.435   4.495  0.0660  0.0761 -0.0089
13728W        W31252  15.886   7.731  16.449 -0.1947 -0.0638  0.2237
13729W        W31253  14.711  11.599  15.792 -0.1383 -0.1833 -0.0508
13730W        W31254   7.535   7.602  12.700  0.0556  0.0229 -0.1246
13731W        W31255  16.422  15.465  14.307  0.2088  0.0175 -0.0393
13732W        W31256  13.878   1.245   0.130 -0.1806 -0.0577  0.1696
13733W        W31257  16.209  15.153  16.508 -0.1279 -0.0432  0.1886
13734W        W31258   6.082  10.749  15.459 -0.1150  0.0542  0.0803
13735W        W31259  11.518   1.885   5.461  0.0448 -0.0488  0.2481
13736W        W31260  12.095  16.824   0.709 -0.2137 -0.0349 -0.2383
13737W        W31261  14.727   7.596   2.941  0.2446  0.0619 -0.0034
13738W        W31262  10.782  11.308  11.736 -0.2568  0.1386  0.0347
13739W        W31263   0.466   6.569   2.848 -0.0347 -0.1592  0.0028
13740W        W31264   4.917   1.276  15.797  0.2715 -0.0774 -0.1115
13741W        W31265   5.991   4.365   4.424 -0.0345  0.3521  0.2169
13742W        W31266  15.730   8.555   3.483  0.0633 -0.1713 -0.2692
13743W        W31267   7.611   1.236   0.766  0.1131  0.3788  0.0427
13744W        W31268   7.322  14.260   4.121 -0.1394  0.1202 -0.0809
13745W        W31269  14.977   3.933   3.881  0.0091 -0.0897 -0.2179
13746W        W31270   4.717   2.584   1.607  0.1445 -0.1893 -0.2284
13747W        W31271   0.196  16.511   1.899  0.0238 -0.0079 -0.0230
13748W        W31272   7.634   4.637  15.468 -0.0865 -0.0258  0.0821
13749W        W31273   3.979   6.396   1.054 -0.0605 -0.0632  0.0211
13750W        W31274  10.491  13.155   3.882 -0.1881  0.2947 -0.0271
13751W        W31275  13.126   9.712  15.239  0.0828  0.0443 -0.0397
13752W        W31276  10.336  10.700   2.972 -0.1191 -0.1690  0.0860
13753W        W31277  11.732   7.053  13.253  0.0622  0.1091 -0.1740
13754W        W31278  12.627   9.616   4.497 -0.5193 -0.3731 -0.1148
13755W        W31279  14.612   0.217   2.918 -0.0260 -0.0601 -0.1499
13756W        W31280   3.698   5.422  13.731 -0.0978 -0.0376  0.1991
13757W        W31281  13.211   9.585   1.482 -0.1146 -0.1100 -0.1159
13758W        W31282  15.976   1.348  15.518  0.1374 -0.0664  0.0364
13759W        W31283  13.485  14.819   2.362 -0.1762  0.1721  0.0296
13760W        W31284   6.238  16.811   0.861 -0.1129  0.2588  0.1674
13761W        W31285   4.197   4.874   1.280  0.1103  0.0335 -0.1677
13762W        W31286  16.912  11.850   1.472  0.5054  0.1479 -0.0492
13763W        W31287  15.116   4.703  14.149  0.1461  0.1543  0.1826
13764W        W31288  16.151   6.851  15.100 -0.4511  0.2358 -0.1102
13765W        W31289   1.907  16.179   2.517 -0.0596  0.0084  0.0367
13766W        W31290   8.777   6.663   2.123  0.2292 -0.0560 -0.4026
13767W        W31291   7.172   3.341  13.412 -0.0078 -0.2205 -0.4495
13768W        W31292  14.166   1.131  13.995  0.1855 -0.0195  0.1722
13769W        W31293  11.299  10.605   0.285 -0.1059  0.2557 -0.0242
13770W        W31294   0.906   8.479   0.668  0.1219  0.0745 -0.2699
13771W        W31295  11.076   8.642  16.688  0.2143 -0.1129  0.0633
13772W        W31296  14.816   0.070  13.321 -0.0099 -0.1220 -0.1326
13773W        W31297  17.157   0.339  17.595  0.1964  0.3585 -0.2772
13774W        W31298  14.849  10.248  16.206  0.1382  0.2607 -0.0351
13775W        W31299   6.672   0.925  11.797 -0.2469  0.0429  0.0333
13776W        W31300   4.753   7.116   5.357  0.0533  0.0987  0.1579
13777W        W31301   2.011   2.196  15.238  0.1121 -0.0180  0.2164
13778W        W31302   4.746   4.463  14.308 -0.4737  0.4504 -0.1902
13779W        W31303   9.183   0.834   1.622 -0.2037 -0.0989  0.0972
13780W        W31304   3.280  10.101   2.671 -0.1127 -0.2352 -0.0687
13781W        W31305  14.931   2.641  16.046 -0.2251  0.0258  0.1783
13782W        W31306   0.171  13.754   4.730 -0.0124  0.4342  0.4112
13783W        W31307   1.414   8.656   5.065 -0.3915  0.1202 -0.1595
13784W        W31308  13.672   9.583   2.889  0.3362  0.1084  0.1338
13785W        W31309   2.558   5.182   0.552 -0.1254 -0.1463 -0.2488
13786W        W31310  16.707  16.991   3.841  0.1822 -0.0248  0.0283
13787W        W31311  15.538   0.943  15.321 -0.2214  0.2153 -0.1239
13788W        W31312   0.073   4.774   0.728  0.2686 -0.0643 -0.1419
13789W        W31313  16.317   8.336  14.399 -0.2168  0.0905 -0.1014
13790W        W31314   5.038   8.708   3.655 -0.0895 -0.0609 -0.1904
13791W        W31315   8.702   0.383   3.185 -0.3453  0.0282  0.1060
13792W        W31316   0.418  10.789  12.532  0.0559  0.0377  0.0584
13793W        W31317   6.203   3.927   4.927 -0.1844  0.1397 -0.1696
13794W        W31318  15.189   8.359   1.322  0.1368 -0.3790  0.0769
13795W        W31319  10.331  13.708  15.961 -0.1448  0.2932  0.1815
13796W        W31320   0.381   6.192   5.126 -0.0594 -0.3310 -0.2494
13797W        W31321   1.481   0.003  14.805  0.2258  0.0598 -0.0308
13798W        W31322   1.265   4.353  16.235  0.1654 -0.4581  0.0078
13799W        W31323  14.954   5.465   3.208 -0.4608 -0.1895 -0.0978
13800W        W31324   4.896   8.204   5.069 -0.0527 -0.0039  0.0322
13801W        W31325   7.239   0.060  14.034  0.2204  0.2275  0.0626
13802W        W31326  13.526  14.990  13.022  0.1204  0.2230  0.2656
13803W        W31327   2.647   2.310  16.737 -0.0738 -0.0432  0.3049
13804W        W31328  10.775  11.969  16.034  0.0620 -0.2292 -0.1208
13805W        W31329  11.787  14.462   1.540 -0.1973  0.1588  0.2893
13806W        W31330   1.255  10.895   5.553  0.3642  0.1792 -0.0226
13807W        W31331   5.577  10.682   5.279 -0.0500  0.0518  0.0743
13808W        W31332   0.355   4.498   5.333  0.1218  0.0724 -0.3542
13809W        W31333   1.854  15.225  15.261  0.0102 -0.2021  0.0896
13810W        W31334  13.584  16.639  13.514  0.0293 -0.0123 -0.0615
13811W        W31335  12.337  15.420  15.526 -0.1669 -0.1487  0.0405
13812W        W31336   6.766   8.203   4.912  0.1015  0.2391  0.0562
13813W        W31337   1.207   4.867   4.095 -0.1209 -0.0296  0.1810
13814W        W31338   6.741  10.869  11.977  0.0420 -0.2989  0.0439
13815W        W31339  11.864  10.315  15.144 -0.3383 -0.1232 -0.1314
13816W        W31340  15.404   5.094  17.027  0.0949 -0.0628  0.0387
13817W        W31341   5.303   7.942  15.091  0.0327 -0.1843  0.1763
13818W        W31342   9.805  12.608   3.280  0.1411  0.3187  0.1522
13819W        W31343  12.549   4.526  12.140 -0.1089 -0.2155  0.1716
13820W        W31344  12.872  13.720  12.859  0.0266  0.2403  0.2493
13821W        W31345   8.690   9.055   5.371 -0.2343  0.0458 -0.0070
13822W        W31346  16.871   0.115  16.606  0.3622 -0.0982 -0.2796
13823W        W31347   7.238   1.322  12.916  0.1654  0.1826 -0.1930
13824W        W31348   1.771   9.047  12.632 -0.1045  0.2238 -0.2710
13825W        W31349   4.365  13.230   0.625 -0.3249 -0.2164 -0.1607
13826W        W31350   8.291  16.421   3.150 -0.1509 -0.1724  0.1016
13827W        W31351   2.606  14.974   5.878 -0.0773 -0.1161 -0.1716
13828W        W31352   7.734   5.601  12.396 -0.0568 -0.0793 -0.1789
13829W        W31353   3.010   9.119   4.290  0.1901  0.1593  0.0444
13830W        W31354   5.157  15.948   2.963 -0.0937  0.2411 -0.1804
13831W        W31355  13.525  14.267   1.084 -0.1522  0.0100  0.3310
13832W        W31356   4.753   8.261   3.181 -0.0246  0.0252 -0.2321
13833W        W31357  15.994   7.771   4.436  0.0125  0.0267  0.0268
13834W        W31358   1.410   1.888   0.379 -0.0385 -0.2146  0.0503
13835W        W31359   1.975   9.698   5.428  0.0008  0.0939  0.1707
13836W        W31360   1.135  14.217   2.660 -0.0437  0.1855 -0.1476
13837W        W31361   1.744   1.009   0.128  0.1947  0.2315 -0.2483
13838W        W31362   1.121   2.919   4.167  0.1434  0.1076 -0.2197
13839W        W31363  10.213   1.924  16.230  0.1054  0.4141 -0.1756
13840W        W31364   6.419  14.942   2.456 -0.1154  0.2114  0.1283
13841W        W31365  14.472  11.403  12.896  0.1022 -0.0505 -0.1633
13842W        W31366   0.012  11.019   0.538 -0.0053 -0.1458  0.1655
13843W        W31367   5.999   0.585  15.590  0.3282 -0.0553  0.1148
13844W        W31368   4.845   6.648  12.742 -0.0421  0.3127 -0.2403
13845W        W31369  11.381   3.144  14.024 -0.0073 -0.0570 -0.0578
13846W        W31370  15.051   3.201   5.061  0.1404  0.1631 -0.1392
13847W        W31371  12.527  16.211   3.557 -0.0131  0.6143  0.2618
13848W        W31372   2.406   5.504   5.875  0.2019  0.2704  0.0197
13849W        W31373   5.477  16.218  13.640  0.0420 -0.0645  0.1715
13850W        W31374   3.648  14.589   0.718  0.0529 -0.1841 -0.2703
13851W        W31375  11.377   6.542   0.007  0.3092  0.0672  0.0371
13852W        W31376   5.009   5.072   5.165  0.0479 -0.1145  0.1643
13853W        W31377  14.290   6.083   4.634 -0.2065  0.0867  0.2195
13854W        W31378   3.726   5.694  11.788  0.1514  0.1787 -0.1294
13855W        W31379  10.167   5.890   3.553 -0.1314 -0.0764 -0.2813
13856W        W31380  12.189  13.073  14.694  0.1575  0.2193  0.1755
13857W        W31381   1.134  15.697  15.784 -0.2083 -0.1118 -0.0725
13858W        W31382   3.320  15.993  12.758  0.2419  0.0269  0.2251
13859W        W31383   2.700   1.426  15.038 -0.2435  0.0008 -0.2649
13860W        W31384  16.937  10.555  17.427  0.1796  0.3079  0.2943
13861W        W31385   3.926  14.491  14.148  0.2122  0.0052  0.1682
13862W        W31386   3.153   0.353  16.496  0.2906  0.0348  0.0654
13863W        W31387  17.136   6.295  13.887 -0.0747  0.2714 -0.0735
13864W        W31388   4.658  10.029   0.835  0.0905  0.0341  0.3148
13865W        W31389  12.710   9.638  16.017  0.0473  0.4738  0.0534
13866W        W31390  13.435   8.067  12.736  0.0891 -0.2246  0.1419
13867W        W31391   7.802   3.935  17.182  0.1703  0.1319  0.2690
13868W        W31392  10.087   3.441  14.050  0.1599  0.2656  0.1554
13869W        W31393   3.457   6.777   1.692 -0.1031 -0.2096  0.0811
13870W        W31394   2.364   4.985   5.905 -0.3411 -0.1269 -0.1794
13871W        W31395  16.068  14.660  14.355 -0.2880  0.2778 -0.2082
13872W        W31396   6.775  15.861  15.690  0.1900 -0.1278  0.0390
13873W        W31397  16.817   5.040  14.972 -0.0115 -0.3033 -0.0069
13874W        W31398  13.630  15.423  16.170  0.0249  0.2259  0.1101
13875W        W31399   8.227  13.566   3.700 -0.0826  0.1866  0.0487
13876W        W31400   0.095  10.908   3.182  0.1581 -0.1969  0.0287
13877W        W31401  16.935  11.056  16.236  0.3030  0.0564 -0.1027
13878W        W31402  16.894   4.850   0.330  0.1362  0.1301 -0.0764
13879W        W31403   7.975  15.646  15.734  0.0926  0.0929 -0.0806
13880W        W31404   1.137   3.157   2.391  0.1716  0.4270 -0.0409
13881W        W31405   9.237  12.367  13.167 -0.4117 -0.1907 -0.0520
13882W        W31406  10.860  15.032   4.445 -0.1250 -0.2264  0.3037
13883W        W31407  10.058  11.845  15.979 -0.1169 -0.0783 -0.1251
13884W        W31408   2.654  14.181  16.591  0.2178  0.2728  0.1702
13885W        W31409   6.946   7.526   2.027  0.0103  0.0257  0.0273
13886W        W31410   2.213   7.598  12.351  0.3241 -0.0382  0.1515
13887W        W31411   4.203   3.655  17.713 -0.0371 -0.1017  0.0374
13888W        W31412  15.323   9.371  14.547 -0.0646 -0.0727  0.1542
13889W        W31413  16.240   4.997   5.243 -0.4795 -0.1890  0.3452
13890W        W31414   2.911  14.907   2.818  0.0240  0.1169 -0.1042
13891W        W31415  13.996   7.094   0.783  0.2584 -0.0597 -0.3671
13892W        W31416   9.135   1.622  13.931  0.0558  0.0304 -0.0960
13893W        W31417   9.858   2.047  12.614 -0.0199  0.2509  0.1189
13894W        W31418  12.056   3.208  14.917  0.0048  0.0639  0.1087
13895W        W31419   9.170   4.519  15.599 -0.0263  0.2396 -0.0538
13896W        W31420   7.941   6.737  16.915 -0.0747  0.0622  0.0275
13897W        W31421   9.549  12.526  16.730 -0.1695  0.3841  0.0026
13898W        W31422  10.957  14.490   2.633 -0.2328 -0.0708  0.2050
13899W        W31423  10.081   4.656  15.638 -0.2146  0.0430 -0.2434
13900W        W31424  11.671  10.630   1.938  0.1755 -0.4060  0.5021
13901W        W31425  14.605  13.015  11.756  0.2270  0.2087 -0.3365
13902W        W31426   7.622  11.122  13.005  0.2690  0.1250 -0.3515
13903W        W31427   4.433   9.201  11.808  0.1583  0.0673  0.1625
13904W        W31428   7.225   6.399  14.603 -0.1069  0.0053  0.0706
13905W        W31429   7.563  14.602   1.552  0.0657  0.1471  0.3995
13906W        W31430  11.386   9.135  15.185  0.0875  0.1706  0.3019
13907W        W31431  12.814   2.506   3.985 -0.0411  0.1303 -0.0083
13908W        W31432  13.492   1.096  16.500  0.1237  0.0021  0.1307
13909W        W31433  13.150   5.205   1.457  0.1387  0.2420 -0.2051
13910W        W31434  10.432   8.052   2.062 -0.1932  0.1475  0.3813
13911W        W31435  14.703   4.128  16.642  0.0996  0.0431 -0.0276
13912W        W31436   9.898  11.312   1.399 -0.2945 -0.2410 -0.1644
13913W        W31437   3.036   4.741  14.069 -0.1545 -0.2161 -0.0040
13914W        W31438  13.803   9.473  14.105  0.2614 -0.0719 -0.2430
13915W        W31439   2.407  12.192   0.071  0.0072 -0.0995 -0.0413
13916W        W31440  16.062   5.356  12.655  0.2691  0.0778 -0.2625
13917W        W31441  11.606  16.275   4.719  0.0397 -0.1293  0.1559
13918W        W31442   1.305   1.851  13.672 -0.0618 -0.0886 -0.1015
13919W        W31443   2.783   2.788  17.502  0.0432 -0.0896 -0.1759
13920W        W31444  16.347  14.891  15.696 -0.4156  0.2385 -0.3448
13921W        W31445   7.407   8.275  12.420  0.2546  0.3547  0.3505
13922W        W31446  13.744  14.239   0.239 -0.4410 -0.0009  0.0629
13923W        W31447  12.516  14.826   3.780 -0.0584  0.3135  0.2855
13924W        W31448   7.067   7.936   0.326  0.1112  0.0076 -0.0138
13925W        W31449  15.176   2.282  14.054  0.2160  0.0827  0.2264
13926W        W31450   9.998   0.676  16.736 -0.3435  0.1825 -0.0890
13927W        W31451   3.838   9.078  15.466 -0.2411 -0.2594 -0.0942
13928W        W31452   5.109  17.057  13.504 -0.0339  0.1419  0.1683
13929W        W31453   2.106   8.421   0.592  0.0185  0.0342 -0.1512
13930W        W31454  13.342   1.927  17.592  0.2570  0.1279  0.2304
13931W        W31455  13.223  12.683   1.433 -0.1682  0.0935  0.0976
13932W        W31456   7.066   2.901  12.616 -0.1017 -0.1789  0.0477
13933W        W31457   0.298   2.182   1.707 -0.0049  0.0378 -0.3093
13934W        W31458  14.348  15.658  17.308 -0.1078  0.0722  0.0350
13935W        W31459  11.597  14.792  17.403 -0.0595  0.1537 -0.0818
13936W        W31460  17.101  10.163   2.572  0.0135  0.0499  0.1252
13937W        W31461   0.784  14.209   3.998  0.4015  0.1322  0.1993
13938W        W31462   9.148  11.183  14.989 -0.1354 -0.3268 -0.0073
13939W        W31463   6.534   6.135  15.803  0.1797 -0.0505  0.1877
13940W        W31464   6.026  12.801   2.684 -0.0250  0.3613  0.0187
13941W        W31465   6.272   5.088  16.311 -0.0986  0.0572 -0.0825
13942W        W31466  15.361  10.253   2.253 -0.2471 -0.0764 -0.2272
13943W        W31467  10.963  14.346   1.625 -0.0571  0.0055 -0.1141
13944W        W31468   4.304  16.241   5.450  0.0731  0.1642  0.0461
13945W        W31469  14.992  14.529  15.927 -0.0997 -0.1053 -0.0384
13946W        W31470   4.070   4.588   5.117 -0.0031  0.4249  0.2123
13947W        W31471   5.795   3.221  14.269  0.0704  0.3708  0.1856
13948W        W31472   8.008   3.637  16.409  0.2083 -0.0914  0.4201
13949W        W31473  11.187   1.062  16.117  0.0354  0.0465 -0.0963
13950W        W31474  10.266   4.978  11.610 -0.1497  0.3048  0.0868
13951W        W31475  16.370   3.814  13.931  0.1817 -0.1562  0.0431
13952W        W31476  14.896   9.749  16.281 -0.0607 -0.1130  0.0421
13953W        W31477  14.315   8.806   2.594  0.1756  0.1739  0.1682
13954W        W31478  14.880   9.382   4.001 -0.2761  0.2254 -0.0394
13955W        W31479  14.313   4.026  14.237  0.4264  0.0201  0.0713
13956W        W31480   6.873   5.769   4.278 -0.0230  0.1079  0.0575
13957W        W31481  16.093   7.204   2.220  0.1408 -0.3663 -0.3716
13958W        W31482  11.905  16.942  12.741  0.0364 -0.2690  0.3176
13959W        W31483   9.610   8.161  14.722 -0.1831 -0.1446  0.0500
13960W        W31484  14.021  11.537  12.377 -0.1578  0.1107 -0.2838
13961W        W31485  12.685  12.557  11.991  0.2138 -0.0458  0.0634
13962W        W31486  16.855   5.821  12.544  0.1242  0.0274  0.1227
13963W        W31487   5.385   7.028   5.349 -0.3003 -0.0517 -0.2507
13964W        W31488  13.804  12.406  16.374  0.1280  0.1692 -0.1110
13965W        W31489  14.812   9.198   1.602  0.3742 -0.0310  0.0485
13966W        W31490   2.527   4.505   4.560  0.1282  0.0753  0.0669
13967W        W31491   2.670  14.741  13.895 -0.0611 -0.2856  0.0630
13968W        W31492   0.595  11.698  17.395 -0.1645  0.0670 -0.1427
13969W        W31493   1.674  14.275   4.003  0.1308  0.2113  0.0665
13970W        W31494  13.518  16.233   5.073 -0.2860  0.0678 -0.2374
13971W        W31495   3.806  10.126  12.299  0.1652  0.2070  0.0291
13972W        W31496   7.483  10.966   2.091 -0.3929  0.3468 -0.2299
13973W        W31497   7.284  16.914   4.400 -0.1501 -0.3801 -0.1311
13974W        W31498   9.262   7.770  15.436 -0.0497 -0.1219 -0.1419
13975W        W31499  15.344   0.733  14.586 -0.2618 -0.1831 -0.0636
13976W        W31500   9.600  15.545  13.574  0.1461  0.3917  0.2084
13977W        W31501  12.758   7.867   0.069 -0.3465  0.0373  0.0552
13978W        W31502   7.451  16.558  13.296  0.0195 -0.1016  0.1579
13979W        W31503   0.433   9.570   1.507 -0.1248  0.1280  0.1660
13980W        W31504   8.665  11.251   4.938 -0.0830  0.0162 -0.0401
13981W        W31505   4.418  15.408   5.040  0.0411  0.0543 -0.1376
13982W        W31506  12.734  15.236   5.536  0.2824  0.0863  0.0492
13983W        W31507   8.387  12.085  14.239  0.0858 -0.1509  0.0653
13984W        W31508   4.483  13.776  12.302  0.0071 -0.1359  0.1756
13985W        W31509  11.508   5.153   2.190 -0.1580  0.1163  0.1583
13986W        W31510  12.264   8.051   0.719  0.0829  0.1432 -0.1170
13987W        W31511  14.813   5.850  14.983 -0.0533  0.2404  0.0455
13988W        W31512  15.913   0.274  14.483  0.0108 -0.2297  0.0357
13989W        W31513  13.820   6.038   0.994  0.0846  0.1518 -0.0122
13990W        W31514  11.092   5.899   0.427  0.0978 -0.0112 -0.1132
13991W        W31515  14.368  14.164  14.171 -0.1312  0.4918 -0.2526
13992W        W31516   9.530   6.635   3.179 -0.2129 -0.0512  0.0854
13993W        W31517   5.027  15.675   0.992  0.1098  0.2031  0.1123
13994W        W31518   4.871   7.321   3.527  0.3484  0.2679  0.0772
13995W        W31519  13.362   8.360  16.103 -0.0704 -0.3135 -0.0008
13996W        W31520  15.233   2.500   5.714 -0.3132 -0.1611 -0.0446
13997W        W31521  16.988   9.183  13.624  0.1140  0.0488 -0.0878
13998W        W31522  10.630  13.437  12.373 -0.0591 -0.0325  0.1020
13999W        W31523   7.932  11.009   5.019 -0.2784  0.1631 -0.2280
14000W        W31524  12.924   5.350   1.854 -0.0421  0.1806 -0.0805
14001W        W31525  15.806  14.496  14.819  0.0346  0.1030  0.3396
14002W        W31526   5.799   2.761   4.025  0.3747  0.1457 -0.1512
14003W        W31527   9.873  10.718  15.192  0.0391  0.2286 -0.2610
14004W        W31528   0.872   5.376  16.849  0.0762 -0.0524 -0.1092
14005W        W31529  13.408  14.359   3.628 -0.0335 -0.1674  0.1817
14006W        W31530   9.569  15.174   3.976  0.0824  0.0004  0.3359
14007W        W31531   6.707   9.932   4.699  0.2138 -0.2091  0.0564
14008W        W31532   3.107   1.786  15.534  0.0000 -0.2445  0.1412
14009W        W31533   4.280   5.899  12.702  0.1649 -0.0996  0.0719
14010W        W31534   6.979   3.161   1.951 -0.0914  0.0307  0.0167
14011W        W31535   6.797   4.772  13.833 -0.0128 -0.0361 -0.3584
14012W        W31536   0.135   5.816  15.948  0.2565  0.1699  0.1354
14013W        W31537  12.627  12.976   4.364  0.0924  0.0648  0.1104
14014W        W31538   3.446  12.877  15.050  0.0173  0.1936 -0.1098
14015W        W31539  17.116  10.701   0.933  0.0812 -0.1002 -0.0418
14016W        W31540   1.573   1.958   0.914 -0.0799  0.0203 -0.3343
14017W        W31541   2.477   2.199  14.984 -0.1214 -0.0436 -0.5574
14018W        W31542   9.908   6.560  15.075 -0.0735 -0.1543  0.3106
14019W        W31543  12.339   3.841   4.151  0.2337 -0.2245 -0.1372
14020W        W31544   8.943   2.232  13.176  0.0871 -0.2415 -0.0019
14021W        W31545   0.802  10.810   4.230 -0.2156 -0.1721  0.1892
14022W        W31546   1.381  11.363   0.672  0.1527  0.1168 -0.1072
14023W        W31547   9.955   9.141   0.166 -0.1985  0.0749  0.3342
14024W        W31548   7.196   2.641  11.768 -0.1940  0.2592  0.1199
14025W        W31549   7.430   7.136  13.715 -0.1382  0.2160  0.0297
14026W        W31550   8.387   1.924  14.171  0.0478  0.0127 -0.0272
14027W        W31551  13.623  10.855   1.560 -0.5298 -0.0079 -0.0576
14028W        W31552  16.562   2.316   1.106 -0.1465  0.1968 -0.0146
14029W        W31553  15.314   1.525  13.484 -0.2601  0.0588  0.1863
14030W        W31554   2.186   9.001   2.792 -0.2782  0.0200 -0.0641
14031W        W31555   7.811   8.222  16.020 -0.1645 -0.3701 -0.0937
14032W        W31556   9.046  15.091  14.571 -0.0306 -0.1874  0.3207
14033W        W31557  12.707   6.648   0.811 -0.0177 -0.0322  0.1860
14034W        W31558   6.902  10.929  13.377  0.1517 -0.2958 -0.0795
14035W        W31559   9.002  12.498   1.100 -0.2955 -0.1155  0.2828
14036W        W31560  14.891  15.489   3.438  0.3840  0.0468 -0.1058
14037W        W31561  12.758   8.368   2.625  0.1731  0.0737  0.0599
14038W        W31562  13.852   7.822   4.605  0.1671  0.0710 -0.4286
14039W        W31563   0.233   5.641  14.337  0.0954  0.1013  0.1104
14040W        W31564  14.701   4.442  15.472  0.1912  0.3450  0.1378
14041W        W31565  13.426   4.058   4.891 -0.1418 -0.3146 -0.1178
14042W        W31566   6.881   3.047  14.338 -0.0384 -0.0153  0.0427
14043W        W31567  12.326   3.237   4.357  0.2398 -0.1095 -0.4068
14044W        W31568   4.974   0.681  17.478 -0.1661 -0.0974 -0.4173
14045W        W31569  15.187   4.091   1.697 -0.2058  0.2978  0.0921
14046W        W31570  11.999   5.764   0.774 -0.2686  0.2075 -0.0659
14047W        W31571   8.491  13.555   4.734 -0.0516  0.1376 -0.1026
14048W        W31572  12.807   3.277   0.829  0.1733  0.3760 -0.0630
14049W        W31573  10.746   0.888  14.331  0.1431 -0.1161  0.0082
14050W        W31574  17.096   5.410  14.717  0.1616  0.3271 -0.0834
14051W        W31575   6.398   6.540  15.013  0.0681 -0.0703  0.0898
14052W        W31576  10.423   3.681   5.013  0.2260 -0.0729 -0.1678
14053W        W31577  10.947   5.184  15.268  0.0851 -0.0935 -0.3316
14054W        W31578  11.866   5.694  16.429 -0.1407 -0.2742 -0.1741
14055W        W31579   1.224   0.380   2.176 -0.1539  0.0507 -0.0572
14056W        W31580  13.476   3.958  17.034  0.2590  0.3589 -0.0984
14057W        W31581  11.736   3.228   2.152  0.0435 -0.0910 -0.0920
14058W        W31582  10.638   3.568   3.220  0.0484  0.1564 -0.0340
14059W        W31583  16.463   1.511  13.894 -0.3387 -0.0147  0.1164
14060W        W31584  14.353  15.633   3.474  0.2137  0.0980 -0.2955
14061W        W31585   7.058  11.416  14.314  0.0670 -0.1172  0.2362
14062W        W31586   6.777  16.308  14.308  0.2359 -0.2325 -0.2363
14063W        W31587   1.877  16.972  13.863  0.3263  0.2330 -0.0132
14064W        W31588   7.970  13.801   4.845  0.0923 -0.0221  0.1306
14065W        W31589  15.856  12.214  13.339 -0.1917 -0.2162  0.2667
14066W        W31590  16.222  10.373   2.303  0.2585  0.1560  0.1286
14067W        W31591  13.965  10.528  17.635  0.0402  0.2989  0.2781
14068W        W31592   9.365   2.640  14.987  0.2661  0.0254 -0.0667
14069W        W31593  14.009  12.803   4.290 -0.1331  0.2552 -0.0226
14070W        W31594  15.812   0.737  14.849 -0.3853  0.1997  0.1136
14071W        W31595  10.220   9.734  13.423  0.0187 -0.1304 -0.2567
14072W        W31596   5.126  12.747  15.249  0.1078  0.2313 -0.1124
14073W        W31597  11.892   3.253   3.009  0.3454  0.0927 -0.1079
14074W        W31598   8.179   4.986   3.663 -0.2161 -0.1840 -0.0826
14075W        W31599   9.598   7.703   4.470  0.0728  0.0687  0.2173
14076W        W31600  13.996   3.935   2.238 -0.2545  0.0103  0.2008
14077W        W31601   6.810   6.028  13.817  0.1633 -0.3117  0.1020
14078W        W31602   8.217   5.005  14.025  0.0339 -0.1135  0.0219
14079W        W31603   2.881  12.343  17.414 -0.2920 -0.0611 -0.1512
14080W        W31604  16.776  10.204   3.447 -0.4793  0.3746  0.1226
14081W        W31605  15.771  14.810  17.092 -0.1143  0.1033  0.1213
14082W        W31606   3.675   3.023   4.514 -0.1121 -0.1410 -0.2841
14083W        W31607   9.200   9.974   4.105 -0.0581 -0.1011  0.0463
14084W        W31608  10.070   2.176  15.272 -0.0340  0.0173 -0.0140
14085W        W31609   5.354  14.648  14.904  0.2520  0.1026  0.1723
14086W        W31610  13.091   4.355   0.961  0.1071 -0.0506 -0.2164
14087W        W31611   5.949   3.891   2.599  0.3012 -0.2648 -0.0486
14088W        W31612   3.639   9.083  15.966 -0.0153 -0.1673  0.2628
14089W        W31613  13.733   8.297  14.818  0.1994 -0.0132 -0.0930
14090W        W31614   1.331   8.895  12.958  0.1829 -0.0005 -0.3460
14091W        W31615  10.651   8.519   1.857  0.1634  0.0149 -0.1047
14092W        W31616  15.975   3.500  13.845  0.0697 -0.1867  0.0940
14093W        W31617   2.831   6.791  12.366 -0.1200 -0.0892  0.1593
14094W        W31618   1.387  13.459  16.072 -0.0805 -0.5686  0.2194
14095W        W31619  17.161  15.409  11.850  0.0753  0.2604 -0.1122
14096W        W31620   9.556  11.893  15.943  0.1912 -0.1557 -0.0168
14097W        W31621   0.731  16.371   3.181 -0.0948  0.1179 -0.0448
14098W        W31622   3.806   0.941   5.492 -0.0786 -0.2187  0.0300
14099W        W31623  16.671   5.927  16.557  0.0093 -0.1753 -0.0310
14100W        W31624   7.235  12.172  14.685 -0.2433 -0.0254 -0.3341
14101W        W31625   8.342  15.148   3.655  0.0791  0.2172  0.1039
14102W        W31626   0.087   8.523  14.068 -0.0276 -0.1777  0.0125
14103W        W31627  14.913   1.420   2.752 -0.1213  0.3116 -0.0588
14104W        W31628  15.302  15.717  14.646 -0.2252  0.0121  0.1348
14105W        W31629   6.754   5.281   4.281  0.0052 -0.2387  0.1669
14106W        W31630   5.422   7.704   1.290  0.0009 -0.2115 -0.1684
14107W        W31631   7.823   1.090  12.205  0.0083  0.0943  0.1702
14108W        W31632   8.291  11.852  14.691 -0.1540  0.0522  0.0530
14109W        W31633   2.353  16.756  17.380 -0.0888 -0.1373  0.1682
14110W        W31634  15.283   2.277   3.729  0.2166 -0.1506  0.1052
14111W        W31635   3.639  10.861  17.337  0.0398 -0.1733  0.2805
14112W        W31636   3.218  14.792  15.738  0.0068  0.1131 -0.0091
14113W        W31637   2.371   3.727   5.146 -0.0097 -0.1565 -0.2209
14114W        W31638   9.188  12.144  14.682  0.1919  0.2505 -0.0015
14115W        W31639   8.727   9.635  13.610  0.1979 -0.0044 -0.0525
14116W        W31640  14.787   2.278   0.221 -0.1442 -0.1791  0.1081
14117W        W31641  16.963  11.655  12.842 -0.0465  0.0364  0.0829
14118W        W31642   2.079   1.543  16.222 -0.1281  0.0177 -0.1679
14119W        W31643   9.711  15.511  16.174  0.0459  0.0751 -0.0942
14120W        W31644   6.052  16.974   0.450  0.3258 -0.2152 -0.0805
14121W        W31645   7.269  16.543   3.551 -0.2245  0.0253  0.1802
14122W        W31646   1.224  12.860  14.271 -0.0572 -0.0111 -0.2715
14123W        W31647  12.280   6.024  16.535 -0.2578  0.1169 -0.1086
14124W        W31648   7.632   8.003  14.193  0.2544 -0.0057  0.1564
14125W        W31649   6.604   2.169  15.442 -0.0410 -0.0590 -0.0631
14126W        W31650   2.926   6.717   2.379  0.1417 -0.1071  0.2376
14127W        W31651  13.482   0.418   4.537 -0.2875  0.2575  0.2307
14128W        W31652   6.207   6.505  17.560 -0.0304 -0.0943  0.3978
14129W        W31653  11.544   0.971  15.244 -0.1525  0.0122 -0.2159
14130W        W31654  14.267   6.052   2.366  0.0429  0.1618 -0.1438
14131W        W31655   4.706   0.529  15.566 -0.3139  0.0597 -0.1808
14132W        W31656   2.727   9.108   1.982  0.0222  0.3197 -0.0257
14133W        W31657  11.147  12.468  12.304 -0.2540 -0.1800 -0.3473
14134W        W31658   8.155  11.699  16.165 -0.0554 -0.0465 -0.2274
14135W        W31659  12.377  12.332  13.496  0.0838 -0.0520  0.1972
14136W        W31660   4.127   3.276  14.102  0.0305 -0.0206  0.4106
14137W        W31661  13.890  16.257  16.023 -0.2574  0.3173 -0.1478
14138W        W31662  10.103   4.508   4.249  0.2051 -0.2059 -0.3476
14139W        W31663  13.083   0.173   0.907 -0.0213 -0.0662  0.0616
14140W        W31664  12.160  13.610   2.058 -0.2165  0.1312 -0.0809
14141W        W31665  10.541   5.402   0.939 -0.0217 -0.0150 -0.2672
14142W        W31666  16.437  12.508   3.665 -0.0340  0.0929 -0.0402
14143W        W31667   5.163   0.151   3.758 -0.0353 -0.1374 -0.1506
14144W        W31668   3.400  11.627   3.385 -0.2058 -0.2758 -0.2450
14145W        W31669  16.336   0.058  12.825 -0.1225  0.1672 -0.1635
14146W        W31670  16.947  16.909  15.774  0.0673 -0.2271 -0.0984
14147W        W31671   5.585   2.378  16.659  0.1188 -0.0234 -0.1784
14148W        W31672   6.363  12.312   1.868  0.1830  0.5944  0.1916
14149W        W31673   4.829   5.057   4.228  0.0412 -0.1956  0.0999
14150W        W31674   1.453  10.519  14.355  0.0199  0.0899  0.2337
14151W        W31675   5.079  16.792  15.342  0.1970 -0.1052  0.3108
14152W        W31676  10.343   5.971   1.164 -0.0544  0.1928 -0.1348
14153W        W31677  15.223  13.954   5.133 -0.1483 -0.0126 -0.0654
14154W        W31678  16.629  15.109  16.201  0.1813  0.2406 -0.1257
14155W        W31679  17.001   6.198   5.351 -0.0531 -0.3796 -0.1791
14156W        W31680   7.519   2.634  15.345  0.1329  0.1288 -0.0059
14157W        W31681  10.745   6.041  15.178 -0.0366  0.0260  0.0353
14158W        W31682  13.044   9.024   3.903 -0.0295  0.1066 -0.1158
14159W        W31683  12.803   4.691   3.293 -0.2434 -0.0736  0.3685
14160W        W31684   1.070   6.081  15.908  0.1915 -0.1812 -0.0639
14161W        W31685   4.154  14.232  15.645 -0.1917  0.3200 -0.0251
14162W        W31686   0.904  16.391   4.206  0.1552  0.2822 -0.0504
14163W        W31687   7.218  15.966  15.535  0.1769  0.2280  0.5378
14164W        W31688  13.584  15.847   2.757 -0.1595 -0.0101 -0.0744
14165W        W31689   2.332   4.153  16.247  0.2507 -0.1034 -0.0865
14166W        W31690   3.724  10.175  13.406  0.2565  0.0900  0.2348
14167W        W31691  15.826   1.664  17.266 -0.3925  0.0995 -0.3096
14168W        W31692   5.824  16.425  13.308  0.3520  0.1391 -0.2258
14169W        W31693   8.643   0.680   2.698 -0.0753  0.1726  0.0863
14170W        W31694  14.277   5.840   5.601 -0.1914 -0.1850  0.1777
14171W        W31695  16.425  13.318  17.677  0.2488 -0.0779 -0.1815
14172W        W31696  14.770   7.224   1.392  0.1871 -0.1430 -0.0843
14173W        W31697   3.418   4.461  13.834  0.0253  0.1534 -0.0776
14174W        W31698   4.284  16.629  16.634  0.1319 -0.1240 -0.2405
14175W        W31699   4.362   2.887   1.867  0.1617 -0.3362 -0.0990
14176W        W31700   6.910   2.105   4.845 -0.1501  0.1543  0.2836
14177W        W31701   9.977   7.496  17.290 -0.0331  0.1020 -0.1177
14178W        W31702   7.348  14.813   2.667  0.1021 -0.1622  0.1627
14179W        W31703   6.173   5.934  15.995  0.2082  0.2454  0.1979
14180W        W31704  16.934  10.164  12.880  0.1637 -0.0882  0.0749
14181W        W31705  13.980   9.949  13.320  0.0363  0.1760  0.2157
14182W        W31706   5.634   4.995  13.598  0.0730  0.1679 -0.1724
14183W        W31707  16.400   8.254   0.564 -0.0400 -0.1679  0.2620
14184W        W31708  12.312  15.997  15.415 -0.0901  0.1294 -0.3652
14185W        W31709   0.873   4.358  13.863  0.1157 -0.2882  0.2240
14186W        W31710   5.180  16.957   0.829 -0.0274  0.0646 -0.0188
14187W        W31711  11.032   5.048   2.231 -0.1779 -0.0499 -0.0397
14188W        W31712   7.482   5.973  14.715  0.0296  0.3789 -0.3714
14189W        W31713   8.085  12.187  15.889 -0.1521  0.1019  0.1292
14190W        W31714  10.645   7.589  16.193 -0.0829  0.1995 -0.3476
14191W        W31715   2.941   9.698  15.673 -0.1567  0.0700  0.0297
14192W        W31716   0.115   7.153  15.343 -0.3127 -0.0521 -0.0868
14193W        W31717  10.068   8.255   3.756  0.2040 -0.0125 -0.1718
14194W        W31718  10.960   7.302   0.160 -0.0265  0.1925  0.0656
14195W        W31719   2.689   9.980   3.101  0.0099 -0.1801  0.0866
14196W        W31720  10.193  16.397  15.198 -0.0954  0.3282 -0.0905
14197W        W31721   6.950  14.025  17.644  0.0206  0.3195  0.2501
14198W        W31722   9.505  13.178  13.142 -0.3535  0.1476 -0.2503
14199W        W31723  12.573  16.906   5.381 -0.6330 -0.0151 -0.1655
14200W        W31724   6.023   9.260  16.529  0.0800 -0.1702 -0.0459
14201W        W31725  14.226   8.495   1.938  0.0744  0.1856 -0.0831
14202W        W31726   1.832   3.349  16.433 -0.2363  0.0457 -0.0425
14203W        W31727  12.626  11.655   5.034  0.0894 -0.1274 -0.0126
14204W        W31728   8.041   6.676  12.043  0.1116 -0.1079  0.3553
14205W        W31729   6.629  12.610   3.813 -0.2476 -0.2316 -0.0424
14206W        W31730  13.631  16.379   2.890 -0.3213 -0.1204 -0.1623
14207W        W31731  13.015   4.303   1.459  0.2369  0.0612  0.0620
14208W        W31732   6.925   9.054  14.928 -0.2240 -0.1788 -0.0662
14209W        W31733  10.461   3.273  15.813  0.0091  0.0162 -0.0423
14210W        W31734   8.013  14.506  15.316  0.2211  0.0588  0.3205
14211W        W31735  14.764   5.895   2.237  0.0185 -0.0582  0.0570
14212W        W31736  12.075   2.381  12.691  0.2516 -0.1451 -0.0466
14213W        W31737  15.537  16.239  15.762 -0.1253 -0.1587  0.1879
14214W        W31738  16.468   2.051  13.415 -0.0759 -0.0884  0.0947
14215W        W31739   5.460  15.754   0.094 -0.3108  0.2671  0.1771
14216W        W31740  11.181  12.942   4.836  0.0788 -0.1178  0.1608
14217W        W31741   4.789  14.110   0.643  0.1148 -0.0598 -0.0697
14218W        W31742   4.253   6.080   0.779  0.3871 -0.2339  0.1851
14219W        W31743   1.321   8.799  16.191 -0.3348 -0.2347  0.3759
14220W        W31744   7.406   7.529   0.718  0.0601  0.1261  0.2382
14221W        W31745  12.599  13.838   0.247  0.3743 -0.2177  0.0679
14222W        W31746  13.962   7.558  14.129 -0.1971 -0.3264 -0.0887
14223W        W31747  11.249   2.165   5.139  0.1165  0.0495 -0.2712
14224W        W31748   1.389   3.409  12.359  0.1418  0.2287  0.3303
14225W        W31749   9.603   5.724  15.046  0.2134 -0.0886 -0.1442
14226W        W31750   3.222   5.017   0.841  0.0304  0.3011 -0.0390
14227W        W31751   8.582   0.256   1.181  0.0623  0.0255  0.0684
14228W        W31752   6.438  13.368  17.484 -0.0113 -0.3096 -0.1007
14229W        W31753   0.057   1.205  13.456  0.0817 -0.1157  0.0953
14230W        W31754   1.804  12.352  15.047  0.1023  0.1467 -0.0817
14231W        W31755  13.914   0.636   0.197  0.1523  0.5188 -0.0764
14232W        W31756   1.726   1.256   4.309  0.1392 -0.0702 -0.2232
14233W        W31757   7.244  11.319   5.035  0.0168 -0.1283 -0.0217
14234W        W31758  15.299  12.512  16.721 -0.0538  0.1421  0.5443
14235W        W31759   8.516  14.121  14.541  0.1518  0.1119 -0.1424
14236W        W31760  14.347   6.501   1.941 -0.1778  0.1271 -0.0486
14237W        W31761  15.655   6.452  15.835  0.0853  0.1866 -0.0473
14238W        W31762   1.174  10.041   1.037  0.0019  0.1255  0.3657
14239W        W31763   7.791   1.942   2.458  0.1205 -0.0228  0.0718
14240W        W31764   5.674  12.543  13.727  0.3125 -0.0996  0.1091
14241W        W31765  11.288  11.929   4.094 -0.1336 -0.2567  0.0025
14242W        W31766  12.270   7.547   0.785  0.1926  0.0993  0.1572
14243W        W31767  13.423   9.558  14.619  0.0152 -0.0737 -0.1517
14244W        W31768   1.596   0.988  16.691  0.1165  0.1187 -0.1356
14245W        W31769   0.949   4.641   1.052  0.0476 -0.2756 -0.4626
14246W        W31770   6.160   8.591  12.971  0.0908 -0.0142 -0.0988
14247W        W31771   6.611  12.748  12.349  0.1725  0.0347 -0.0095
14248W        W31772   7.409  14.234   0.002  0.3202  0.0459  0.1214
14249W        W31773  16.580  10.788   2.055  0.2841 -0.1403  0.1744
14250W        W31774   1.792   9.893   2.810 -0.0333  0.2895 -0.1023
14251W        W31775   4.683  12.584   3.282 -0.1241 -0.0786 -0.0276
14252W        W31776  12.849   6.088   3.429  0.0786  0.1140 -0.2142
14253W        W31777   0.514  17.051  16.844 -0.0680 -0.2055 -0.0690
14254W        W31778  11.639   8.508   2.758  0.1893  0.1852  0.2161
14255W        W31779   3.266  13.081   3.429 -0.1105  0.0155  0.0557
14256W        W31780  16.983  11.360   4.449 -0.3181  0.0003 -0.3179
14257W        W31781   3.035   5.614   3.651 -0.1630 -0.0985  0.0913
14258W        W31782   8.675   4.777   3.860  0.0476  0.0119 -0.1030
14259W        W31783  13.220   3.904   1.714 -0.3984 -0.0575 -0.0148
14260W        W31784   5.778  14.488   0.579 -0.1979  0.1398  0.2648
14261W        W31785   6.746   6.972   0.425 -0.0060 -0.0822  0.2757
14262W        W31786   6.144   9.454   2.205  0.1772 -0.1328  0.1556
14263W        W31787   5.516  15.623  16.103  0.2150 -0.2289 -0.1705
14264W        W31788  16.079  13.290   4.242  0.4852  0.3234 -0.3765
14265W        W31789  14.133   4.080   1.443 -0.1437  0.2332 -0.3349
14266W        W31790   3.392   1.300  13.934 -0.2174  0.0177  0.1613
14267W        W31791  15.149  11.674   5.629 -0.0394 -0.3507 -0.0569
14268W        W31792   3.986   5.431   5.790 -0.2239  0.1205 -0.0797
14269W        W31793  14.888  11.944   5.265 -0.2720 -0.0918 -0.2011
14270W        W31794   7.885   1.150   3.030 -0.3285 -0.0782  0.1700
14271W        W31795  14.663  16.522   2.967 -0.3334  0.0050  0.1268
14272W        W31796   3.710   6.096   0.721 -0.0218 -0.0859 -0.0509
14273W        W31797   4.106   6.016  13.163  0.2623  0.0788 -0.1327
14274W        W31798   9.616   2.612  12.002 -0.0328  0.1254  0.0886
14275W        W31799   6.345  13.847   2.134  0.0771 -0.1562 -0.0616
14276W        W31800   0.082   8.175   1.632  0.3149 -0.3057  0.0335
14277W        W31801  13.359   3.069   1.854 -0.0650 -0.0702  0.1045
14278W        W31802   6.696  15.274  13.060 -0.3162  0.0455  0.1215
14279W        W31803  11.949  13.157   5.230  0.0132 -0.1547 -0.2334
14280W        W31804   0.993   5.014   6.000  0.0278 -0.0398 -0.2762
14281W        W31805   2.346  10.623   4.925  0.1324 -0.0182  0.1098
14282W        W31806   3.165   3.998   1.843 -0.1235 -0.1162  0.4014
14283W        W31807  16.696   2.522   4.117 -0.0850  0.0393 -0.0830
14284W        W31808  13.991   7.708   1.922  0.2094 -0.0272 -0.2853
14285W        W31809   8.416   1.432  16.695 -0.1363 -0.1740 -0.0726
14286W        W31810  12.188  13.539   0.322 -0.0176  0.0915  0.1411
14287W        W31811  10.925  14.867  15.164  0.1925  0.0312 -0.1712
14288W        W31812  15.976  13.042  14.019  0.0436 -0.0444  0.0812
14289W        W31813   4.305   2.047   2.807 -0.1330 -0.0002  0.0504
14290W        W31814   6.990  15.215   3.913 -0.0611  0.0542  0.1236
14291W        W31815   0.511   4.109  15.667 -0.2483 -0.2643  0.0744
14292W        W31816  12.233   0.946  12.549 -0.0749 -0.0580  0.1299
14293W        W31817  15.420   3.212   2.380 -0.1552  0.1174  0.0205
14294W        W31818   4.764   2.795   2.204 -0.3334 -0.1439  0.4564
14295W        W31819  11.658  14.529  16.412 -0.1731  0.1418  0.0268
14296W        W31820  15.661   7.601  12.851 -0.0960 -0.3323 -0.1606
14297W        W31821   1.174  13.191  13.191 -0.0775  0.0797  0.1009
14298W        W31822  15.691  10.442   5.057  0.0328  0.2496 -0.2365
14299W        W31823   0.500  17.013  14.918  0.0559 -0.0018 -0.0789
14300W        W31824   4.433  13.077  15.034  0.0812 -0.2129  0.0125
14301W        W31825  16.600  10.853   1.552 -0.4389 -0.1019  0.1769
14302W        W31826  12.809  14.810  14.807 -0.3650 -0.2234  0.3945
14303W        W31827   8.885   8.907   1.389  0.1320  0.1810 -0.1570
14304W        W31828   2.532  12.751   5.607 -0.1689 -0.1823 -0.1410
14305W        W31829   6.765  16.784   3.603  0.2779  0.2286 -0.3056
14306W        W31830   2.290   3.749  13.328 -0.1675 -0.3630 -0.0588
14307W        W31831  13.982  15.307  12.725 -0.1731 -0.3100 -0.0095
14308W        W31832  13.296  11.640  16.552 -0.0168 -0.1096 -0.4397
14309W        W31833   4.840   8.235  14.779  0.3864  0.1365 -0.0239
14310W        W31834   5.517   9.243   2.655 -0.1211  0.0641  0.1297
14311W        W31835   9.143  15.998  14.631 -0.0543 -0.0521  0.0207
14312W        W31836  11.498   1.441   3.540 -0.2949  0.0702  0.0680
14313W        W31837   6.931  15.959  16.214 -0.0120 -0.2017 -0.2152
14314W        W31838  16.242   7.459   3.087  0.0010  0.0176 -0.0837
14315W        W31839   9.083   9.064  12.220  0.0913 -0.1250 -0.0295
14316W        W31840   1.598  11.900  15.294  0.2351  0.0294  0.1271
14317W        W31841   7.789   4.762  12.986  0.1314  0.0751  0.2275
14318W        W31842  12.628  10.535  13.610  0.2832 -0.0291  0.1266
14319W        W31843   8.499   5.147   3.022  0.3226 -0.3199  0.0887
14320W        W31844   6.143   6.979   1.487  0.0307 -0.0677  0.0383
14321W        W31845   0.477   7.619   3.824 -0.1149 -0.1103 -0.2767
14322W        W31846  13.112  11.733  15.828 -0.0746 -0.1241  0.3299
14323W        W31847   9.173  11.027  12.529 -0.1939 -0.0482  0.2983
14324W        W31848   6.456  17.141   3.534  0.2311  0.2470 -0.1421
14325W        W31849   1.998   4.980   0.479 -0.1344 -0.1532 -0.0096
14326W        W31850   3.812   9.455  16.338 -0.3338 -0.0827 -0.0126
14327W        W31851  13.146  12.455  12.140 -0.0986 -0.0220 -0.0632
14328W        W31852   1.171  10.868  15.991  0.2586  0.0267 -0.1843
14329W        W31853   4.709  15.550  14.174 -0.2224  0.5042  0.3177
14330W        W31854   2.936   3.834  14.113  0.0900 -0.1692  0.2224
14331W        W31855   0.699   5.578  13.358  0.2031  0.1129 -0.0199
14332W        W31856   5.678   4.117  14.204  0.2377 -0.3298  0.1371
14333W        W31857   4.715  10.829  13.619 -0.0577 -0.1484 -0.0245
14334W        W31858  13.640  16.012  13.164 -0.0671  0.1025  0.2434
14335W        W31859   9.458   9.965  13.825 -0.1576 -0.0653 -0.2143
14336W        W31860  13.416   7.691  12.478 -0.2243  0.0769 -0.1763
14337W        W31861   8.823   7.643   1.078 -0.0756 -0.1869  0.0423
14338W        W31862   1.600   0.631  16.279 -0.1105 -0.1605 -0.0100
14339W        W31863   2.216   7.296  16.225 -0.2649 -0.0957 -0.0276
14340W        W31864   6.664   7.693  17.313 -0.0749 -0.1591  0.1594
14341W        W31865   6.120   8.169  13.590  0.1689  0.2468  0.2454
14342W        W31866  16.809   7.662  16.233  0.0317 -0.0459 -0.0178
14343W        W31867  11.295  15.573  13.925 -0.2519  0.3219  0.0371
14344W        W31868  16.693   1.105   2.276 -0.2015  0.1977 -0.0254
14345W        W31869  11.408   5.844  16.452  0.0705 -0.0320 -0.2235
14346W        W31870  13.609   8.904   1.031  0.0970  0.1628 -0.0446
14347W        W31871   8.117   9.955   4.301  0.1766 -0.0830 -0.4187
14348W        W31872  11.198   6.314   0.965 -0.1764 -0.0230 -0.1419
14349W        W31873   5.882   2.974  14.675 -0.1039  0.0879 -0.1852
14350W        W31874  12.313   9.161  16.602 -0.0095  0.1068 -0.1112
14351W        W31875  15.343   1.872  14.364 -0.0303  0.2284  0.1969
14352W        W31876  15.329   4.426   2.384  0.2027  0.2618 -0.0994
14353W        W31877   9.623   6.428  15.637 -0.1199  0.0425 -0.0304
14354W        W31878  14.994   7.367   5.341 -0.0444  0.1583  0.2167
14355W        W31879   7.444  13.446   5.400 -0.0672 -0.1057 -0.2535
14356W        W31880  14.031   3.204   4.995 -0.3080  0.1192 -0.1554
14357W        W31881   2.209  15.524   1.316  0.1355  0.0463 -0.4334
14358W        W31882   7.229  14.325   1.311 -0.0535 -0.0429  0.2478
14359W        W31883  14.400   6.486  15.960 -0.1669 -0.0757  0.0593
14360W        W31884   3.071   2.729   1.587 -0.0421  0.0716 -0.3124
14361W        W31885  10.999   3.609   0.242  0.3505 -0.0055  0.1040
14362W        W31886  14.014  15.806  12.901 -0.0139  0.1779  0.1093
14363W        W31887   8.648   8.307  12.391 -0.1861 -0.0202 -0.3429
14364W        W31888   9.011  11.255   3.925  0.0072  0.1573 -0.0636
14365W        W31889  11.006   5.879   3.245 -0.2618 -0.0400 -0.0311
14366W        W31890  15.732   9.554   4.950  0.0185 -0.0082  0.3135
14367W        W31891  12.699   0.330  13.571  0.0052  0.3435  0.0114
14368W        W31892  13.912   9.090  14.425  0.0201  0.0085 -0.0682
14369W        W31893   4.097  14.079   3.910 -0.3715 -0.1680  0.0485
14370W        W31894   8.246   4.905  12.189  0.0541  0.0648 -0.0680
14371W        W31895  11.481   6.959   6.278 -0.1234  0.0157 -0.0590
14372W        W31896  13.499  10.949   5.062 -0.2110 -0.0273  0.0220
14373W        W31897   8.744  14.983  11.858  0.2262 -0.1018 -0.3834
14374W        W31898   4.123  12.255   5.405 -0.0743  0.1820  0.1697
14375W        W31899   9.981  11.702   5.296  0.3411  0.0859 -0.0024
14376W        W31900   3.043  12.529  14.697  0.0533 -0.1318  0.0617
14377W        W31901   2.592   8.274   3.299  0.1348 -0.0244  0.1992
14378W        W31902  14.489   3.541  15.846  0.1772 -0.1907  0.3354
14379W        W31903   4.511   1.116  16.217 -0.2162  0.1153  0.1538
14380W        W31904   0.012   2.932  15.349  0.0344  0.1790  0.0579
14381W        W31905   9.283   1.088   3.038 -0.1648  0.1319  0.1092
14382W        W31906  10.218  11.060  17.247  0.0293 -0.0545  0.0667
14383W        W31907  12.638   4.226  13.376 -0.1466 -0.0808 -0.0475
14384W        W31908  12.899   1.051  15.589  0.3017  0.2684 -0.0802
14385W        W31909   3.403   6.580   3.143  0.0046 -0.1035 -0.0079
14386W        W31910   3.253  11.467   1.459  0.0466  0.1403  0.2603
14387W        W31911   8.802  16.599   3.098 -0.1563 -0.0350 -0.3363
14388W        W31912   2.087  10.628  15.354  0.0093  0.0022 -0.2432
14389W        W31913   3.739   1.324  17.728  0.3578 -0.1184  0.2210
14390W        W31914  14.447  15.438  16.745 -0.0269  0.0163 -0.2115
14391W        W31915  12.031  16.640  14.949  0.0831  0.3323  0.0934
14392W        W31916   5.859  16.040   0.260 -0.1448 -0.0357  0.0072
14393W        W31917   4.205   6.436   6.061 -0.3083  0.1451 -0.0512
14394W        W31918   2.558   7.343   1.754 -0.0773  0.1126 -0.0096
14395W        W31919  15.029   8.817   2.236  0.1516  0.1130 -0.0486
14396W        W31920  14.718  13.207  14.573 -0.1218 -0.1692  0.0145
14397W        W31921   2.713   4.802   3.806 -0.1495 -0.0596  0.0102
14398W        W31922   3.510   8.851  13.840 -0.0150  0.0701  0.0276
14399W        W31923  10.232  15.602  16.244 -0.3100 -0.0783  0.1313
14400W        W31924   8.196   0.984  16.681 -0.0692 -0.1115  0.1114
14401W        W31925  14.458   0.684   0.742  0.0325 -0.1210 -0.1630
14402W        W31926  11.048  13.666   5.606 -0.2366  0.0301 -0.0545
14403W        W31927   0.119   3.552  16.373  0.3702  0.1613  0.0426
14404W        W31928  10.337   8.246   4.658 -0.0919  0.2920 -0.1255
14405W        W31929   0.853  16.428  12.765  0.1140 -0.1392 -0.0636
14406W        W31930  14.180   4.399   3.407 -0.0008 -0.2674  0.1118
14407W        W31931   1.302  11.373   5.629  0.0132 -0.2752 -0.2402
14408W        W31932   4.875  11.653   5.464  0.0036  0.3546 -0.2826
14409W        W31933   2.852   6.362  12.618 -0.1942 -0.1623  0.0366
14410W        W31934   4.601  11.236   3.386  0.2972 -0.2207  0.1678
14411W        W31935   9.495   9.892  16.785  0.0264  0.1017 -0.0973
14412W        W31936  12.792   0.329  11.888  0.0647  0.0281 -0.1052
14413W        W31937  12.904  11.784   1.438 -0.2114 -0.0799 -0.0168
14414W        W31938   6.457   0.977   3.009 -0.0457  0.1567 -0.5122
14415W        W31939   6.213  13.155  12.667  0.1832 -0.2490  0.0088
14416W        W31940   2.092   9.535   0.734 -0.1566  0.1905  0.0214
14417W        W31941   7.429   9.962  17.557  0.0611 -0.0812  0.2843
14418W        W31942   1.684   6.287  17.372 -0.3610  0.1091 -0.1058
14419W        W31943  15.211   0.684  15.669 -0.2661 -0.0071  0.0844
14420W        W31944   1.398   2.150   1.427  0.2344  0.0112  0.1412
14421W        W31945   7.187  16.130  13.195 -0.0957  0.1013 -0.0609
14422W        W31946   2.144   6.187  13.727 -0.2877 -0.0649  0.0198
14423W        W31947   5.700   1.852  14.488  0.3035  0.2921 -0.1407
14424W        W31948   5.163  15.231   5.357  0.1628 -0.0013 -0.1325
14425W        W31949   5.675   7.783  13.567  0.0130 -0.1210 -0.0217
14426W        W31950  14.076  14.425   0.545  0.1528 -0.0019  0.0627
14427W        W31951   0.730   5.843  15.116  0.1464  0.4191  0.2881
14428W        W31952   5.448  16.004  16.913 -0.1576 -0.2713  0.0493
14429W        W31953   6.733   1.140  17.105  0.2153  0.0817  0.3211
14430W        W31954  14.708  15.073   0.053  0.1492  0.0341 -0.0564
14431W        W31955   0.588   1.150  14.331 -0.0652 -0.1733 -0.1885
14432W        W31956  10.821   2.947  16.059  0.0704 -0.0667 -0.0977
14433W        W31957   8.856  15.260  15.941  0.0584 -0.3195  0.2898
14434W        W31958   6.746  10.479  17.485 -0.2042  0.1852  0.1727
14435W        W31959   1.225   9.993   2.188  0.4619 -0.3520 -0.1921
14436W        W31960   5.031   7.676  14.189 -0.0412  0.1752  0.0997
14437W        W31961  15.031   4.504  15.054 -0.0021 -0.4732 -0.1331
14438W        W31962   6.149   2.310   6.221 -0.0401 -0.1444  0.0822
14439W        W31963  12.432   7.752  13.469 -0.1261  0.0790 -0.1082
14440W        W31964   5.018   0.176   1.903 -0.3759  0.3900  0.0214
14441W        W31965  14.132   7.772  16.047 -0.1551  0.1506  0.0233
14442W        W31966   5.585   6.506   4.389  0.0546  0.0585  0.0588
14443W        W31967   1.835   8.875  16.882 -0.0808  0.1039  0.0057
14444W        W31968  16.038   2.542  14.076  0.1132 -0.1074  0.0298
14445W        W31969   0.909   6.437   3.045 -0.3606 -0.0155  0.1565
14446W        W31970   1.291   7.126   5.789  0.2527 -0.0269  0.0066
14447W        W31971   5.663   9.345   2.143  0.0027 -0.1123 -0.1161
14448W        W31972  12.237  14.027   5.069 -0.1063 -0.2576 -0.2251
14449W        W31973  10.608   3.495   5.851  0.0539 -0.2442  0.0254
14450W        W31974   8.261  11.985  15.377 -0.2225  0.2314 -0.0468
14451W        W31975   3.086  15.514  17.600 -0.0156  0.1869 -0.5581
14452W        W31976   4.261   6.372  17.577  0.2402  0.0652  0.1880
14453W        W31977  14.303  16.603   0.784  0.1588  0.0386  0.2298
14454W        W31978   9.380  17.006  16.027 -0.1350 -0.0966  0.1937
14455W        W31979   0.529   9.873  15.676 -0.0816 -0.1105 -0.2518
14456W        W31980  17.088  16.686  17.247 -0.0395  0.1956  0.3080
14457W        W31981   8.155  16.661   3.816 -0.0018  0.1603 -0.2511
14458W        W31982   6.661  10.186   4.279  0.1424  0.0316  0.2178
14459W        W31983  12.903   2.401   2.498  0.3482  0.1617 -0.0153
14460W        W31984   2.383   6.564   4.254 -0.2793 -0.1215  0.4875
14461W        W31985   6.075   4.358   3.579 -0.0735 -0.1384  0.1466
14462W        W31986   0.552  16.021  14.421 -0.0573 -0.1609  0.0538
14463W        W31987   9.012   7.068   5.124  0.1022 -0.0942 -0.2764
14464W        W31988   9.227   6.173  15.010 -0.1051  0.4808 -0.1345
14465W        W31989   4.982  13.181   3.797 -0.2145  0.1553  0.3016
14466W        W31990  14.699   1.208  17.621 -0.1804 -0.1689  0.4794
14467W        W31991  15.641   2.745   3.677 -0.1481  0.1570  0.2929
14468W        W31992  15.658   0.798   3.616 -0.0635  0.1701 -0.0246
14469W        W31993   9.359   2.204   5.735  0.0622  0.0455 -0.0325
14470W        W31994  11.034   9.358   6.196 -0.0246  0.0994 -0.0423
14471W        W31995  13.638  10.408   2.218  0.0235  0.2038 -0.1416
14472W        W31996   3.360  14.087   3.740 -0.1674 -0.0437 -0.1369
14473W        W31997   8.847   4.037   2.241 -0.2068  0.1511  0.1371
14474W        W31998   3.473  12.862  16.907 -0.1419  0.1703 -0.1070
14475W        W31999  13.494  14.813  16.602  0.2357 -0.0817  0.0415
14476W        W32000   9.786   1.066  16.349  0.0834 -0.1486  0.1494
14477W        W32001   4.326   0.029  15.460  0.1743 -0.3431  0.1845
14478W        W32002  12.267   1.899  14.485 -0.2738  0.0324  0.0002
14479W        W32003  16.717  15.599   1.711 -0.1018  0.0566 -0.0032
14480W        W32004  16.420  11.021   3.486 -0.1190 -0.1590  0.1047
14481W        W32005  11.182   2.117  13.961  0.2285 -0.1343 -0.0766
14482W        W32006   5.580   6.799  15.922 -0.2034 -0.0864 -0.0468
14483W        W32007  13.243   5.941  15.307  0.0376 -0.1515  0.0510
14484W        W32008  13.930  16.918   2.971 -0.0829 -0.4435  0.0531
14485W        W32009  10.416   3.929  15.232 -0.0115  0.1416  0.0024
14486W        W32010   2.884   9.297   0.028 -0.2099  0.2326 -0.1550
14487W        W32011   1.708   1.291   6.125 -0.0042  0.0758 -0.0987
14488W        W32012   3.988  16.841   4.177 -0.3148 -0.1972 -0.1255
14489W        W32013   4.618   3.196  13.499  0.0834  0.2327  0.0041
14490W        W32014  15.838   7.914  15.494 -0.0007  0.0913 -0.1995
14491W        W32015  11.500   3.140  16.654 -0.0545  0.0404  0.1588
14492W        W32016  12.347   3.698   0.663  0.4254  0.1580  0.1266
14493W        W32017   5.604  10.700   2.265  0.0050 -0.0918  0.2920
14494W        W32018  13.729  12.336   0.707  0.1532 -0.0310 -0.0666
14495W        W32019  12.491   7.017   2.902  0.1290 -0.3701  0.1689
14496W        W32020  17.072  12.325  14.506 -0.2282  0.0920  0.0917
14497W        W32021   6.970   6.181   0.602 -0.1445 -0.4065  0.0954
14498W        W32022   0.494   8.237  14.713 -0.0030  0.0589 -0.0390
14499W        W32023  13.477  16.491   3.774 -0.2883  0.1393  0.0271
14500W        W32024   1.923   5.411  12.698  0.2548 -0.0139  0.0102
14501W        W32025   8.811  10.136  12.735  0.1156 -0.1187 -0.1081
14502W        W32026  15.024  15.205   5.611  0.4763 -0.1149  0.1950
14503W        W32027   5.408  11.370   3.214  0.1555  0.0846 -0.1129
14504W        W32028   4.173   5.223  15.453 -0.0539 -0.2099  0.1161
14505W        W32029  11.771   1.743   3.976  0.2809 -0.0235 -0.2825
14506W        W32030  11.051  12.138  15.183  0.1486  0.1075 -0.1805
14507W        W32031  10.845   2.078  17.095 -0.3385 -0.0456 -0.1055
14508W        W32032  11.318   9.868  13.574  0.0652 -0.3533  0.0412
14509W        W32033   9.299   5.003   0.649  0.1143 -0.0933 -0.3226
14510W        W32034   7.156  10.427   0.611 -0.2047  0.0167 -0.1593
14511W        W32035  10.493   6.905   4.108  0.1477  0.1204 -0.1811
14512W        W32036  14.389   8.672   4.913 -0.3041  0.2209 -0.0899
14513W        W32037   4.536   5.935  16.374  0.0632  0.0783 -0.0438
14514W        W32038  12.982   0.998   3.788 -0.2650  0.0770  0.0396
14515W        W32039  15.986   0.231  15.914 -0.0293  0.0638 -0.2168
14516W        W32040   0.456  13.314   1.877  0.1585  0.2426  0.1313
14517W        W32041  10.374   1.626   5.700  0.1805 -0.1758 -0.0157
14518W        W32042  10.588  10.334   0.839  0.0998  0.1485  0.1447
14519W        W32043   5.606   3.815   2.244  0.2726  0.0283  0.2808
14520W        W32044  15.585   0.444  15.162 -0.1115  0.1383 -0.0502
14521W        W32045   2.921   6.173   4.008 -0.1104  0.0575  0.1233
14522W        W32046  15.530   7.988   2.534  0.1149  0.2778  0.3919
14523W        W32047   4.675  16.611  16.981 -0.1185  0.2741 -0.2013
14524W        W32048  14.999  16.847   1.339  0.1418 -0.0657  0.0201
14525W        W32049   0.531   6.176  12.471 -0.0105  0.1554  0.1518
14526W        W32050   5.228   0.378   2.321 -0.1433 -0.0160 -0.3552
14527W        W32051  13.803  15.124   2.199 -0.1392  0.0752 -0.2557
14528W        W32052   6.885   6.910  16.903 -0.1973  0.0975 -0.2837
14529W        W32053  10.662   8.956  12.323  0.3413 -0.2705 -0.1240
14530W        W32054  13.690   6.869  13.427  0.0592  0.1142  0.3521
14531W        W32055   5.116  16.990   2.251  0.0894 -0.0871 -0.1010
14532W        W32056   0.829   6.389  17.565  0.4946 -0.1069 -0.0831
14533W        W32057   0.720  15.961   0.077 -0.2298  0.1075  0.0303
14534W        W32058   0.023  12.492  15.385 -0.2871 -0.1296 -0.0561
14535W        W32059   4.888  11.050   0.571 -0.0591 -0.0335  0.1824
14536W        W32060   4.949  11.727  16.522 -0.3089  0.3364  0.1163
14537W        W32061  11.049   1.526   3.380 -0.1004  0.0440  0.2724
14538W        W32062  13.745  16.600   3.314 -0.3338 -0.3167  0.0891
14539W        W32063  12.308   3.151  16.943  0.4933 -0.1893 -0.0397
14540W        W32064  13.386  10.829   0.734 -0.1208 -0.3297 -0.0241
14541W        W32065   3.497   9.108  13.403 -0.1979  0.1143 -0.1414
14542W        W32066   2.614   3.393  13.863 -0.1423  0.0991 -0.0194
14543W        W32067   5.854   4.629   4.885  0.0277 -0.1566  0.2252
14544W        W32068   1.675   3.355   0.871  0.0323  0.2296  0.2124
14545W        W32069  14.289   3.597   5.020  0.0360  0.1700 -0.2859
14546W        W32070  11.211   2.200  13.205 -0.4714  0.0321  0.1665
14547W        W32071  15.887  15.496   0.650 -0.0281 -0.1837 -0.3283
14548W        W32072   4.543  13.698   3.990  0.0866  0.1098 -0.0228
14549W        W32073  12.834   5.791   0.001  0.2964  0.1355  0.0314
14550W        W32074  10.960  16.543  13.901 -0.2275 -0.0192 -0.0351
14551W        W32075   4.773   3.487  16.970  0.5062  0.1033 -0.0587
14552W        W32076  11.040   2.142   2.273 -0.0170  0.1526 -0.2844
14553W        W32077  10.851  15.535   4.360 -0.1185 -0.1612 -0.0151
14554W        W32078   1.952   3.736  16.132 -0.0945  0.1591  0.2782
14555W        W32079   4.448   9.883  12.544  0.1821  0.1920 -0.1179
14556W        W32080   8.326  14.312  15.946 -0.2831  0.2001 -0.0279
14557W        W32081  12.362   3.363  16.482  0.0607 -0.0767  0.3529
14558W        W32082  12.290  13.451  14.380  0.0152  0.1228 -0.3409
14559W        W32083  10.615  10.522  13.642 -0.1483 -0.1768  0.0399
14560W        W32084  12.580  13.382  12.009  0.1165 -0.1828  0.0068
14561W        W32085   1.705  12.446  17.355 -0.0616 -0.0041 -0.3568
14562W        W32086   9.984  16.549   5.617 -0.1897 -0.2736 -0.0675
14563W        W32087   9.882   8.183   3.276 -0.0528 -0.0705 -0.3445
14564W        W32088  15.700  13.157  12.585  0.1356  0.1519 -0.1832
14565W        W32089   8.899   6.983  16.977  0.3946 -0.1143  0.0927
14566W        W32090  12.560   0.096  15.321  0.0141  0.2401  0.1507
14567W        W32091   0.259  11.070  16.308 -0.0150  0.2823  0.1284
14568W        W32092  16.733   4.453  16.559 -0.2113  0.2694  0.1933
14569W        W32093  11.023   6.098   4.920  0.1272 -0.0119 -0.1184
14570W        W32094  15.682  16.687  13.423 -0.0280  0.1141 -0.0628
14571W        W32095  15.920   1.972  14.384  0.4373 -0.0287 -0.1132
14572W        W32096  15.262  10.133   1.736  0.0886 -0.0573 -0.0784
14573W        W32097   2.465  15.349   5.125 -0.2231 -0.0869 -0.0128
14574W        W32098  11.322  15.421  16.783 -0.1201  0.1296 -0.1369
14575W        W32099  15.293   2.697  15.536 -0.1750  0.1578 -0.2405
14576W        W32100   9.931  13.892  12.754 -0.0485  0.1644 -0.4990
14577W        W32101   2.988   3.554   1.793  0.2919  0.2771 -0.2359
14578W        W32102   6.735   0.690   0.669 -0.2876 -0.0705  0.1566
14579W        W32103  13.318  14.035   0.016  0.2516 -0.3549 -0.3111
14580W        W32104   3.055   2.371  12.647 -0.2701  0.1354 -0.0953
14581W        W32105   1.038   8.573  17.436  0.2195  0.3034  0.0732
14582W        W32106  16.240  12.946  15.497  0.0967 -0.0235 -0.3026
14583W        W32107   5.269   7.247  16.926 -0.2544 -0.1829  0.1929
14584W        W32108  11.627   0.713  17.573  0.1348  0.0886  0.0037
14585W        W32109   8.044   2.773  11.873 -0.0521  0.0204 -0.0569
14586W        W32110  15.782   3.233   6.545  0.0996  0.0811 -0.1454
14587W        W32111  12.359  10.352  14.959  0.1608  0.2726  0.3511
14588W        W32112   3.886  11.815   6.185 -0.2194  0.1284  0.2363
14589W        W32113  15.152  14.099  15.483 -0.2101  0.0995  0.2515
14590W        W32114  16.614  10.280   4.973  0.1737  0.1884 -0.0728
14591W        W32115   0.465   9.115   4.696  0.0470  0.2858 -0.1144
14592W        W32116  11.343   4.393  15.450  0.1010 -0.3188  0.1232
14593W        W32117   7.647  12.378  14.289 -0.3630  0.0815 -0.0634
14594W        W32118   8.687   5.780  14.174  0.2257  0.0560  0.2671
14595W        W32119  10.810   7.768   4.061 -0.2510 -0.0740 -0.0149
14596W        W32120  13.248  13.220   4.920  0.3170 -0.1681  0.0762
14597W        W32121   2.949  16.779  15.364 -0.0904  0.0927 -0.0462
14598W        W32122   1.400   5.503   4.110 -0.0963  0.0018  0.1223
14599W        W32123   6.606  11.784  11.941  0.0894  0.1044  0.3108
14600W        W32124   5.371   7.469  14.471  0.0104 -0.3024 -0.1956
14601W        W32125  10.800  11.380   1.284  0.3524  0.0171  0.0981
14602W        W32126  16.796  10.005   1.528  0.1526  0.2114  0.2299
14603W        W32127  15.557   1.572   1.970  0.1160 -0.2676  0.2740
14604W        W32128  13.351   2.760  12.476 -0.2134 -0.2037 -0.0871
14605W        W32129  14.780   6.804   1.706 -0.2183  0.1853  0.0082
14606W        W32130   0.135   7.968  16.514 -0.1041 -0.2035  0.1081
14607W        W32131   9.933   3.186   3.836 -0.1654 -0.0143  0.2602
14608W        W32132   1.170  10.262   0.146 -0.1624  0.0364 -0.0369
14609W        W32133   0.220  15.778   0.624  0.1470 -0.1706  0.0108
14610W        W32134   5.428   5.321   5.283  0.0910  0.0717  0.0242
14611W        W32135  15.895   6.731  12.529 -0.0239  0.0999  0.0294
14612W        W32136   8.922   5.670   1.513 -0.0250  0.0651  0.0745
14613W        W32137   4.339  17.042   1.207 -0.0517  0.0935 -0.0716
14614W        W32138  11.343  10.752   5.789 -0.0888 -0.0896  0.3022
14615W        W32139   5.553   6.371   1.258  0.0910 -0.1121  0.0828
14616W        W32140   4.026  14.101   2.355 -0.1183 -0.2189  0.0935
14617W        W32141  11.312   9.864   4.948  0.2800 -0.1135 -0.0915
14618W        W32142  16.655  12.099   3.319  0.1261  0.0967  0.1132
14619W        W32143   7.824  11.068  16.580  0.3458 -0.0165  0.2713
14620W        W32144   4.785   3.920   1.068  0.0038  0.1663  0.2629
14621W        W32145   0.492   8.171   4.984  0.2592 -0.1088  0.3194
14622W        W32146   6.553  14.213   0.717 -0.2554 -0.0391 -0.1985
14623W        W32147   5.408  10.061   3.642  0.0516 -0.1427 -0.2701
14624W        W32148   1.334   0.017   0.720 -0.0687 -0.1331  0.1248
14625W        W32149   3.701   5.722  13.292  0.0811  0.2109  0.1261
14626W        W32150  15.570   4.142  16.550 -0.2908 -0.4402 -0.3696
14627W        W32151   7.415  14.445  17.119 -0.1950 -0.1701 -0.1012
14628W        W32152  10.683   3.088   2.241 -0.0492  0.1611  0.1403
14629W        W32153   3.154  13.862   0.966  0.0491 -0.1571  0.3540
14630W        W32154   9.114  10.228   2.484 -0.3183 -0.0693 -0.1357
14631W        W32155   9.847   9.668   5.463 -0.0388  0.1591  0.1024
14632W        W32156   1.530   0.285   2.608 -0.0409 -0.0020  0.1453
14633W        W32157   4.658  10.393  14.011  0.1619 -0.0565  0.0843
14634W        W32158   5.590  13.815   5.503  0.2380 -0.1893 -0.0774
14635W        W32159   5.325  10.175  15.621 -0.1413  0.0659 -0.2225
14636W        W32160  10.833  15.808  12.732 -0.0800 -0.1037 -0.2833
14637W        W32161   4.405   9.081  13.443  0.0744 -0.1823  0.0080
14638W        W32162   9.449  12.522  12.640 -0.2036 -0.1534  0.0386
14639W        W32163  16.401   8.274  16.445 -0.0590  0.2624 -0.0162
14640W        W32164   5.244   6.412  15.851 -0.1445  0.1191  0.3052
14641W        W32165   3.832  15.345  16.247  0.2585 -0.0447  0.1147
14642W        W32166  14.605  16.721   1.636 -0.1094  0.2874  0.3249
14643W        W32167   5.146   8.630   1.396  0.1089 -0.1579  0.3529
14644W        W32168   4.453   8.925  17.304 -0.1886  0.0931 -0.2030
14645W        W32169  14.240  16.503   5.689  0.3815 -0.1222 -0.1827
14646W        W32170   2.990  11.557  15.767 -0.2484  0.1153 -0.0210
14647W        W32171   4.844  13.372   0.910  0.2189 -0.0601  0.1078
14648W        W32172  10.044   6.909   1.525  0.1400 -0.3990  0.0334
14649W        W32173   2.730   6.176   0.619 -0.0953  0.0281  0.1175
14650W        W32174  14.129  12.847  11.734  0.0955  0.0643 -0.1431
14651W        W32175  11.081   7.994  15.481  0.3589 -0.0514  0.0135
14652W        W32176   0.377   6.432   0.221  0.1327 -0.2703  0.1402
14653W        W32177  16.464   2.756   3.170  0.1029 -0.1310 -0.0846
14654W        W32178   7.785  11.991   0.748  0.2108  0.1178  0.0404
14655W        W32179   3.380   6.588  15.616  0.1085 -0.0192  0.2359
14656W        W32180   9.945  14.390   5.035 -0.0949  0.3056 -0.2456
14657W        W32181  11.551   6.488   1.867 -0.1419 -0.1005 -0.1234
14658W        W32182  14.962   9.265  12.662 -0.1630  0.1054 -0.0216
14659W        W32183  14.292  11.159   3.122  0.2636  0.3825  0.0470
14660W        W32184   2.116  17.159  12.729  0.1000 -0.0169  0.0891
14661W        W32185  14.645   1.021   3.471 -0.0164 -0.3272 -0.1957
14662W        W32186   6.814  12.139   5.276 -0.1811  0.1349 -0.3190
14663W        W32187   5.218   2.531   2.039  0.0879  0.0874 -0.2086
14664W        W32188   1.429  13.875  15.138 -0.3370  0.2252  0.1170
14665W        W32189   7.132   7.844   2.723 -0.3629 -0.1267  0.0114
14666W        W32190   9.710  11.737  16.395  0.1891  0.3104 -0.0478
14667W        W32191   3.609   4.207   5.957 -0.3577  0.0684 -0.0013
14668W        W32192   5.153   8.546   3.021 -0.0057  0.2691  0.1563
14669W        W32193  14.250  13.957   0.377  0.0362 -0.0859  0.0616
14670W        W32194   6.387   5.495   1.268  0.1681  0.0062 -0.0784
14671W        W32195   2.689  13.832   3.220 -0.0069  0.1816  0.0940
14672W        W32196  13.420  12.728  12.690  0.1096 -0.4383 -0.1134
14673W        W32197   5.510   8.723   2.699  0.1952 -0.1657  0.1976
14674W        W32198   1.722   0.428  16.736 -0.1170 -0.0598 -0.0401
14675W        W32199  10.999  16.521   5.621 -0.0573  0.0410  0.1675
14676W        W32200   2.318   6.175   5.070 -0.3089 -0.0756 -0.2882
14677W        W32201   1.217   4.805  13.181 -0.1894  0.0166  0.0316
14678W        W32202  12.501  12.066  12.084  0.1338  0.1080  0.2250
14679W        W32203   0.373   6.217  15.117  0.2489  0.0002  0.1002
14680W        W32204   6.577   6.516  14.057 -0.1167 -0.0275 -0.0737
14681W        W32205   0.501   7.540  15.278  0.2808 -0.2306  0.0792
14682W        W32206  11.215   1.169  16.737  0.0301  0.0958  0.1223
14683W        W32207   5.818   8.169   4.629 -0.1651  0.0336  0.2652
14684W        W32208  13.557   1.634   0.288  0.6138 -0.1875  0.2181
14685W        W32209  14.362   6.716   5.359 -0.0142 -0.0282 -0.0577
14686W        W32210   4.936  13.441   4.218 -0.2126 -0.2590 -0.2083
14687W        W32211   7.077  14.891  12.690  0.2358 -0.1494 -0.2058
14688W        W32212  17.122   0.492  16.528  0.2370 -0.1899 -0.0906
14689W        W32213   4.343   8.713   0.566 -0.0358 -0.1252  0.3065
14690W        W32214   8.831  11.879  12.428  0.1616 -0.1904  0.1733
14691W        W32215   3.629   1.370   2.305  0.0847 -0.2738  0.1315
14692W        W32216   7.194   5.540   1.907 -0.1542 -0.0221  0.0368
14693W        W32217   6.309   7.239   3.378 -0.2639  0.4912  0.0051
14694W        W32218   9.467   5.786  16.712  0.0298  0.1029  0.0340
14695W        W32219   3.805   1.826   0.133  0.1273 -0.2175 -0.2111
14696W        W32220  16.450   4.814   5.651 -0.1972 -0.2248  0.1069
14697W        W32221  11.211  10.527   2.036 -0.1239  0.0548 -0.4202
14698W        W32222   4.673   2.300   0.438  0.1254  0.0706 -0.0586
14699W        W32223  10.681   0.541  13.966 -0.2027 -0.0815 -0.2066
14700W        W32224   8.212   6.853   1.685 -0.1058  0.1745  0.0766
14701W        W32225   8.776   2.134   0.997 -0.0497  0.5743  0.0848
14702W        W32226   6.676  10.781   5.214 -0.3258  0.1242  0.2486
14703W        W32227   0.597   0.565  14.768  0.0156  0.0259 -0.0540
14704W        W32228  12.827   5.879   3.920  0.2806  0.0199  0.1249
14705W        W32229   3.248   2.718  13.009  0.0064  0.2446 -0.0190
14706W        W32230  13.591   9.828  16.012  0.3821  0.0275 -0.0321
14707W        W32231  12.504   0.905  17.423  0.1006 -0.1733 -0.1816
14708W        W32232   1.795   5.855   2.368  0.1956 -0.2330  0.1035
14709W        W32233  16.730  15.119   5.766  0.2785  0.2495 -0.1671
14710W        W32234  10.216  15.871  16.706  0.0177 -0.0581  0.2471
14711W        W32235  13.820   7.637   0.298 -0.1290 -0.0802  0.1049
14712W        W32236   7.843   1.674   5.493  0.3062 -0.1661 -0.2186
14713W        W32237   4.710   3.232  16.539  0.1228 -0.0825  0.0546
14714W        W32238  12.732   4.485  13.922 -0.0678 -0.0487  0.3602
14715W        W32239   9.897   3.641  14.545  0.1819  0.1178  0.0202
14716W        W32240   0.706  15.773  14.001 -0.0768  0.0582 -0.1345
14717W        W32241  11.828   8.239   1.043  0.0549  0.0001  0.1308
14718W        W32242   6.154   8.738  17.725  0.1191  0.0947  0.1241
14719W        W32243  14.908   9.336  14.857 -0.0351  0.1236  0.1962
14720W        W32244  16.206  14.525   1.550  0.3214 -0.1160 -0.0043
14721W        W32245  12.610   3.218   2.033 -0.3429  0.1068 -0.0181
14722W        W32246  10.904  11.713  12.726  0.1675  0.2335 -0.4259
14723W        W32247   4.099  12.593   1.751  0.1324  0.0227 -0.0518
14724W        W32248  15.764  14.602  12.529 -0.0758 -0.1443  0.0715
14725W        W32249  10.868  14.342  15.892 -0.1132  0.1296 -0.2109
14726W        W32250  13.431   2.450   2.105  0.1414 -0.0687  0.1002
14727W        W32251   3.431   4.012  11.855 -0.0825  0.2407 -0.2579
14728W        W32252  15.131   3.706   3.010 -0.0530  0.1493  0.1529
14729W        W32253   2.849  14.704   6.500  0.2492 -0.1976 -0.1969
14730W        W32254   8.566   1.226  15.777 -0.0906 -0.0240  0.0527
14731W        W32255  12.080  15.374  14.751  0.0943  0.0591  0.0346
14732W        W32256  14.957  16.326   1.520 -0.0768  0.0946 -0.0717
14733W        W32257  11.549  16.438  16.227 -0.1010 -0.0595  0.2699
14734W        W32258   1.295  16.806  15.886 -0.0787  0.2622 -0.1376
14735W        W32259   4.047   4.279  16.611  0.1243 -0.2276 -0.3724
14736W        W32260  10.935  10.484   2.466  0.0924  0.3165 -0.0495
14737W        W32261   6.862   3.682   4.298 -0.0343  0.2377 -0.0398
14738W        W32262  15.177   0.674   1.922  0.2201 -0.1047 -0.0903
14739W        W32263   2.769   2.630  13.032  0.0805  0.0203  0.0172
14740W        W32264  17.147   3.125  12.765 -0.0181  0.1347 -0.2786
14741W        W32265   1.003   7.678   2.098  0.0659 -0.1774 -0.0470
14742W        W32266   0.892   7.655  17.387  0.2189  0.3283 -0.0794
14743W        W32267   2.971   9.679   2.740 -0.0544  0.0083  0.0162
14744W        W32268  17.014  14.910  16.905  0.0380  0.1708  0.0644
14745W        W32269   1.745  12.110   3.640 -0.3451  0.2288 -0.3273
14746W        W32270   0.862  15.219  15.682 -0.0227 -0.0605 -0.1730
14747W        W32271   0.931  10.924  12.598 -0.0504 -0.0840 -0.2202
14748W        W32272   6.076  16.402  15.328 -0.3721 -0.1378  0.2234
14749W        W32273   2.089  16.092   5.642 -0.0524 -0.3666  0.1465
14750W        W32274   1.378   8.927   2.574 -0.0415 -0.0877 -0.2495
14751W        W32275   7.952  17.121   4.682 -0.3341 -0.3030  0.1057
14752W        W32276   6.704   4.800   5.399 -0.0716  0.0851  0.1678
14753W        W32277   5.558  15.151  13.594 -0.0746  0.2175  0.1694
14754W        W32278  13.330  11.836   2.407 -0.2769 -0.2939 -0.1976
14755W        W32279   6.249   7.603  17.501 -0.0462  0.1198  0.0684
14756W        W32280   1.440   3.730   4.437  0.0261  0.0357  0.2003
14757W        W32281   5.592   4.706   4.432 -0.0625  0.2417  0.2027
14758W        W32282  15.144  11.676  16.068 -0.0455 -0.0806 -0.1773
14759W        W32283  14.757  11.317   0.794  0.1820 -0.2495  0.1471
14760W        W32284  16.865   7.264  13.538 -0.2348  0.0138  0.2391
14761W        W32285   1.951  15.501  17.724  0.1592  0.2050  0.2212
14762W        W32286   5.044   9.400   5.043 -0.0248 -0.0522  0.0002
14763W        W32287  10.771  14.115  17.554 -0.1360  0.0695  0.1659
14764W        W32288   1.342  12.697  16.649  0.0167 -0.0211 -0.0764
14765W        W32289   9.502  16.666   2.339  0.2604  0.1310 -0.1819
14766W        W32290   4.108  13.699  13.144  0.0241  0.2599  0.1471
14767W        W32291  12.861   9.111   2.038 -0.3535 -0.0764 -0.1196
14768W        W32292   1.236   5.111  14.145  0.0551  0.0147  0.1688
14769W        W32293   6.561   4.344  15.345 -0.1902 -0.4535  0.4712
14770W        W32294  12.763   5.487  16.761  0.1372 -0.0614 -0.1838
14771W        W32295   4.122   5.615   2.451  0.1125  0.2170 -0.1243
14772W        W32296   2.663   0.199   2.996  0.1797  0.0364  0.0237
14773W        W32297  14.099   5.046  13.223 -0.1609 -0.0687 -0.3504
14774W        W32298   0.154  17.042  17.539  0.2170 -0.0612 -0.3447
14775W        W32299  15.707   6.980  14.823 -0.1644 -0.1277 -0.2145
14776W        W32300  12.801  16.256  15.424 -0.0689 -0.4129  0.1614
14777W        W32301   8.786   4.837   0.828  0.3482 -0.2377  0.0039
14778W        W32302   4.878  12.194  13.363 -0.0816  0.3152 -0.2525
14779W        W32303   5.705   2.866   1.104  0.2056  0.1274  0.0409
14780W        W32304   9.173  13.097   2.376  0.3651  0.0430 -0.1378
14781W        W32305  10.589  13.885  12.125 -0.0372  0.0900  0.2779
14782W        W32306   2.974  10.581  16.151 -0.0009 -0.3159  0.0316
14783W        W32307   1.283  10.833   4.052  0.2375 -0.0201  0.1522
14784W        W32308   5.258   3.586  15.126 -0.0739 -0.2167  0.0294
14785W        W32309   1.527   2.880  14.120  0.3151  0.1214 -0.1981
14786W        W32310   4.364  12.873  17.015 -0.0550 -0.1328 -0.0991
14787W        W32311   0.851   8.896  16.067  0.1879  0.1763  0.1794
14788W        W32312   9.448  16.986  16.957 -0.0216  0.0650 -0.0957
14789W        W32313  13.031  10.315  17.702  0.0401  0.2616 -0.0178
14790W        W32314   7.543   9.825  14.237  0.1237  0.0487 -0.0307
14791W        W32315  16.158  11.928  16.385  0.0201  0.0042  0.0009
14792W        W32316   5.362  16.112  15.248  0.0977 -0.1723  0.0010
14793W        W32317  16.146   5.633  14.718 -0.0932 -0.1798 -0.0639
14794W        W32318   6.836   1.816   4.397  0.0435  0.0062 -0.1125
14795W        W32319   6.714  12.405   3.265 -0.1205  0.0819  0.1786
14796W        W32320  10.359   6.549   5.195  0.4593  0.0842 -0.1102
14797W        W32321   1.671  12.793   0.617 -0.2096 -0.1064 -0.1786
14798W        W32322   3.019   8.840  15.195  0.0881 -0.1012 -0.0749
14799W        W32323   5.274   5.910   1.497  0.0864 -0.2310 -0.0420
14800W        W32324  12.339   4.278   3.867 -0.0737  0.2856  0.1005
14801W        W32325  10.196   0.865   1.223 -0.0002 -0.0330  0.0755
14802W        W32326  11.920  13.486  16.984  0.0011 -0.2470 -0.1423
14803W        W32327   4.163   1.858   0.970  0.4095  0.1916  0.1988
14804W        W32328  16.692   0.314   4.635  0.0023  0.4228  0.2935
14805W        W32329   3.886   1.450   4.215  0.1396 -0.0528  0.1515
14806W        W32330   2.725  10.014   5.426 -0.1576  0.0387 -0.1640
14807W        W32331  14.239   8.440   3.265  0.1446 -0.3174  0.0747
14808W        W32332  14.127   2.567  13.121  0.0494 -0.2669  0.1883
14809W        W32333  13.115   4.242   5.300  0.1868 -0.3820 -0.0168
14810W        W32334   4.771  12.738  14.922  0.0855 -0.1343 -0.1304
14811W        W32335  12.125  12.684   2.089  0.2695  0.0233  0.2239
14812W        W32336  13.619  14.231  12.765 -0.1756  0.1881 -0.0039
14813W        W32337  10.806  10.496  14.644 -0.0798 -0.1334 -0.0630
14814W        W32338  12.333   9.170  15.191  0.0905 -0.3160  0.0101
14815W        W32339  13.830  17.087   3.463 -0.1907 -0.0973 -0.0315
14816W        W32340  14.430  10.044   2.383  0.2335 -0.0704 -0.0854
14817W        W32341   2.569   2.450  12.576 -0.0349  0.1682 -0.0292
14818W        W32342   7.400  13.365   1.344  0.2308  0.1116 -0.0041
14819W        W32343   8.316  11.230  14.766 -0.2111  0.0485 -0.1168
14820W        W32344   6.203   2.734   0.926 -0.1736  0.0408 -0.3231
14821W        W32345  12.940   6.915  14.986  0.0241 -0.1998  0.0966
14822W        W32346   2.233  10.719  14.859 -0.3903  0.3543 -0.0299
14823W        W32347   1.592   8.049  14.066 -0.3079 -0.1867  0.2795
14824W        W32348   5.038  11.536   0.579  0.0195 -0.0830 -0.2521
14825W        W32349   0.504  15.484   0.218  0.0177  0.0938  0.1065
14826W        W32350   9.935   3.195  13.130 -0.0816 -0.0262 -0.1678
14827W        W32351   7.340  16.172  16.007  0.1108  0.0147 -0.2482
14828W        W32352  10.491  15.732   4.996 -0.1550 -0.0532 -0.2357
14829W        W32353  11.075   5.108   2.758  0.1997 -0.2351 -0.1063
14830W        W32354  16.479   2.090   2.072  0.0758 -0.0368  0.1620
14831W        W32355  12.920  14.384   2.588  0.3272  0.2860 -0.0511
14832W        W32356  16.011   9.189  15.698 -0.0764 -0.1016  0.1456
14833W        W32357   4.155   0.251  15.999  0.0191  0.0305  0.0317
14834W        W32358   0.874   0.452   3.414  0.2360  0.1799  0.0996
14835W        W32359  11.345  14.420  15.159 -0.0788 -0.1591 -0.0898
14836W        W32360   4.766   3.311   3.626 -0.0606 -0.1210 -0.0172
14837W        W32361  13.087   8.638   1.018 -0.1376  0.1352  0.3748
14838W        W32362   0.283  16.583  12.926  0.0893  0.2089  0.0555
14839W        W32363   4.563   7.197  17.322 -0.0345  0.1530  0.0844
14840W        W32364  13.699  13.916  16.200  0.1254 -0.0428  0.2151
14841W        W32365  12.546  13.192   3.137  0.2008 -0.1341  0.1303
14842W        W32366   9.913  11.227   0.904  0.2348 -0.0519 -0.1297
14843W        W32367   6.237  12.470   2.359 -0.2700  0.1083 -0.3579
14844W        W32368   8.399  15.598   1.379 -0.0583  0.0877  0.1526
14845W        W32369  15.263   0.112   1.808  0.1988  0.1231  0.1306
14846W        W32370   5.611  11.484   5.456 -0.0234 -0.2256  0.2219
14847W        W32371   1.907   8.885   1.276  0.2298 -0.3451  0.0561
14848W        W32372  11.036  14.777   5.636  0.0216 -0.1568  0.1199
14849W        W32373  13.607  10.132  16.408 -0.1966  0.1546 -0.0938
14850W        W32374  10.046  11.234  16.589 -0.1944  0.0336 -0.0352
14851W        W32375  16.561  10.868  12.698  0.1675 -0.0204 -0.0650
14852W        W32376  14.518  16.030   4.218  0.0345 -0.1929  0.0053
14853W        W32377   6.437  10.907   3.607 -0.0255  0.0015 -0.1458
14854W        W32378   6.019   0.763   4.974  0.2887  0.1324 -0.0054
14855W        W32379   4.765   0.414   0.593 -0.1185 -0.1213  0.0028
14856W        W32380  13.075  10.120   1.565 -0.4037  0.1986  0.1469
14857W        W32381   4.912   8.166  12.860  0.0521  0.1082  0.0472
14858W        W32382  13.272   3.657   5.269  0.2555 -0.0368  0.1513
14859W        W32383   7.590  13.946   2.195 -0.1813 -0.1295 -0.4811
14860W        W32384   4.131   1.428  16.347  0.0455 -0.1143 -0.0641
14861W        W32385  11.539   7.945   4.691  0.0075 -0.2080 -0.0834
14862W        W32386   8.178   7.137  14.711 -0.0356 -0.4997  0.0925
14863W        W32387   7.199  17.021   2.268  0.1478 -0.1162 -0.0454
14864W        W32388  16.841  16.519  16.105 -0.1038 -0.0806  0.2454
14865W        W32389  15.899  14.915   2.106 -0.1825 -0.0923 -0.1250
14866W        W32390   4.568  12.521  13.190  0.0563 -0.0281  0.4787
14867W        W32391   3.128   0.054  16.910  0.0580  0.1114  0.1937
14868W        W32392   6.664  11.317  16.551  0.1668  0.0567  0.2306
14869W        W32393   7.113  12.531  12.055 -0.0272 -0.0389 -0.1589
14870W        W32394   4.024  11.730   0.175 -0.1593  0.1372  0.2842
14871W        W32395   4.629  15.419  14.738 -0.1159  0.0443  0.0545
14872W        W32396   8.441  16.550   1.343  0.1026  0.0487  0.0279
14873W        W32397   4.667   0.510   2.500 -0.1557 -0.1397  0.1965
14874W        W32398   7.721   5.263   3.875  0.0042  0.1878  0.0475
14875W        W32399  13.221   4.955  13.610  0.1682 -0.0087  0.1713
14876W        W32400  16.009   4.666   3.192 -0.0791 -0.0743 -0.0818
14877W        W32401  13.985   8.551  15.236  0.0965  0.2108  0.2317
14878W        W32402   6.141   7.324   4.661 -0.0779  0.0581  0.0193
14879W        W32403   1.592  14.117   4.466  0.1306  0.3503  0.2480
14880W        W32404   8.693  10.660  13.070 -0.0838 -0.0974  0.0402
14881W        W32405   9.577  15.705  14.054  0.0559 -0.1602  0.0644
14882W        W32406   6.094   9.079  13.904 -0.0910  0.1501 -0.1896
14883W        W32407  12.700  16.177  17.658  0.1215  0.2175  0.3541
14884W        W32408  15.821  10.039  13.499  0.1152 -0.2422  0.1796
14885W        W32409   2.297  13.744  12.803 -0.0146 -0.0881  0.0997
14886W        W32410   6.947  15.083   1.727  0.1387 -0.3027 -0.1802
14887W        W32411  14.142  12.190   3.515 -0.3639 -0.2514 -0.1703
14888W        W32412  13.958   4.189  14.605  0.0303 -0.0273 -0.0999
14889W        W32413   1.553   9.576   3.169  0.1035 -0.0112  0.1877
14890W        W32414   5.392  11.819   3.474 -0.0301 -0.0105  0.1200
14891W        W32415   9.437   5.663   1.507  0.1294  0.0307 -0.3806
14892W        W32416  12.407   5.423   3.197 -0.2048  0.0837  0.0752
14893W        W32417   3.932   2.296   2.531  0.0735 -0.2818  0.1651
14894W        W32418   2.376   1.063  14.203  0.0120 -0.0106  0.0172
14895W        W32419   9.019  16.053   2.983  0.2756  0.1391  0.1908
14896W        W32420  15.776   0.647   4.975  0.1394  0.3267  0.0373
14897W        W32421  13.789  14.818  13.655  0.2391 -0.0345 -0.2426
14898W        W32422   5.105   3.695   2.112 -0.2442 -0.0920  0.1303
14899W        W32423  13.957   9.475   3.720  0.1592  0.1181 -0.2062
14900W        W32424   0.174   0.491   2.474 -0.2911 -0.0795  0.1179
14901W        W32425  11.170  13.778   4.155  0.1969  0.0764 -0.0600
14902W        W32426  11.906   4.255  16.284 -0.2469 -0.1777  0.0455
14903W        W32427   6.878  14.654   5.331  0.0049 -0.0280  0.0645
14904W        W32428   5.883  12.012   6.842 -0.2161  0.1323  0.0393
14905W        W32429   4.920   1.485   4.974  0.5998 -0.0004 -0.1525
14906W        W32430   4.330   2.975   5.729 -0.1626 -0.4949  0.0639
14907W        W32431   2.873   0.038  16.263 -0.0341 -0.2368 -0.1162
14908W        W32432   6.221   5.350   0.831 -0.0401  0.1674 -0.0121
14909W        W32433   3.619  15.650  13.625  0.2389 -0.0611 -0.0566
14910W        W32434   3.641  11.488  14.387  0.0466  0.0398 -0.0080
14911W        W32435  15.152   5.636   4.996 -0.1724 -0.1520 -0.0914
14912W        W32436   7.126   6.880   1.677 -0.0253 -0.2992  0.1034
14913W        W32437  11.902  12.534  15.950 -0.1893  0.1970 -0.2440
14914W        W32438   0.965  13.536  14.994 -0.1385  0.2593  0.3608
14915W        W32439   4.492   6.254  15.522 -0.1865  0.0514  0.1123
14916W        W32440   2.782  13.163   3.589 -0.0901 -0.1461  0.0123
14917W        W32441  15.607  10.984   2.070 -0.2359  0.1084  0.1193
14918W        W32442   8.550  10.755   2.731  0.2026 -0.3850 -0.0967
14919W        W32443   7.891   6.309  12.592 -0.1472 -0.1733 -0.0933
14920W        W32444  12.219   9.502   2.616 -0.0226 -0.1631 -0.0858
14921W        W32445   6.087   2.612   1.858  0.1021 -0.0597 -0.3208
14922W        W32446   3.003   0.415   2.198 -0.2989 -0.0912  0.2283
14923W        W32447   3.452   7.097  16.769 -0.2888 -0.1605  0.6107
14924W        W32448  12.666   6.725   2.125  0.0434 -0.3379  0.0594
14925W        W32449   9.699   8.846  13.369  0.1615 -0.1719 -0.1753
14926W        W32450  10.015  12.754   2.685  0.1690 -0.0113  0.1852
14927W        W32451   3.420   4.423   2.537  0.4604  0.1037  0.3503
14928W        W32452   3.183   7.879   2.342 -0.2978  0.1065  0.0772
14929W        W32453   3.136   1.318   5.880 -0.1566  0.1392 -0.1403
14930W        W32454  12.033   2.008   0.983  0.0146  0.0724 -0.0353
14931W        W32455  14.827   0.074  13.869  0.1065 -0.1491 -0.0882
14932W        W32456   8.030   2.400  12.188 -0.1497 -0.1040 -0.3222
14933W        W32457   3.066  12.838   5.532 -0.2731  0.2502 -0.2176
14934W        W32458  16.238   6.951   3.051 -0.1143 -0.1228 -0.2789
14935W        W32459  11.410  14.206   4.448 -0.2029 -0.0726  0.2677
14936W        W32460   9.454  12.628   1.075 -0.1226 -0.0528  0.0819
14937W        W32461   7.510  12.488   1.140  0.0393 -0.0911  0.0970
14938W        W32462   8.837   6.621   2.683  0.1083  0.2532 -0.1248
14939W        W32463   2.867   3.012   5.075  0.2736 -0.1409 -0.2792
14940W        W32464   0.256  16.383   2.771  0.0632 -0.0901  0.1609
14941W        W32465  13.070   5.304  17.728 -0.1233  0.0627 -0.2187
14942W        W32466   1.912  10.962   5.116  0.4272 -0.1489  0.1547
14943W        W32467   8.384  16.907   2.931  0.2862  0.0200 -0.1008
14944W        W32468   1.919   3.369   2.728  0.1504 -0.0808 -0.1708
14945W        W32469  12.953  11.848  14.563  0.3226 -0.1614  0.3726
14946W        W32470  13.910  15.295   5.326 -0.0298  0.1009  0.1892
14947W        W32471  13.761   7.236   4.669  0.0324  0.2871  0.0044
14948W        W32472   0.940   1.259   0.370  0.1304 -0.1722  0.2933
14949W        W32473  16.017  15.467  14.996  0.0795 -0.2012 -0.2006
14950W        W32474   4.679   8.356  13.887  0.1357  0.1975 -0.1573
14951W        W32475  14.885  10.942  13.577  0.0372  0.3104  0.2888
14952W        W32476   6.505   2.135  14.316 -0.0257 -0.1411  0.2130
14953W        W32477   5.236   6.201  14.259 -0.0348  0.1837  0.1381
14954W        W32478  11.568   2.783   1.243 -0.1689 -0.1449  0.1094
14955W        W32479  13.508   6.264   1.790 -0.1272 -0.2203  0.2401
14956W        W32480   0.870  17.091   2.006 -0.1143  0.2079  0.2402
14957W        W32481   7.450   9.476   4.167 -0.2707  0.0193  0.2571
14958W        W32482  15.397   6.231   1.329  0.0075 -0.0814  0.0047
14959W        W32483  10.589   0.628  14.855 -0.3309 -0.0635  0.0664
14960W        W32484   4.202   8.150   4.745  0.3532  0.3630 -0.1982
14961W        W32485  14.318  14.740   1.418 -0.2482 -0.0694 -0.0248
14962W        W32486   9.174  11.761  13.197 -0.1968  0.2425 -0.0327
14963W        W32487   9.636   6.659  14.050  0.0793 -0.0170  0.0091
14964W        W32488  15.237   6.577  15.600  0.2950  0.1775  0.1596
14965W        W32489  12.084   5.407  15.877 -0.0889 -0.1537 -0.1330
14966W        W32490  15.883   7.843  12.137  0.0442  0.2022 -0.2913
14967W        W32491   4.298   6.120  12.114 -0.0061  0.0932 -0.2175
14968W        W32492  10.844  15.666   1.772 -0.1844 -0.0000 -0.1619
14969W        W32493  12.632  10.185  13.257  0.1442  0.3022  0.2966
14970W        W32494  15.598  10.302  17.360  0.0661  0.3592 -0.0761
14971W        W32495  12.312   9.874   0.795 -0.0873  0.1790  0.1660
14972W        W32496  14.674   8.292  17.629  0.4327 -0.1336  0.0124
14973W        W32497   2.600   0.357   5.447 -0.0920 -0.0577 -0.0597
14974W        W32498   3.784   9.371   4.465 -0.1436 -0.2594 -0.1686
14975W        W32499   3.655  11.898   0.918 -0.0788 -0.2147  0.1289
14976W        W32500   2.947  13.821   4.132  0.4314 -0.0254 -0.0641
14977W        W32501   9.743   2.103  14.837  0.2736 -0.2478  0.1475
14978W        W32502   6.555  11.082   6.587 -0.2568 -0.1873  0.2819
14979W        W32503   6.523  16.779   1.314  0.0275 -0.0702  0.2790
14980W        W32504   4.719   8.840  13.754  0.3028  0.0684  0.0937
14981W        W32505   1.059   0.029  13.196  0.0281 -0.0253  0.1677
14982W        W32506   1.980   3.865  16.627 -0.2577 -0.0914 -0.0892
14983W        W32507   1.766  10.105  14.400  0.1699  0.2640 -0.2851
14984W        W32508   4.737   4.838  13.758 -0.1735  0.1060  0.2787
14985W        W32509   2.107   1.945   5.432  0.1223 -0.0553  0.1071
14986W        W32510   6.420   8.583  15.711  0.0694 -0.1534  0.3756
14987W        W32511  13.098  10.532  13.744 -0.0618 -0.1330 -0.3211
14988W        W32512   3.004   1.303  12.695 -0.0978 -0.0750  0.3131
14989W        W32513  16.153   2.779   0.465 -0.3713  0.2466 -0.0756
14990W        W32514  10.598  10.618  13.191 -0.2043 -0.0140  0.0712
14991W        W32515   7.404   8.835  14.640 -0.1168  0.1780  0.1793
14992W        W32516   8.488   7.834  16.839 -0.0323  0.0848 -0.0680
14993W        W32517   7.952  13.979  13.857  0.1764  0.0275  0.0136
14994W        W32518   7.531  13.854   5.154 -0.3593  0.0346 -0.0334
14995W        W32519   1.641   3.967  15.342 -0.4018 -0.1150 -0.0557
14996W        W32520  16.975  15.717   3.952  0.2080  0.0356  0.1279
14997W        W32521   3.439   5.393   1.634  0.0972  0.1797  0.1180
14998W        W32522  10.831   1.092   3.309 -0.0564 -0.2022  0.0391
14999W        W32523   5.930  10.279  15.418 -0.3715  0.0344 -0.2025
15000W        W32524   9.232   1.805  17.233 -0.1520 -0.0702  0.0903
15001W        W32525  10.643  12.374   3.647  0.0651  0.2169 -0.0654
15002W        W32526   3.853  13.006  17.203 -0.2262 -0.0918 -0.1026
15003W        W32527   3.983   7.950   4.178 -0.3698 -0.1327 -0.1632
15004W        W32528  11.753   2.616   3.374 -0.0159 -0.0647  0.2549
15005W        W32529  13.394  16.071   0.644  0.0140  0.0358  0.0997
15006W        W32530   3.469  13.497  15.191 -0.0972  0.0577 -0.2197
15007W        W32531  14.707  14.794  12.666  0.0125  0.1779 -0.2005
15008W        W32532   9.042  13.018   0.255 -0.0900 -0.4116  0.1998
15009W        W32533   7.297   7.564  13.098  0.1014  0.0586  0.1691
15010W        W32534  16.105  16.294   0.257  0.1673 -0.1729 -0.1412
15011W        W32535   2.981   9.232   1.563 -0.0617 -0.0195 -0.1974
15012W        W32536   7.890   1.343  15.083  0.0282 -0.2726  0.0014
15013W        W32537   8.384  12.886  16.457  0.2995 -0.2131 -0.0943
15014W        W32538  14.009   5.016   0.197  0.0533  0.0689  0.0889
15015W        W32539  13.138  10.318  17.080  0.0677 -0.0438  0.0736
15016W        W32540   1.552   3.224  14.695  0.1012  0.0378  0.1580
15017W        W32541  13.785  13.889   5.134 -0.2768  0.2379  0.0608
15018W        W32542   7.543  14.259  14.352 -0.2194  0.1816 -0.1271
15019W        W32543  13.218   6.744  16.990 -0.1928 -0.0538 -0.1195
15020W        W32544   4.386  13.557  15.794  0.2934  0.3929  0.0835
15021W        W32545  15.860   7.653  13.294 -0.1389 -0.1914  0.1073
15022W        W32546  12.033   7.770   2.229  0.2392  0.0153 -0.1141
15023W        W32547  13.208   5.877   3.089 -0.4048  0.1200  0.0939
15024W        W32548   1.402  15.141   1.377  0.0165  0.0995 -0.1065
15025W        W32549  13.711   1.082  13.034  0.0711  0.3064 -0.3988
15026W        W32550  14.185  10.618   3.061  0.1326  0.3466 -0.2919
15027W        W32551  12.758  11.159  16.882 -0.2276 -0.3051 -0.0887
15028W        W32552  12.149   5.508  14.278  0.0639  0.0039 -0.3258
15029W        W32553  13.829   6.866  16.113  0.2229  0.0174  0.0220
15030W        W32554   0.733   9.183  13.861 -0.0889  0.2092  0.2509
15031W        W32555   9.561   1.237   1.779  0.3751 -0.1044  0.2852
15032W        W32556  11.590   8.135  12.307  0.1018  0.1509  0.0514
15033W        W32557  15.095   3.931  13.491 -0.1252 -0.3068  0.2113
15034W        W32558   3.370  11.059  16.305 -0.2654 -0.1722  0.1919
15035W        W32559   2.841   3.421  14.303 -0.0071 -0.2334  0.2800
15036W        W32560   7.422   7.124   1.347  0.2583  0.2600 -0.0904
15037W        W32561   5.471  15.138  15.081 -0.1768 -0.1461  0.1739
15038W        W32562   6.876  13.427   3.245  0.0915  0.2079 -0.0140
15039W        W32563   5.825  13.283   5.548 -0.1831  0.2312 -0.1497
15040W        W32564  11.855   7.676  13.520 -0.1254  0.3795 -0.2496
15041W        W32565   4.692  12.010   0.156 -0.1737  0.0940 -0.0789
15042W        W32566  16.464  14.843   2.460 -0.2831  0.0263  0.0434
15043W        W32567   5.561  14.401   1.952  0.1793  0.1276 -0.0127
15044W        W32568   4.082  14.909  15.297  0.0627 -0.0735  0.0870
15045W        W32569   1.591   2.988   5.950  0.2457  0.0698 -0.1354
15046W        W32570  12.567   3.555   5.241  0.1850 -0.4333 -0.0551
15047W        W32571   6.466  15.681  14.655  0.1047 -0.2210  0.0139
15048W        W32572  13.246   1.593  12.394 -0.3252 -0.0832  0.1359
15049W        W32573   1.953  11.986   4.130  0.2637  0.2411  0.0343
15050W        W32574   6.610   1.394  13.257  0.2050 -0.0693 -0.1839
15051W        W32575   8.364   4.281  17.319 -0.1739  0.1660 -0.0218
15052W        W32576   9.954  16.067   0.591 -0.1414  0.0698  0.0159
15053W        W32577   0.728   1.560  12.362  0.0368  0.0818  0.2146
15054W        W32578   9.047  16.480   0.052 -0.0876  0.1145 -0.1254
15055W        W32579   6.852  13.403  14.675 -0.2341  0.2137 -0.1995
15056W        W32580  11.515   8.072  16.076 -0.3336 -0.0725  0.1985
15057W        W32581   6.912   3.350  12.466 -0.1242 -0.1569  0.0567
15058W        W32582   1.703   0.941   1.607  0.0457 -0.0214 -0.2698
15059W        W32583  13.079   9.711  12.213 -0.2710 -0.3091 -0.1044
15060W        W32584  12.709   2.533   2.964 -0.0707 -0.1537  0.1523
15061W        W32585   6.502  16.623  15.176 -0.4486 -0.0735  0.0186
15062W        W32586  12.201   8.704  14.948 -0.1203  0.0566  0.1495
15063W        W32587   4.230  16.464  17.616 -0.1935  0.2561 -0.0824
15064W        W32588   3.492  16.138  15.655  0.0209  0.1856  0.0117
15065W        W32589  11.324  16.112  11.111  0.1797  0.0378 -0.3807
15066W        W32590  11.953  11.967   2.517  0.1560 -0.1943 -0.0778
15067W        W32591  16.172   8.527  13.329  0.1966  0.0189 -0.1254
15068W        W32592   0.662   7.057   4.084  0.0493 -0.1645  0.0971
15069W        W32593   9.647   3.052  14.680 -0.0052  0.0052 -0.1894
15070W        W32594   9.677   3.187   1.021 -0.1766 -0.1352  0.0369
15071W        W32595  15.845  16.468   1.239 -0.1886 -0.1746  0.1181
15072W        W32596   4.778  14.665   1.553  0.0368  0.4824  0.3540
15073W        W32597   1.328   3.335  13.721  0.1451  0.0606  0.0644
15074W        W32598   2.250   9.188   1.137 -0.0464 -0.1430  0.3564
15075W        W32599   9.626  16.501  15.664 -0.1302 -0.1037  0.0580
15076W        W32600  14.541   7.860   2.578  0.0921 -0.1547  0.2152
15077W        W32601   1.277   9.792   2.718  0.0744  0.0050 -0.2279
15078W        W32602   5.049   1.422   2.601  0.0361  0.2195 -0.3844
15079W        W32603  15.420   5.583  14.325 -0.1470  0.2720  0.3234
15080W        W32604   0.487   6.792   4.451 -0.1479  0.1988  0.2231
15081W        W32605   0.733  12.712   2.938  0.0304 -0.0043 -0.2964
15082W        W32606   6.024   2.218   5.380 -0.0518  0.0507 -0.0520
15083W        W32607   9.559  15.993  15.819 -0.1515 -0.0722  0.0100
15084W        W32608  12.537  15.737  14.292 -0.0447 -0.1294  0.1653
15085W        W32609   2.897   1.186   5.081 -0.0418 -0.1271 -0.1583
15086W        W32610  15.995  11.737   4.628  0.4516 -0.0612  0.1222
15087W        W32611  12.550  10.903   3.556  0.3349 -0.0798  0.0415
15088W        W32612   5.833  10.100   5.875 -0.0608 -0.1416 -0.0804
15089W        W32613   9.035   3.857  13.868  0.2658 -0.0592 -0.0196
15090W        W32614  12.709  14.398   1.663  0.2387  0.1902 -0.0183
15091W        W32615  10.048   5.011  13.662 -0.0798 -0.2190 -0.1424
15092W        W32616  15.846  11.125  16.398 -0.1577  0.0871  0.1511
15093W        W32617   6.284   8.316  16.207  0.1159  0.0456 -0.0546
15094W        W32618   3.470   2.462   4.885  0.0977  0.0264 -0.1868
15095W        W32619   9.028  12.040   3.610  0.0330  0.1590  0.0906
15096W        W32620   5.623  13.524  17.525 -0.0791 -0.2281  0.2250
15097W        W32621   4.154   5.997   4.511 -0.0952 -0.2766 -0.0094
15098W        W32622   7.104   8.506   3.177  0.1415  0.0436  0.0133
15099W        W32623   2.846   3.347  17.555 -0.0927 -0.1574  0.0266
15100W        W32624   0.679   8.833  15.577  0.0558  0.2142  0.4585
15101W        W32625   0.393  16.532  16.993  0.0722  0.1444 -0.2103
15102W        W32626  14.745   5.203   0.730  0.1049  0.0979 -0.0271
15103W        W32627  13.791   0.961   5.348  0.0788  0.0115  0.1466
15104W        W32628   6.938   5.069   0.579 -0.1348  0.0367  0.1506
15105W        W32629  12.233  14.973   0.538  0.1154 -0.0242 -0.0953
15106W        W32630   1.009  16.010   2.931 -0.0254  0.3082  0.4496
15107W        W32631  10.064   1.758  10.921  0.0302 -0.0267  0.1576
15108W        W32632  14.770   1.455   4.275  0.0264 -0.0116  0.0143
15109W        W32633   6.090  16.918   2.822  0.0825  0.0283  0.1712
15110W        W32634  13.645  10.391  12.502  0.0430  0.0301  0.3929
15111W        W32635   4.365   0.110  14.708  0.0719  0.3904  0.1338
15112W        W32636  16.014   2.331   2.907  0.1440  0.1126  0.4242
15113W        W32637  15.421  16.241  14.910  0.1016  0.0816 -0.4124
15114W        W32638   0.438   2.859   0.958 -0.0646  0.0668  0.2159
15115W        W32639   2.111   4.065  12.420 -0.0128  0.3620 -0.0590
15116W        W32640   2.080   6.179   0.518 -0.0870  0.0461  0.0318
15117W        W32641  16.631   3.848   3.896  0.2086 -0.0824 -0.2345
15118W        W32642  13.828   2.431  16.851 -0.0903 -0.1278 -0.1605
15119W        W32643  11.776   0.458   2.757 -0.2239 -0.4403 -0.2303
15120W        W32644   2.001  15.327   3.802 -0.0256  0.0223 -0.1745
15121W        W32645  17.062  12.180  15.062  0.0360  0.0191  0.0805
15122W        W32646   1.967   4.625  14.884  0.0010  0.1000  0.1357
15123W        W32647  12.142   4.517  14.715 -0.2838 -0.1082 -0.2105
15124W        W32648  14.319  16.874   0.325  0.0117 -0.1308  0.3241
15125W        W32649  14.316  13.353  13.621 -0.1038 -0.6287 -0.0212
15126W        W32650   0.462   2.308   2.550 -0.3073  0.1247  0.0480
15127W        W32651   0.532   8.943  13.496 -0.1640  0.0141  0.0702
15128W        W32652  16.354   6.994  17.606 -0.0695 -0.0079  0.0989
15129W        W32653   7.765   4.738  14.614  0.0021  0.0422 -0.0824
15130W        W32654   5.550  16.387   3.568  0.1631 -0.3067  0.1810
15131W        W32655   9.752   5.573   5.376  0.1290  0.1676 -0.0670
15132W        W32656  12.899   8.296   1.328  0.0235 -0.0489 -0.1051
15133W        W32657   9.650   3.800  13.155 -0.1834  0.0468 -0.2951
15134W        W32658   4.902   9.306  15.216  0.2715 -0.0456  0.2528
15135W        W32659   3.955   8.831   2.783 -0.1404 -0.0527 -0.0204
15136W        W32660   9.887   5.921   3.980  0.2587  0.1739  0.0424
15137W        W32661  16.830  13.370  13.663  0.1169 -0.2455  0.4774
15138W        W32662   0.375   7.016   3.511  0.1578 -0.0016 -0.0481
15139W        W32663   9.124   5.693   3.528  0.0437  0.0889 -0.0624
15140W        W32664  13.195   2.426  14.440 -0.0580  0.3073  0.2479
15141W        W32665  16.907  11.304   3.292 -0.1618 -0.1203  0.0201
15142W        W32666   1.784  16.850  12.945 -0.0955  0.3595  0.0401
15143W        W32667  13.738  12.810  13.631  0.0121 -0.0831  0.1618
15144W        W32668   4.030  14.812  14.576 -0.0993  0.0022  0.0181
15145W        W32669  10.731  10.047   2.293  0.1732  0.0078  0.0422
15146W        W32670  11.843   9.062  14.968 -0.0251 -0.1281  0.1711
15147W        W32671   4.534   4.386  17.314  0.0797  0.1781 -0.1539
15148W        W32672   5.738   2.888   4.533  0.0392 -0.0641 -0.0432
15149W        W32673  14.062   3.439   3.176  0.0828 -0.3275 -0.3816
15150W        W32674  16.786   3.481   0.685  0.1266  0.0044  0.0886
15151W        W32675  11.257   6.904   1.212  0.1393 -0.0669 -0.0515
15152W        W32676  13.098  10.424   3.398  0.1490 -0.0885  0.1389
15153W        W32677  15.041   1.951  13.287 -0.1069  0.0112 -0.1406
15154W        W32678  10.384  15.445  13.995  0.1568  0.3307 -0.0668
15155W        W32679  10.092  11.520  14.617  0.2638  0.2821 -0.0503
15156W        W32680   2.106   4.764  13.792  0.1706 -0.1524  0.1371
15157W        W32681   5.671   6.577  14.944  0.1032 -0.0988  0.2465
15158W        W32682  16.436   5.982   2.375  0.3386 -0.1924  0.0491
15159W        W32683   5.651   1.448  16.825  0.2759 -0.0095  0.0245
15160W        W32684   9.927  12.763   1.001 -0.4663  0.0800  0.1231
15161W        W32685  11.091  14.686  12.981  0.0801  0.4351 -0.1802
15162W        W32686  11.004   4.315   1.553  0.0217 -0.3409  0.0534
15163W        W32687  11.551   9.341   4.106 -0.0508  0.0469 -0.2121
15164W        W32688   9.484   5.737  16.214 -0.0143  0.1535 -0.0676
15165W        W32689  14.425   4.192   0.028 -0.1465  0.0586  0.0437
15166W        W32690   6.829  13.681  15.636 -0.0408  0.0877 -0.3693
15167W        W32691  10.924  14.572   3.174  0.1903 -0.0635 -0.1422
15168W        W32692  13.914  12.127   2.254 -0.0553 -0.2533 -0.0649
15169W        W32693   4.147  12.865  14.035  0.2270  0.0827  0.0245
15170W        W32694  16.051  14.142   5.059 -0.0246 -0.2269  0.0092
15171W        W32695  10.936  14.802   4.003 -0.0126  0.1359 -0.0529
15172W        W32696  14.272   5.881  12.800  0.1799  0.1247 -0.4434
15173W        W32697   0.672   3.955  17.159 -0.0137 -0.2641 -0.3468
15174W        W32698   3.403   8.875  12.198  0.3184 -0.1520 -0.0019
15175W        W32699   1.886   6.510  16.280 -0.0037 -0.3319  0.2163
15176W        W32700  16.423  13.985   0.485 -0.0473 -0.1101 -0.1333
15177W        W32701   6.867  11.637  12.690 -0.2311 -0.1175  0.4862
15178W        W32702  12.817   9.032  16.892  0.0398 -0.0267 -0.0392
15179W        W32703  10.667  13.932   3.878 -0.0500  0.0561 -0.5217
15180W        W32704  11.971  16.351  13.761 -0.0039  0.2325  0.0184
15181W        W32705   0.058  17.114   0.710 -0.0542  0.3033 -0.0891
15182W        W32706   9.281   7.469  15.782  0.2394  0.1013 -0.3210
15183W        W32707   1.041   3.298  17.520  0.0590  0.1460 -0.1747
15184W        W32708  10.909  12.586   4.558  0.0905 -0.0614  0.0298
15185W        W32709   9.702  16.448  14.129 -0.2532  0.0428  0.1987
15186W        W32710   1.931  15.930   0.319 -0.2105 -0.0734 -0.0821
15187W        W32711   3.442   9.743  16.735  0.1122 -0.1157  0.1338
15188W        W32712   1.264   7.121   2.596 -0.0502  0.2294  0.2288
15189W        W32713  10.538   2.556  15.908 -0.1650  0.5252 -0.0712
15190W        W32714  10.898  10.835  14.326 -0.0905  0.1265  0.1809
15191W        W32715  12.980   7.471   3.826  0.2252  0.1460  0.1474
15192W        W32716  10.958   8.222  15.923 -0.1325 -0.0575 -0.1925
15193W        W32717   2.795   5.265  11.479  0.1882  0.0728  0.3309
15194W        W32718  10.961   8.563  15.577  0.0660  0.1699  0.0653
15195W        W32719   1.707   1.471  15.850  0.1991  0.0938  0.0622
15196W        W32720   7.807  11.087   0.882  0.0101 -0.0398 -0.1239
15197W        W32721   0.050  14.222   4.545  0.1076 -0.1238 -0.4356
15198W        W32722   5.869  16.490   1.114  0.1469  0.1463 -0.2651
15199W        W32723   4.565  14.235   4.164 -0.1656  0.3510 -0.1257
15200W        W32724  12.733   2.797   5.384 -0.0398 -0.2385  0.2245
15201W        W32725  12.664   3.449  14.862 -0.1119 -0.0046  0.1513
15202W        W32726  11.087  10.562  17.496  0.1672 -0.1890  0.0347
15203W        W32727   0.675  10.229   0.013  0.0496 -0.0737 -0.1183
15204W        W32728   6.447   8.195  15.327 -0.0009 -0.0737 -0.0505
15205W        W32729   7.830   5.254  13.229  0.0109 -0.3349  0.0712
15206W        W32730  11.051   3.631   0.898  0.0668  0.1612 -0.0417
15207W        W32731   4.980  16.630  12.213  0.0346 -0.1479 -0.0568
15208W        W32732  15.698   0.523   1.906  0.0235 -0.2334 -0.3104
15209W        W32733  12.417   5.134  13.357  0.3139  0.0224 -0.0785
15210W        W32734   0.590  16.532   4.644  0.0878  0.0476 -0.0398
15211W        W32735  13.119   2.082  14.995 -0.1795 -0.1842  0.1606
15212W        W32736   0.053   7.347   3.148 -0.1855  0.1352  0.0111
15213W        W32737   0.881  10.885   2.096  0.0693 -0.0405  0.0487
15214W        W32738  15.643   5.525  14.790 -0.1707 -0.0467 -0.0182
15215W        W32739  14.112   6.744  13.772  0.2058 -0.0262  0.1465
15216W        W32740   2.879  13.642  15.915 -0.3473  0.1372  0.1612
15217W        W32741   7.427   3.922  15.863  0.1368  0.2880  0.3319
15218W        W32742  14.987   8.224  13.099 -0.0284 -0.1930  0.1547
15219W        W32743   4.522   6.384   0.302 -0.0176 -0.1834  0.0161
15220W        W32744  13.434  10.633  12.130 -0.0686  0.0812 -0.1170
15221W        W32745  12.148   8.663   1.072 -0.0511  0.1878 -0.3535
15222W        W32746   5.663   3.776   1.515 -0.1047  0.0708  0.0578
15223W        W32747   5.961  10.885  17.068 -0.2617 -0.0312 -0.0285
15224W        W32748  16.350   7.524  13.522 -0.1013 -0.0131  0.2063
15225W        W32749   2.044   2.139  17.345 -0.0101 -0.1156 -0.2555
15226W        W32750  15.434   0.237  12.590 -0.2372  0.2697 -0.0218
15227W        W32751   0.636   0.214   4.474 -0.2259 -0.2814 -0.0274
15228W        W32752  14.235  13.034  17.036  0.0629 -0.1873 -0.2507
15229W        W32753   0.445  13.576  14.011  0.1338  0.1714 -0.1910
15230W        W32754  10.247   2.276  14.495  0.2480  0.3557  0.0822
15231W        W32755  15.022   7.494   0.988 -0.0693 -0.1824  0.1113
15232W        W32756  13.691   2.725   5.166  0.0514  0.1028  0.1000
15233W        W32757   8.247   7.645   3.615  0.0443 -0.2018 -0.2596
15234W        W32758  16.654  14.360   3.342 -0.0724  0.2885  0.2386
15235W        W32759   7.318   8.035   2.279  0.4044  0.0195  0.0302
15236W        W32760   1.968   7.801  12.835  0.0516 -0.3530  0.0200
15237W        W32761   7.366   7.648   3.197 -0.0596  0.3051 -0.0191
15238W        W32762   8.439   5.600  16.821 -0.0935 -0.2404 -0.1319
15239W        W32763  16.466   6.171  17.243 -0.3468 -0.2215 -0.4996
15240W        W32764   5.536   8.454  14.236 -0.2711  0.2355  0.0497
15241W        W32765   1.401  16.305   4.127  0.0707  0.1354  0.3332
15242W        W32766  14.752  13.655   3.936 -0.0128 -0.1828  0.4110
15243W        W32767   9.819   2.691   0.260 -0.3479  0.0642 -0.0627
15244W        W32768   6.732   7.356  14.348  0.3368 -0.0497 -0.0363
15245W        W32769  11.395  12.110  12.495  0.2322  0.1349  0.0947
15246W        W32770  10.325  12.312  13.567  0.1405  0.1873  0.1482
15247W        W32771   4.014   5.613   0.812 -0.0911 -0.2845  0.2121
15248W        W32772   1.905   3.785  13.817 -0.0847 -0.0225  0.0346
15249W        W32773   9.064   1.337  12.906  0.3056 -0.2479 -0.0725
15250W        W32774   2.235   3.330  12.895  0.3164 -0.0708  0.2043
15251W        W32775   1.403   4.677   1.352 -0.3626 -0.1547  0.1223
15252W        W32776   3.274   1.554   3.709 -0.0188  0.3509  0.0226
15253W        W32777   1.670  11.522  15.640 -0.0568  0.1866 -0.1566
15254W        W32778  15.071   8.942  14.220 -0.1539 -0.0433 -0.0533
15255W        W32779  11.796   8.211   0.522  0.3041  0.0468  0.0733
15256W        W32780  16.168  12.397   1.078 -0.0070 -0.1451  0.0549
15257W        W32781   9.918   9.356  13.437  0.0664 -0.2666  0.0654
15258W        W32782   6.678   7.583   1.174  0.0573  0.2472 -0.0373
15259W        W32783   6.003  16.918   2.258 -0.1154  0.2380 -0.0095
15260W        W32784  15.068   2.186   1.988  0.1596  0.0643  0.1272
15261W        W32785  13.744   6.960   1.196 -0.0472 -0.0760  0.1195
15262W        W32786   3.853   5.909  13.843 -0.0689  0.1301  0.0563
15263W        W32787   9.199   2.100  15.541  0.2422 -0.0964  0.1675
15264W        W32788  14.000   6.202   3.317 -0.0109 -0.0572  0.0329
15265W        W32789  13.653  15.439  14.829 -0.2976 -0.0715  0.0779
15266W        W32790   1.507   9.700  13.313  0.0843  0.0126  0.2858
15267W        W32791  16.534   5.684   0.782  0.0278 -0.4066  0.0406
15268W        W32792  15.406  16.307  12.103 -0.1529  0.0273  0.0107
15269W        W32793   6.407  15.950  17.142  0.0421 -0.0924  0.0704
15270W        W32794  14.525  14.231  17.078 -0.1692  0.1437  0.1531
15271W        W32795  14.488  15.461   5.553 -0.0153  0.2106 -0.0014
15272W        W32796  11.164   7.414   1.851 -0.3714  0.0281  0.0227
15273W        W32797  15.875  10.472  16.832 -0.0419 -0.1097  0.1132
15274W        W32798  10.742   2.083  12.671  0.2221 -0.0915 -0.1487
15275W        W32799   2.876  14.344   0.953 -0.0085 -0.2734  0.0172
15276W        W32800  14.536   6.112   0.942 -0.1189  0.3383  0.2198
15277W        W32801   5.549   7.267   0.452  0.1365  0.1875  0.1126
15278W        W32802  12.982   7.191  16.767 -0.4564 -0.0698 -0.1957
15279W        W32803   8.870  15.803   3.920 -0.0225  0.0655 -0.0028
15280W        W32804   7.028   5.396  14.601 -0.0194 -0.0672  0.1482
15281W        W32805   9.999  13.170   4.109 -0.2039 -0.1839  0.2120
15282W        W32806   6.576  13.902   5.751  0.1772 -0.2435  0.1861
15283W        W32807  17.007  13.163   2.952  0.0453  0.1744  0.0168
15284W        W32808   8.551  16.295   0.207 -0.0149  0.0514  0.0471
15285W        W32809   8.958   9.139  16.660 -0.1343 -0.0040 -0.0250
15286W        W32810   1.139  13.723  13.149 -0.2991  0.0273  0.0018
15287W        W32811  16.885   9.694  12.988 -0.0985 -0.1318  0.1716
15288W        W32812   8.575  14.613   0.705  0.1259  0.0578  0.0109
15289W        W32813   1.341   0.147  14.318 -0.0678 -0.1127 -0.0095
15290W        W32814   1.724   7.131   0.600  0.3481  0.2658  0.1410
15291W        W32815   7.735   8.459  17.632 -0.0795  0.0238  0.2223
15292W        W32816   4.244   8.468   2.510 -0.1620 -0.0092 -0.1357
15293W        W32817  10.535  10.447   4.683 -0.2883  0.0982  0.0523
15294W        W32818   5.045  12.845  17.517  0.0883  0.3548  0.0244
15295W        W32819   6.755   9.764  13.953  0.2536  0.2532  0.1870
15296W        W32820  10.351  11.984   5.515 -0.0372 -0.0694  0.0625
15297W        W32821   1.891   6.004  16.298  0.2213 -0.3198  0.0819
15298W        W32822  14.231  14.331   0.076 -0.0330 -0.2285  0.0821
15299W        W32823   4.899   1.184  16.638  0.1640 -0.2572 -0.0021
15300W        W32824  16.943   1.523   5.612 -0.2010  0.2790  0.0848
15301W        W32825   6.954  14.988   0.095  0.1775  0.0146 -0.0159
15302W        W32826   8.993   2.403   2.452  0.0265 -0.4513 -0.3946
15303W        W32827   0.711   7.015  15.981 -0.0616  0.0386 -0.2275
15304W        W32828   2.560   1.935   0.426 -0.3520  0.0917  0.1237
15305W        W32829   2.312   9.499  14.481 -0.0785 -0.1516 -0.5000
15306W        W32830  10.482   2.254   0.155 -0.3593 -0.0633  0.2632
15307W        W32831  13.523   2.986  14.356  0.0769  0.0089  0.0316
15308W        W32832   4.812   4.130   2.450 -0.0501  0.0209 -0.1691
15309W        W32833   4.653   7.707  16.174 -0.1503 -0.1515 -0.3272
15310W        W32834  10.215   0.993  13.307  0.3056  0.0678  0.2347
15311W        W32835  14.731  16.659   0.500  0.0856  0.0045  0.1446
15312W        W32836   3.193   0.698  14.728  0.0118  0.1527 -0.1455
15313W        W32837  15.354  10.939  16.578 -0.0815  0.1091  0.1710
15314W        W32838  11.899   3.863  15.998  0.0700  0.2245 -0.0357
15315W        W32839   8.506   9.765   0.470  0.1862  0.1154 -0.3981
15316W        W32840  11.190   6.993   3.681 -0.2123  0.0324 -0.2375
15317W        W32841   9.106  12.078   4.350  0.1124 -0.1596 -0.1581
15318W        W32842  15.566   3.612   2.774 -0.4200  0.1266 -0.1501
15319W        W32843  10.996   0.315   4.718 -0.1234  0.0391  0.2270
15320W        W32844   9.571  15.113   4.466  0.0770  0.0207 -0.1208
15321W        W32845  14.882   4.385   0.231  0.1112  0.3360 -0.0259
15322W        W32846   5.367   9.961   4.986 -0.1463 -0.1456 -0.2945
15323W        W32847   4.248  15.950   1.306 -0.0734 -0.2340  0.1877
15324W        W32848  15.002   5.086   2.820 -0.0839  0.1564 -0.3072
15325W        W32849  13.158   6.431  15.059 -0.0062 -0.2255 -0.3885
15326W        W32850   4.168  17.120   6.069 -0.2900 -0.1232 -0.0985
15327W        W32851   0.248   0.821  16.223 -0.0847 -0.0314 -0.0725
15328W        W32852   4.206  15.082  12.498 -0.0129  0.0445 -0.1327
15329W        W32853  11.729  17.160   0.446 -0.1417 -0.2025  0.0260
15330W        W32854   3.679  10.651   4.428 -0.3878 -0.1998  0.1871
15331W        W32855   0.160   0.143   1.480 -0.1769  0.0898 -0.1898
15332W        W32856   0.772   4.345  14.364 -0.0156 -0.1218  0.4481
15333W        W32857   8.046  14.718  15.816 -0.0995 -0.0959 -0.0992
15334W        W32858   8.864  11.093   1.677  0.0402  0.0855  0.0391
15335W        W32859   5.095  13.111  14.859 -0.2674  0.0233 -0.1252
15336W        W32860  15.386   9.737   2.269  0.2952 -0.1316  0.3044
15337W        W32861  15.653   9.552  16.810  0.3377 -0.0751  0.0451
15338W        W32862   9.874  12.667   2.122  0.3541 -0.2594  0.0794
15339W        W32863  10.811   7.345  15.799 -0.1287  0.3186  0.0188
15340W        W32864   6.052  14.065  12.969  0.0677  0.0979 -0.0462
15341W        W32865   5.303   0.363  14.793  0.0448 -0.2202 -0.2150
15342W        W32866   7.349   5.385  12.184 -0.2411  0.1905 -0.2857
15343W        W32867  10.352  11.383  15.034 -0.1415 -0.0257  0.1157
15344W        W32868   7.189   4.293   1.047  0.2236 -0.1231 -0.0754
15345W        W32869   2.145  13.510   4.254 -0.2986 -0.1862  0.0084
15346W        W32870   1.161   0.067   4.387  0.0957 -0.0812  0.1605
15347W        W32871   3.311   9.004   0.738 -0.1294  0.2431  0.0146
15348W        W32872  16.615   1.687  15.598  0.0406 -0.0505 -0.1164
15349W        W32873   3.035  16.569  15.803  0.1024 -0.1011  0.1881
15350W        W32874   1.138   2.361   1.806 -0.0061 -0.1671 -0.1948
15351W        W32875   5.715   5.874  12.330 -0.0011 -0.1171  0.0890
15352W        W32876  12.238  14.566  12.955  0.0532 -0.3707  0.0777
15353W        W32877  13.060   8.892  13.487  0.3104  0.1668 -0.0023
15354W        W32878   1.455  13.392  14.814  0.0476 -0.1643  0.1034
15355W        W32879  16.021   1.119  14.570  0.3012 -0.3428 -0.2774
15356W        W32880   8.402  12.500   1.054  0.0134 -0.1303  0.1468
15357W        W32881   8.354   6.890  14.324 -0.0788  0.1862  0.3001
15358W        W32882   8.225  13.830  15.994 -0.0170 -0.0691  0.1318
15359W        W32883  14.926  12.960  16.688 -0.1998 -0.3094  0.1244
15360W        W32884  15.314   3.873   0.056 -0.0930 -0.0047 -0.0115
15361W        W32885   1.924   0.966   5.289  0.0849 -0.1141  0.3475
15362W        W32886   5.336  14.067  17.545  0.0396 -0.0762  0.1504
15363W        W32887   6.040   2.888  16.887 -0.1154 -0.0681 -0.2168
15364W        W32888   8.746  10.884  13.616  0.1201 -0.0263  0.2158
15365W        W32889   7.711  12.557   3.428  0.0309 -0.0469 -0.0737
15366W        W32890   8.663  13.708  16.790 -0.1426 -0.2913 -0.0373
15367W        W32891  12.594   7.100   0.054  0.0055  0.0047  0.0701
15368W        W32892   0.977   0.780   5.265 -0.0829 -0.0022  0.1720
15369W        W32893   0.567   3.375  16.467 -0.5839 -0.1970  0.1744
15370W        W32894   7.117  13.444   4.974 -0.0509  0.0585  0.0521
15371W        W32895   2.501   6.204  15.521  0.2107  0.0977 -0.0155
15372W        W32896  13.468   5.601  15.843  0.0279  0.1840 -0.1619
15373W        W32897   9.681   1.408   2.737 -0.0731  0.0265  0.1989
15374W        W32898   3.523  15.120   1.548  0.0866  0.0820  0.2573
15375W        W32899   9.120  15.004   0.208 -0.2357  0.0692 -0.1849
15376W        W32900  14.579   6.385  15.465 -0.1292  0.2698 -0.0151
15377W        W32901   5.167   7.201  14.087 -0.1157  0.0411 -0.2696
15378W        W32902  10.952   9.238  15.516 -0.1655  0.1576 -0.2451
15379W        W32903   1.186  13.956   5.349  0.1100 -0.2210 -0.0131
15380W        W32904   8.870   5.121  13.054  0.0632  0.0300 -0.0673
15381W        W32905   8.415   0.541   0.321 -0.2655  0.2446 -0.0371
15382W        W32906  11.446  14.781   1.716 -0.2133 -0.1236  0.1694
15383W        W32907   6.740   7.332  15.457  0.3273 -0.6802 -0.4756
15384W        W32908  12.379   3.673  16.858 -0.0894 -0.3349  0.0399
15385W        W32909  17.056   4.029  16.541  0.1888 -0.0340  0.1114
15386W        W32910  12.022   1.952  13.492 -0.0243  0.0055  0.1101
15387W        W32911  13.447   9.236   4.165 -0.3309 -0.1112 -0.1266
15388W        W32912  16.278   0.972   4.194  0.0116 -0.0033 -0.0458
15389W        W32913   8.604   5.637   4.088  0.1783 -0.2921  0.0503
15390W        W32914  10.155   1.057   3.801 -0.0103 -0.0670  0.0024
15391W        W32915  15.126  13.400   0.299  0.2068 -0.1307  0.4520
15392W        W32916  10.025   3.455  16.134  0.0162 -0.1305  0.0880
15393W        W32917   9.746   1.483   5.505 -0.0894  0.0862 -0.0604
15394W        W32918  15.604  13.704  14.350 -0.0314 -0.0838 -0.1072
15395W        W32919   3.858  11.932  12.978 -0.1286  0.3159 -0.3009
15396W        W32920  15.927   9.715   3.953 -0.1312  0.0776 -0.2080
15397W        W32921  11.127  10.034  15.009 -0.0077 -0.1990  0.1127
15398W        W32922   9.849   3.270  16.541 -0.0665  0.0234  0.0013
15399W        W32923   8.817   2.730  12.496 -0.1625 -0.0813  0.0749
15400W        W32924   9.769   0.984  12.951 -0.2141  0.0883 -0.1768
15401W        W32925  14.248  16.087  16.389  0.1289 -0.2036 -0.0062
15402W        W32926   6.406  10.299   2.714  0.0202 -0.3845  0.0931
15403W        W32927  12.610  13.368   0.518  0.1115 -0.1207  0.0214
15404W        W32928   1.980  13.817  13.175  0.3746 -0.1114 -0.3347
15405W        W32929   8.866   2.551  17.167  0.1270 -0.0020  0.2681
15406W        W32930   3.191   4.159  12.921 -0.0985 -0.1978 -0.2968
15407W        W32931   4.088  17.020   5.163 -0.1995  0.0443  0.1598
15408W        W32932   8.599  12.902  13.854 -0.1890 -0.1491 -0.3333
15409W        W32933   3.765  10.286   2.731 -0.0200 -0.3651  0.2286
15410W        W32934  16.988   4.300   1.708 -0.0764  0.0916  0.2211
15411W        W32935   1.410   1.413   2.479 -0.2080 -0.0201  0.0520
15412W        W32936  14.875  14.985   3.551 -0.2815 -0.2550 -0.1464
15413W        W32937   7.022  12.001  17.361  0.1995  0.1532  0.3768
15414W        W32938   7.774  16.339  15.219 -0.0005 -0.0316  0.3776
15415W        W32939   4.429   7.144  14.892  0.0162 -0.0096  0.2043
15416W        W32940  14.062  10.807  15.441 -0.2869 -0.1090  0.2025
15417W        W32941   0.559   8.222  14.118  0.0049 -0.3613 -0.3140
15418W        W32942   4.068   1.705   5.076  0.1765  0.1724 -0.2161
15419W        W32943   3.360   2.539   2.474 -0.0040 -0.2850 -0.0084
15420W        W32944  14.125  15.400   4.063 -0.2102  0.0587  0.4225
15421W        W32945   9.679  15.205   5.078  0.1142 -0.0005 -0.0041
15422W        W32946  17.105  14.798   4.114  0.1912 -0.0819  0.0683
15423W        W32947   6.618   8.489   1.499 -0.0381  0.1209 -0.1157
15424W        W32948  16.356   6.190   1.417 -0.0249  0.2200 -0.3673
15425W        W32949   7.894  10.245  15.631  0.2002 -0.2168  0.1279
15426W        W32950  17.143  11.867  14.681 -0.4635  0.4524 -0.1273
15427W        W32951   2.109   2.485   5.410 -0.0827  0.1426 -0.3867
15428W        W32952   0.312  14.621  12.838 -0.2175 -0.0034 -0.1314
15429W        W32953  16.033   8.836   3.846 -0.1670  0.0385  0.1011
15430W        W32954   0.635   9.607  15.094 -0.3062  0.0185 -0.0962
15431W        W32955   0.470  11.143   4.910 -0.1139 -0.0288 -0.2799
15432W        W32956   8.311  15.186  12.094 -0.2024  0.0708  0.1342
15433W        W32957  12.118  16.653  15.986 -0.1310 -0.1071 -0.0044
15434W        W32958   3.275   3.764   3.149  0.2180  0.2315 -0.3445
15435W        W32959  11.138  15.894  16.746  0.3912 -0.0203 -0.0580
15436W        W32960  14.215  15.939   3.856 -0.0667  0.2884  0.1025
15437W        W32961  16.820  10.684  14.834  0.1685 -0.1312 -0.0740
15438W        W32962   5.385  15.019  17.078  0.0964  0.0097 -0.0424
15439W        W32963  12.547   8.777  17.362  0.1221  0.0372 -0.1163
15440W        W32964  16.317   1.743   4.627  0.2662  0.1390 -0.1576
15441W        W32965  15.004  13.130  17.571 -0.1460 -0.0167  0.0017
15442W        W32966  11.656  16.779  14.561  0.0907 -0.2563 -0.1040
15443W        W32967   7.932  13.918   3.008  0.3141  0.2747 -0.2648
15444W        W32968   2.343   8.537  16.038  0.0949  0.0505 -0.3316
15445W        W32969  14.484   9.165  13.472  0.0293 -0.0646 -0.0869
15446W        W32970  15.515   2.295   2.817 -0.1562  0.1583 -0.0474
15447W        W32971  14.933  10.261  11.969 -0.0098 -0.2467  0.1695
15448W        W32972   7.510  16.740  14.952 -0.3687  0.2036 -0.0680
15449W        W32973   2.993   2.819   2.869 -0.1589 -0.3675 -0.1099
15450W        W32974  15.561   6.846   4.762 -0.1233 -0.1211 -0.2798
15451W        W32975   3.569   4.618   4.575  0.0066 -0.1670 -0.0109
15452W        W32976  15.040  11.630   4.857 -0.1908 -0.0881 -0.1942
15453W        W32977  11.941  10.459   2.298 -0.0839 -0.0467  0.3122
15454W        W32978   0.870   3.903  17.621  0.0393 -0.0626 -0.4008
15455W        W32979  15.790   5.769  15.296 -0.2403 -0.1088 -0.1724
15456W        W32980   6.033  13.504   5.159 -0.0462 -0.1691  0.0355
15457W        W32981   2.340  15.115  16.939  0.0053  0.1482  0.1845
15458W        W32982   0.842   6.979   5.090  0.0693  0.0332  0.1351
15459W        W32983  10.656   7.464   0.541 -0.1303 -0.1061  0.0535
15460W        W32984   0.668   3.588  13.293 -0.1231  0.1752 -0.1409
15461W        W32985  16.547   9.910   4.655 -0.2595 -0.1475  0.2082
15462W        W32986   7.521  14.683   0.988  0.0472 -0.0145 -0.2343
15463W        W32987   2.024  15.058   5.265 -0.0077 -0.1162 -0.3290
15464W        W32988   8.367   3.965  12.267 -0.0356  0.2767  0.0666
15465W        W32989   2.270  10.897  12.837  0.0274 -0.0786  0.2790
15466W        W32990   5.646   9.998  16.511 -0.2077  0.2964 -0.1677
15467W        W32991   0.363  13.383   3.692 -0.0795 -0.0737 -0.0057
15468W        W32992   5.780   6.902  12.589  0.1121 -0.0248 -0.1262
15469W        W32993  13.762   2.726  12.222  0.5195  0.2927  0.0606
15470W        W32994  11.664  12.381  14.086 -0.3360 -0.0209  0.2844
15471W        W32995   2.849  15.288   2.055 -0.3866 -0.2002  0.0989
15472W        W32996   0.408   7.689   5.103 -0.1128 -0.0334  0.0612
15473W        W32997   1.294   9.206   5.648 -0.0843 -0.0937  0.0119
15474W        W32998   5.529   0.171   1.045 -0.1229  0.1315 -0.1652
15475W        W32999   3.432   6.586   0.169  0.1857 -0.0944 -0.2247
15476W        W33000  14.420  10.422  14.088 -0.2533 -0.3557  0.1186
15477W        W33001  12.834  12.340   1.399  0.2762 -0.1906 -0.0562
15478W        W33002  10.120   0.651  15.244  0.1491 -0.2623  0.2208
15479W        W33003   5.138   3.592   0.834  0.0706 -0.2220 -0.0180
15480W        W33004  14.874   9.325  17.425  0.2638  0.1045  0.1778
15481W        W33005   7.125  11.690   2.609  0.0064  0.0871 -0.1229
15482W        W33006  13.512   0.945  17.706 -0.1718  0.0797 -0.1207
15483W        W33007   0.789   8.383  13.120  0.0321  0.1557 -0.0954
15484W        W33008   5.353  10.149  13.680  0.0075  0.0975  0.1617
15485W        W33009  13.858  12.174  15.875 -0.1507  0.1576 -0.0310
15486W        W33010  13.859  10.854  11.248  0.0735 -0.1044 -0.1478
15487W        W33011   2.865   1.867  16.496  0.0824  0.0658 -0.2138
15488W        W33012   3.515  17.008  12.612  0.1933  0.0871 -0.0297
15489W        W33013   1.238   5.973   0.776 -0.0489 -0.0705 -0.2579
15490W        W33014  15.817  16.055  17.616 -0.1322  0.0333  0.2449
15491W        W33015   6.406  15.752   1.104  0.2578 -0.0572 -0.1222
15492W        W33016  10.436  15.530   3.754  0.1036  0.0029  0.2565
15493W        W33017  15.082   7.978  15.990  0.0937 -0.1240  0.1136
15494W        W33018   1.265   7.332   4.155  0.1036  0.2505  0.0128
15495W        W33019   4.561  13.810   4.486 -0.2392 -0.0890  0.1481
15496W        W33020  13.437   3.167  12.885  0.0684  0.2615  0.0295
15497W        W33021   0.730   1.400  15.044  0.0163 -0.2105 -0.0012
15498W        W33022   5.148  13.838  13.040  0.1509 -0.0735 -0.0131
15499W        W33023   5.276  16.718  17.734 -0.0380  0.0273 -0.1713
15500W        W33024  10.175   7.244   1.089  0.2307 -0.0196 -0.0140
15501W        W33025  16.241  11.337   3.804  0.3271 -0.1029  0.0531
15502W        W33026  11.389   9.250   2.045  0.0583  0.0131 -0.3386
15503W        W33027   6.330  14.654   1.507  0.0820 -0.1248  0.0303
15504W        W33028   6.181  11.932  12.305 -0.1297  0.0233  0.0173
15505W        W33029  11.261   9.771  14.562 -0.1441  0.1676 -0.0596
15506W        W33030   1.901   9.019   0.789  0.0310  0.1514 -0.1559
15507W        W33031   6.388  14.420  12.959 -0.3683  0.2705  0.0147
15508W        W33032  12.566   1.929  13.996 -0.1087 -0.0707 -0.1443
15509W        W33033  16.156   2.829   2.762  0.1364  0.2019 -0.1282
15510W        W33034   9.040   0.651  16.328 -0.0707  0.0652  0.3030
15511W        W33035  12.245  11.162  16.831  0.0742  0.0241 -0.1779
15512W        W33036   0.669  13.566   3.335 -0.1020  0.3154 -0.0712
15513W        W33037   7.646  14.507  15.660 -0.0547 -0.0436  0.2200
15514W        W33038   6.828  13.941  14.695  0.0841 -0.2498 -0.2485
15515W        W33039   8.274  12.042   3.896  0.2712  0.2221  0.1380
15516W        W33040   4.505   1.059  15.635  0.1597 -0.2345 -0.1177
15517W        W33041   8.551   2.509  13.394 -0.3402  0.0165 -0.2411
15518W        W33042  15.433  12.315   4.427 -0.1587  0.3069  0.1564
15519W        W33043   8.322  16.864  14.451 -0.1524  0.0123 -0.0701
15520W        W33044   3.874  17.128  14.243 -0.0713 -0.1606 -0.2063
15521W        W33045  13.726  11.331  17.604 -0.0601  0.0783  0.4069
15522W        W33046  16.481   8.331   2.352 -0.0921  0.0307  0.2021
15523W        W33047   4.175   6.403   4.900 -0.0077  0.0184  0.1975
15524W        W33048  10.662  11.199   3.546 -0.1271 -0.1541 -0.0106
15525W        W33049   3.325   9.479  14.643 -0.3025 -0.0988  0.0362
15526W        W33050   0.335  12.524  14.951  0.1322 -0.0390  0.0199
15527W        W33051  11.909  15.518   4.336  0.0898  0.2962  0.6250
15528W        W33052  13.367  14.849  14.844 -0.0531  0.1609  0.0100
15529W        W33053   4.149   7.632   2.118  0.0676  0.3177 -0.0556
15530W        W33054   1.653   6.604   1.815 -0.0547  0.0533  0.1565
15531W        W33055   8.264   1.281  14.668 -0.2025  0.2483  0.1025
15532W        W33056   4.678   2.605  14.383  0.0639  0.0288  0.4140
15533W        W33057  10.629  11.809  17.701 -0.0036 -0.0191  0.3093
15534W        W33058   7.606   2.881  11.644 -0.1012 -0.1049 -0.2766
15535W        W33059   1.471   0.909  14.280  0.2307  0.1226  0.1213
15536W        W33060   3.301   4.173   5.409  0.1711  0.2694 -0.0654
15537W        W33061  16.851  11.673  15.683  0.0191 -0.1744  0.0442
15538W        W33062   3.064   8.716   0.331 -0.0009 -0.0188  0.0416
15539W        W33063  15.785  15.133   5.409 -0.0837 -0.0239  0.0633
15540W        W33064   0.264  12.690  13.299 -0.3416 -0.0363  0.0715
15541W        W33065   6.437   1.416  17.383  0.0613 -0.1411  0.0982
15542W        W33066   5.843  15.530  13.910  0.0091  0.1963  0.2900
15543W        W33067  17.108  12.204   3.118  0.0453  0.0448  0.2174
15544W        W33068   2.273   0.770   5.707 -0.1840 -0.0820 -0.0932
15545W        W33069  16.050   3.677  12.901 -0.0084  0.2921  0.0832
15546W        W33070  13.840  11.317  15.257 -0.2930  0.0096 -0.0079
15547W        W33071  10.458  11.566   3.876  0.1826 -0.2218 -0.3251
15548W        W33072   2.342  13.780  16.759  0.0532 -0.4414 -0.1256
15549W        W33073   0.936   2.302  16.291 -0.1566  0.1186 -0.2733
15550W        W33074   2.060   2.676  13.485  0.2494 -0.1240 -0.0242
15551W        W33075   0.002   6.896  13.802 -0.0231  0.1121 -0.0636
15552W        W33076   9.402   5.704  12.539 -0.1956  0.0531 -0.0515
15553W        W33077   8.322   9.503   0.098 -0.4014 -0.0091 -0.0318
15554W        W33078   2.217   1.125   4.313 -0.0442  0.0294  0.2425
15555W        W33079  10.879   4.229   3.909 -0.2122  0.0872  0.2221
15556W        W33080  13.169   4.208  13.336  0.0558  0.2921 -0.0312
15557W        W33081   0.089  16.724  11.377  0.0846  0.0312 -0.1109
15558W        W33082  10.494   8.964  11.333 -0.0094 -0.0506  0.0274
15559W        W33083  13.145  10.643   2.377 -0.2904 -0.0431  0.0142
15560W        W33084  12.319   2.790   4.611 -0.0597 -0.2162 -0.2307
15561W        W33085  13.758  10.415   0.749 -0.1375 -0.1198 -0.1265
15562W        W33086  12.628  16.313   4.106  0.1407  0.3256 -0.0581
15563W        W33087   7.105   4.534  13.066  0.4298  0.1466  0.2216
15564W        W33088   0.837   0.868  12.843 -0.0368  0.1879 -0.3508
15565W        W33089   9.637   9.723   3.336 -0.0178  0.1419  0.0296
15566W        W33090   6.682   1.861  13.435  0.1146  0.1613 -0.1730
15567W        W33091  10.134   7.265  11.834 -0.0805  0.1352 -0.2678
15568W        W33092  11.289   3.180  16.132  0.0307 -0.0654 -0.0588
15569W        W33093  12.410  16.418   1.106 -0.0789 -0.0173  0.1607
15570W        W33094  13.749   0.537  14.888  0.0672  0.1576 -0.1943
15571W        W33095  11.833  15.856   4.792  0.0774 -0.1368 -0.3978
15572W        W33096  10.172   8.378  13.480  0.0759 -0.1495  0.2430
15573W        W33097   5.762   8.961   0.197  0.2505 -0.1827  0.0478
15574W        W33098   3.986  15.190   4.876  0.0917  0.0992 -0.0849
15575W        W33099  13.601   0.186   3.034 -0.0297 -0.4170  0.1457
15576W        W33100   0.138   4.321  16.233 -0.1144 -0.0631 -0.3401
15577W        W33101   0.814  10.207  15.296 -0.1655 -0.2685  0.1042
15578W        W33102  12.066   6.776   5.013  0.0424 -0.0362  0.0903
15579W        W33103   9.569  10.285   0.349 -0.0473 -0.1862 -0.0529
15580W        W33104   2.897  17.113   3.955  0.1004 -0.1515  0.2548
15581W        W33105   5.374   9.486   4.119  0.0673 -0.1040 -0.2684
15582W        W33106   0.976  15.781   2.408  0.1364 -0.1690 -0.0325
15583W        W33107   5.209  15.155   3.562  0.0354 -0.1085  0.0779
15584W        W33108   8.601   2.410   1.416  0.0600  0.2444 -0.0451
15585W        W33109  10.434  11.997  12.117  0.1093 -0.0570 -0.2200
15586W        W33110  16.959   3.667  15.283  0.3830  0.2410  0.1169
15587W        W33111  15.024   6.694   1.246  0.0208 -0.2890 -0.2646
15588W        W33112   2.436   4.343  15.505  0.0137 -0.0951 -0.0180
15589W        W33113  16.729   7.179  14.776 -0.0867 -0.1718  0.2109
15590W        W33114   9.028   5.438  17.599  0.0488  0.0540 -0.0664
15591W        W33115   6.078  10.776  17.540  0.3503 -0.3918  0.0698
15592W        W33116   0.269   9.041   1.615 -0.0845 -0.0155 -0.1880
15593W        W33117  13.623   9.300  17.013  0.0006 -0.1417 -0.0385
15594W        W33118  10.697   7.472  13.991  0.0850 -0.0278 -0.1597
15595W        W33119   1.508   4.402  14.513 -0.1670  0.2748 -0.1673
15596W        W33120   9.772   8.089   1.204  0.1616 -0.1016 -0.0297
15597W        W33121   0.646   4.238   0.137  0.0590 -0.1978 -0.0713
15598W        W33122   5.109  12.589   0.619  0.0871 -0.1880 -0.3246
15599W        W33123  15.700  11.320  15.202  0.1664  0.2761  0.1208
15600W        W33124  13.062  14.841   1.469  0.3569 -0.1177 -0.0748
15601W        W33125  16.391   0.069  16.571  0.4014  0.0824  0.0911
15602W        W33126   5.205  14.350  15.343  0.5340  0.2450 -0.1367
15603W        W33127   4.525   7.852   2.388 -0.4150 -0.0964 -0.1460
15604W        W33128   6.951   4.407   3.794 -0.0623 -0.1079  0.0476
15605W        W33129   2.905   0.774  13.958  0.2821 -0.1298 -0.1853
15606W        W33130  10.622  11.504  15.874 -0.0890 -0.3117 -0.4678
15607W        W33131   7.766   1.605   2.880 -0.1902  0.0576 -0.0920
15608W        W33132   1.155  11.348   4.631  0.1544 -0.0139  0.0087
15609W        W33133   3.817  12.359  16.157  0.3048  0.1292  0.0466
15610W        W33134   8.583   3.653   1.343  0.0458 -0.1834 -0.3131
15611W        W33135  16.115   2.587   3.633 -0.0510 -0.0948 -0.1626
15612W        W33136  13.337   1.203  15.967 -0.1036  0.0146  0.0237
15613W        W33137  11.926   4.376   3.624 -0.0214  0.0331 -0.2019
15614W        W33138  11.686  12.885   2.956  0.1416 -0.0242 -0.1773
15615W        W33139   6.461   7.249  14.921 -0.0103 -0.1868 -0.0075
15616W        W33140  12.930   0.492  17.554 -0.0020 -0.3673  0.1179
15617W        W33141   2.222   2.755   3.284  0.1930  0.0179 -0.2054
15618W        W33142   5.658   1.412  17.705  0.1158 -0.4480  0.1165
15619W        W33143  15.621  11.872  16.135  0.2867  0.2712  0.0965
15620W        W33144   9.718   4.455   2.299  0.0753  0.3221  0.0176
15621W        W33145  10.374   1.521   4.004 -0.0868  0.1063 -0.2038
15622W        W33146   5.153   2.167   5.412 -0.1454  0.0632 -0.0040
15623W        W33147  15.750   2.741  16.174  0.2732  0.0262  0.0908
15624W        W33148   6.480   3.746   2.310  0.1840  0.4905 -0.1705
15625W        W33149  13.450  13.406   2.958 -0.1455  0.0612  0.1199
15626W        W33150   4.861   1.424  17.084 -0.1266 -0.0067  0.0531
15627W        W33151  10.568   9.959   1.156  0.2407 -0.0182  0.0372
15628W        W33152  12.181  13.100   0.716  0.1153  0.0128  0.0662
15629W        W33153  11.990   3.667   1.020 -0.0910 -0.0867 -0.3178
15630W        W33154  11.283   1.114   2.054 -0.3835  0.2293  0.0472
15631W        W33155   4.324  15.325  13.906  0.1667 -0.0542 -0.0319
15632W        W33156   1.261  15.530   3.621  0.0134 -0.1800 -0.0484
15633W        W33157   9.552  16.465   3.794  0.1628 -0.2913 -0.0552
15634W        W33158  13.470   0.598   0.633 -0.0199  0.1622  0.2582
15635W        W33159  14.494   9.445   5.351  0.0965  0.0379 -0.4757
15636W        W33160   1.821  12.737  15.904 -0.1568  0.2920 -0.1924
15637W        W33161   7.043   3.475  15.631  0.3025 -0.0645  0.1242
15638W        W33162   4.325   6.485   4.397  0.3203 -0.2247 -0.4322
15639W        W33163  16.471  10.650   1.036  0.2936 -0.0021  0.1677
15640W        W33164  16.396  16.567  15.709  0.0790 -0.1586 -0.2091
15641W        W33165   0.729   9.897  13.517 -0.0444  0.0765  0.4283
15642W        W33166   1.182  15.500   5.845  0.1323 -0.1402  0.0768
15643W        W33167   7.860  14.677  17.215  0.0071 -0.0374 -0.0657
15644W        W33168   2.748  11.009   5.265 -0.1576 -0.4590  0.1353
15645W        W33169   8.146   2.578  13.121  0.0385 -0.1975 -0.0499
15646W        W33170   9.195   8.285   5.122 -0.1255 -0.0584 -0.2926
15647W        W33171   7.075   1.933   3.166 -0.3009 -0.2514  0.0349
15648W        W33172  12.874  10.738  16.068 -0.0144 -0.2131 -0.1367
15649W        W33173   7.379   1.238  17.692  0.1410 -0.1557 -0.1499
15650W        W33174   9.998   2.254  16.717  0.4702  0.2397 -0.1306
15651W        W33175  15.546   6.180   5.666  0.4729 -0.1186  0.2195
15652W        W33176   6.165   4.587   4.024 -0.0833 -0.1874  0.0867
15653W        W33177   1.977   5.848  17.284  0.0426  0.0859 -0.0940
15654W        W33178  13.770  14.521   4.380 -0.1469  0.1844 -0.2658
15655W        W33179  11.140   6.452   5.263 -0.0580  0.3478  0.2459
15656W        W33180  10.637   6.157  12.171 -0.1105  0.2129  0.2306
15657W        W33181   4.460   0.894   4.386  0.0689 -0.1086  0.0595
15658W        W33182   9.712  13.054   1.339 -0.2207 -0.0289  0.1309
15659W        W33183   3.144   8.016  12.316  0.0202 -0.0581 -0.2236
15660W        W33184  17.144  13.587   1.963  0.0975  0.3696 -0.0543
15661W        W33185   2.269  11.198   3.819  0.1042  0.0215 -0.0348
15662W        W33186   1.989   6.271  12.298  0.0766  0.1991  0.2422
15663W        W33187   5.259  14.230  16.540 -0.0047  0.0149 -0.0128
15664W        W33188   7.608   0.444  14.955 -0.0187  0.0432  0.0977
15665W        W33189  10.802   0.615   1.631  0.2614  0.1467  0.2395
15666W        W33190   6.381   5.699   3.397 -0.1409 -0.0157  0.0014
15667W        W33191   3.734  12.922   1.777  0.0637 -0.0364  0.0724
15668W        W33192  15.404   4.526   1.021  0.1139  0.0438 -0.1064
15669W        W33193   5.925  12.476  16.264  0.0298 -0.0735  0.1998
15670W        W33194  14.764  10.463  17.072 -0.0640  0.1886 -0.0232
15671W        W33195   0.504  14.513   5.181 -0.1253 -0.1209  0.0206
15672W        W33196  13.393   5.399   3.171 -0.0135 -0.0537 -0.0704
15673W        W33197   8.162   4.726  17.372  0.1507  0.1251 -0.1685
15674W        W33198   7.524  14.575  13.389 -0.0238  0.3413  0.0311
15675W        W33199  16.955   1.098  14.997  0.7514  0.1000 -0.1590
15676W        W33200   0.938   7.548   0.677  0.1175 -0.1239  0.0357
15677W        W33201   7.684  15.970  17.467  0.1140  0.1928  0.2472
15678W        W33202   9.626  11.764  13.054 -0.0579 -0.4151 -0.1844
15679W        W33203   0.920   6.059  13.260  0.0738  0.0513 -0.1224
15680W        W33204   3.968   1.168   0.944 -0.1881  0.2631 -0.0836
15681W        W33205   5.962   3.714  17.508 -0.0088  0.0589 -0.3163
15682W        W33206  13.537  14.031  13.234  0.0929  0.0864 -0.0197
15683W        W33207  17.003   6.977   0.600  0.1308  0.1041 -0.2239
15684W        W33208  12.598   2.707  17.592 -0.2008 -0.0068  0.2459
15685W        W33209  16.017   5.233  15.195  0.1360  0.0664  0.0514
15686W        W33210  10.247   4.342   2.476 -0.0494 -0.0732 -0.2191
15687W        W33211   9.883   7.124  14.937 -0.2418  0.2421  0.0387
15688W        W33212  11.019   4.416  14.519  0.3129  0.2138  0.2882
15689W        W33213  16.364   9.794   0.535 -0.2306 -0.1095 -0.0506
15690W        W33214  12.028  10.759   0.614 -0.1883  0.0190 -0.1244
15691W        W33215   5.413   4.378  17.257  0.1604 -0.0462 -0.0095
15692W        W33216   5.215   0.055  16.107  0.0313 -0.0162  0.1581
15693W        W33217   3.391  10.057  13.882  0.2754  0.3191 -0.1275
15694W        W33218   2.300   4.546   5.640  0.1443 -0.2756  0.0914
15695W        W33219  14.287  14.803  14.513  0.1059  0.0016  0.0931
15696W        W33220   4.338   1.100  12.876 -0.0734  0.2645 -0.0957
15697W        W33221   1.976   0.516   2.505 -0.0641 -0.1154 -0.2000
15698W        W33222   1.610   2.621  13.140 -0.0105  0.0373  0.0301
15699W        W33223   7.036  11.720   4.262  0.0899  0.0448 -0.0419
15700W        W33224   1.544  15.280   4.489  0.1635 -0.1376 -0.3260
15701W        W33225   3.798   9.986   3.765  0.1501  0.2128 -0.3286
15702W        W33226   3.992   8.858   4.304 -0.0548 -0.0608 -0.1170
15703W        W33227   1.255  15.120   3.384  0.2784  0.1500 -0.0455
15704W        W33228  10.474  14.834   3.866  0.0616 -0.0002 -0.3296
15705W        W33229  15.184   3.038   3.728  0.2314  0.0014  0.0059
15706W        W33230   8.985   9.607   2.097  0.0904 -0.1459  0.0509
15707W        W33231  11.840   4.840  12.683  0.0481  0.2470  0.1986
15708W        W33232   7.303  15.165   2.342  0.4939 -0.0669 -0.0375
15709W        W33233  15.174  10.060  12.405 -0.0636  0.0433  0.1030
15710W        W33234   4.408   3.781  15.297  0.3552  0.1177 -0.0145
15711W        W33235   2.419   6.202  17.230  0.0783 -0.4225  0.0090
15712W        W33236   5.546  11.624  16.831 -0.0756  0.0262 -0.2664
15713W        W33237   1.145   0.561   5.710 -0.0933  0.0089 -0.4044
15714W        W33238  10.788  12.772   5.149 -0.3328 -0.0914  0.0453
15715W        W33239   8.040  14.893  14.951  0.0570 -0.0378 -0.0232
15716W        W33240   6.829   1.800   5.360 -0.1779  0.2835  0.0186
15717W        W33241   1.152   3.500   4.866  0.2053 -0.0300 -0.2044
15718W        W33242  15.288   8.914   4.015 -0.3997 -0.3301  0.2956
15719W        W33243   5.425   1.817  12.889  0.0579  0.0421  0.2226
15720W        W33244  17.089   0.397   2.042  0.1390  0.0243  0.2528
15721W        W33245   9.009  15.932  15.135  0.2134  0.0222  0.1982
15722W        W33246   9.781  10.399   0.910 -0.2582  0.1355 -0.0357
15723W        W33247   2.556  12.030  12.870 -0.0203 -0.1180 -0.0411
15724W        W33248   3.131   6.645  16.079 -0.3461  0.1417  0.0726
15725W        W33249   9.227   0.453   0.028 -0.1891  0.0177  0.2664
15726W        W33250  12.533  13.687   3.114 -0.0438  0.4368 -0.1312
15727W        W33251   3.888   0.265   5.386  0.0545  0.0375  0.0979
15728W        W33252  10.168   5.179  13.214  0.0423 -0.1838  0.1504
15729W        W33253   1.303   1.045  16.281  0.2719  0.1804 -0.2086
15730W        W33254  14.697   9.856   4.271  0.0248 -0.1430 -0.1555
15731W        W33255   4.480   0.425   5.821 -0.1713  0.2336 -0.2064
15732W        W33256   0.341   7.347   4.420  0.0425 -0.0820 -0.2728
15733W        W33257   8.817   8.496   0.596  0.0105 -0.0613 -0.1981
15734W        W33258  11.736   1.355  13.385 -0.0851 -0.2651  0.2268
15735W        W33259  12.710   1.797  15.595 -0.1826  0.1336 -0.1087
15736W        W33260  10.800   6.823   2.395  0.0458  0.5868 -0.1472
15737W        W33261  12.243  15.520  12.463 -0.3372 -0.1637  0.2489
15738W        W33262  11.162   1.677  16.836  0.1706 -0.0382 -0.3287
15739W        W33263  14.450   2.645  16.256  0.2271  0.0601 -0.0968
15740W        W33264   2.423   2.774   5.021 -0.3185 -0.0900  0.0119
15741W        W33265   6.769  16.169  12.787  0.2256 -0.2403 -0.1435
15742W        W33266   8.029   8.701   1.016 -0.1919 -0.0290 -0.2186
15743W        W33267   3.985  13.488  14.981 -0.0212 -0.1675 -0.0492
15744W        W33268   6.490  13.183  15.029 -0.2770  0.2309  0.1402
15745W        W33269   9.554  12.323   4.534 -0.0008 -0.0607  0.3371
15746W        W33270  14.214   4.807   4.382  0.0229  0.0206 -0.0034
15747W        W33271  10.838  12.252   4.118  0.1517  0.1870  0.0602
15748W        W33272  10.481  16.657  11.882 -0.1013  0.0167  0.2354
15749W        W33273   4.487   2.784   0.309 -0.3505  0.0339 -0.2538
15750W        W33274  15.704  13.634   4.501  0.1658 -0.0896  0.1207
15751W        W33275  14.375  10.195  14.605  0.0671 -0.0743  0.3322
15752W        W33276  15.290   6.485   5.023  0.2411 -0.0963 -0.1213
15753W        W33277   3.218  13.740  14.094  0.0435  0.1243  0.0431
15754W        W33278   6.910   5.335  16.938  0.0703 -0.0086 -0.3189
15755W        W33279  10.394   4.509   4.755  0.0635  0.0599  0.0339
15756W        W33280   7.177   6.993   3.244 -0.2311  0.0720 -0.0749
15757W        W33281   8.144   1.143  16.147  0.2405 -0.1937 -0.0645
15758W        W33282  11.118   9.180   2.481 -0.3841  0.0159 -0.0196
15759W        W33283  15.453  14.925   3.856  0.1255 -0.0108  0.3017
15760W        W33284   3.420   4.321   1.486  0.0079 -0.0093  0.0362
15761W        W33285   8.012   5.969   5.506 -0.1468 -0.2260  0.0245
15762W        W33286   9.202   3.717  15.732  0.2584 -0.1678 -0.1616
15763W        W33287  11.296  16.415   0.812  0.1800  0.1464  0.1151
15764W        W33288   6.629  16.230   2.296 -0.0728 -0.0155  0.0246
15765W        W33289  14.208  16.609   1.325  0.1663  0.1121  0.2217
15766W        W33290   6.467  15.117   1.584  0.2113  0.1254 -0.1791
15767W        W33291   0.575   6.101  14.642  0.3889  0.2032  0.2199
15768W        W33292  13.573   1.708   5.718  0.1174  0.3396 -0.1539
15769W        W33293  10.141   6.246   4.845  0.0911 -0.0956 -0.2080
15770W        W33294   9.348   3.433  13.861 -0.1910 -0.0817  0.0531
15771W        W33295   5.647  16.071   5.432 -0.1226 -0.1976  0.2108
15772W        W33296   6.867   4.801   4.148  0.1398  0.2250  0.0816
15773W        W33297   6.852  15.607   2.795 -0.1976 -0.0423 -0.1144
15774W        W33298   3.533  14.529  14.448 -0.3500  0.3023  0.0105
15775W        W33299   6.011   1.206   5.169  0.0881 -0.4130  0.0553
15776W        W33300   1.873  13.256   0.134 -0.2589 -0.1056  0.2675
15777W        W33301   6.075  10.981   3.921  0.0111 -0.0708 -0.2368
15778W        W33302   2.686   0.953  17.684 -0.0081  0.1713  0.1110
15779W        W33303   9.192  13.137   4.725 -0.0814  0.2633 -0.0968
15780W        W33304   9.814   3.791  15.001  0.1302  0.3209  0.1700
15781W        W33305   5.649  14.218  15.631 -0.0951 -0.1563 -0.1292
15782W        W33306  10.841   5.759   1.192 -0.1097  0.1096  0.0016
15783W        W33307   3.684   6.940  14.145  0.2421  0.0866  0.1307
15784W        W33308  10.860   1.461  13.519  0.3936 -0.0000 -0.1245
15785W        W33309  13.820   9.101  14.897 -0.1146 -0.1843  0.1235
15786W        W33310  16.101   8.645  15.585 -0.0133 -0.0425  0.3348
15787W        W33311   3.034  10.899   2.276 -0.2899 -0.1429  0.0227
15788W        W33312   0.149   0.759   2.963 -0.0358  0.1863 -0.2211
15789W        W33313   4.522   9.330  16.551 -0.0827  0.0897 -0.0285
15790W        W33314   8.048   6.884   4.898 -0.0236  0.2428  0.1377
15791W        W33315   3.253   1.956   0.766  0.2481  0.0261 -0.0456
15792W        W33316   8.688   3.078   3.606  0.0105 -0.3315 -0.0566
15793W        W33317  17.054   6.462  15.450  0.2049  0.2398  0.1500
15794W        W33318   6.071  11.500  15.341  0.1855 -0.1526  0.0245
15795W        W33319  10.907   5.320  13.720 -0.0266 -0.3186 -0.0226
15796W        W33320   7.253   4.965   1.026  0.0929 -0.0530 -0.0168
15797W        W33321   8.373   0.571   3.592 -0.1270 -0.0787 -0.0089
15798W        W33322   0.552  16.466   0.191 -0.0310  0.0715 -0.3013
15799W        W33323   1.816  15.469  14.777  0.0208 -0.0531  0.3345
15800W        W33324   9.828   8.677  17.322 -0.2641 -0.2427 -0.0028
15801W        W33325   8.812  11.588   2.022 -0.0667 -0.0468  0.0851
15802W        W33326   6.826   2.678   2.975 -0.1663  0.0961 -0.2490
15803W        W33327  15.533   0.603   4.566  0.0949 -0.1346 -0.2354
15804W        W33328   7.242  14.455  14.771 -0.2266  0.1411 -0.0051
15805W        W33329   4.685  10.487  16.740  0.1155 -0.0548 -0.3748
15806W        W33330  14.432  16.923  13.049  0.1580 -0.0696  0.1093
15807W        W33331   7.292   8.043  12.868 -0.0406  0.2181  0.0808
15808W        W33332   4.353  14.022  17.730 -0.2977  0.0847  0.0904
15809W        W33333   9.844   3.619  13.625  0.1333 -0.0970  0.2954
15810W        W33334  12.509  16.900  14.924 -0.0019  0.2055  0.0553
15811W        W33335  14.748  13.017   1.539  0.0737  0.2823 -0.1671
15812W        W33336  15.657  15.822  17.165 -0.1342 -0.1871 -0.2630
15813W        W33337   3.273  11.660  15.287 -0.1995  0.0347 -0.1544
15814W        W33338  11.924  12.654   5.265 -0.2368 -0.4019 -0.0956
15815W        W33339  14.602  13.732  16.261  0.4986  0.1286  0.0611
15816W        W33340   1.480   8.402   1.488  0.0127  0.2011  0.1672
15817W        W33341   0.495   4.449  16.547  0.0793 -0.0964 -0.0710
15818W        W33342   3.215  16.663  13.974  0.0910 -0.1378 -0.2049
15819W        W33343   3.338  14.764   4.178  0.1430 -0.1038 -0.2091
15820W        W33344   2.114   1.833   0.053 -0.0633 -0.0220 -0.1052
15821W        W33345  10.580  16.862  11.452  0.0328 -0.1563  0.0308
15822W        W33346   2.024   4.297   1.712  0.2437 -0.0493  0.0225
15823W        W33347  16.442   3.345  12.843  0.3318 -0.1842  0.1705
15824W        W33348   1.979  14.524   5.419 -0.4176  0.3077 -0.2534
15825W        W33349   7.256  13.691  14.515 -0.1151 -0.0271  0.2736
15826W        W33350  11.641  12.037  15.158  0.0494  0.0823  0.1475
15827W        W33351   4.911   0.765   2.110 -0.1879 -0.3193  0.1621
15828W        W33352  11.942   6.181   0.503 -0.1760 -0.0886  0.1033
15829W        W33353  11.821  14.842   5.339 -0.1099  0.0423  0.0095
15830W        W33354  11.701   3.513  16.326  0.1881  0.1463 -0.1499
15831W        W33355  13.703  11.198  14.031  0.0291  0.2252  0.0300
15832W        W33356   7.591  16.855  17.124 -0.3595  0.1850 -0.0818
15833W        W33357   6.896   4.419   0.276 -0.0561 -0.1206 -0.0890
15834W        W33358   7.321   3.039  15.791  0.1444  0.1509 -0.1209
15835W        W33359   2.970  14.595  17.063  0.0529 -0.0309 -0.2224
15836W        W33360  13.674  13.388  15.449 -0.0611  0.1481  0.0406
15837W        W33361  14.053   8.741  15.693 -0.2913  0.0221  0.2458
15838W        W33362  15.883   1.923   1.940  0.0405 -0.4004 -0.1262
15839W        W33363   2.708  10.183   4.971  0.0346 -0.0110 -0.3831
15840W        W33364   4.664  16.548  14.152  0.0198 -0.0418 -0.0740
15841W        W33365   2.136   9.283   5.186 -0.3695 -0.1759  0.1839
15842W        W33366  12.359   9.632   1.331 -0.1243  0.1989 -0.1945
15843W        W33367  15.390   5.982   3.047 -0.3710  0.2270  0.2101
15844W        W33368  12.618   8.756   1.270 -0.1049  0.3105  0.0003
15845W        W33369  11.917   2.834   4.305  0.2394  0.0136  0.0210
15846W        W33370   0.583   2.120   4.647  0.0885  0.1716 -0.0401
15847W        W33371  12.043  13.746  16.172  0.2161  0.0133 -0.2344
15848W        W33372   9.124   7.415   3.003 -0.0246 -0.2010  0.0385
15849W        W33373   2.046   6.284   4.593 -0.2931  0.0929 -0.0904
15850W        W33374   3.770   5.111   2.424 -0.3190  0.0507 -0.0584
15851W        W33375   0.160  16.040  15.663  0.0239  0.1160  0.0801
15852W        W33376   1.960  13.432  14.786 -0.0958  0.1183  0.3718
15853W        W33377   2.856   5.545   5.436 -0.0620 -0.0019 -0.1943
15854W        W33378  12.153   6.410  16.135 -0.0861  0.0808  0.1351
15855W        W33379   2.044  12.535   4.410 -0.0823  0.2835  0.0839
15856W        W33380   2.886   5.494  17.415 -0.1212  0.2636 -0.1245
15857W        W33381   5.862   7.707   1.530 -0.1744  0.1486  0.1134
15858W        W33382   5.086   5.771  17.387  0.1390 -0.1136 -0.0562
15859W        W33383   0.018   6.943   2.752 -0.3489  0.1743 -0.1402
15860W        W33384   1.943   5.195   2.625 -0.1336  0.1271  0.0095
15861W        W33385   2.369   6.672  14.963  0.1248  0.0240 -0.1504
15862W        W33386   6.864  13.427   1.168 -0.0434  0.0403 -0.0968
15863W        W33387   3.736   2.024   0.733  0.2580  0.0048  0.1018
15864W        W33388  14.133  13.845  17.040 -0.0116  0.0787  0.0626
15865W        W33389   3.467   0.725   3.420  0.2449  0.3535 -0.0097
15866W        W33390  14.087   6.519   1.084  0.1087 -0.4037  0.0394
15867W        W33391  15.279  10.447  14.686 -0.0522 -0.1866  0.2776
15868W        W33392  16.544  16.159  14.374  0.0419 -0.3470 -0.3468
15869W        W33393  11.502   6.595   3.682 -0.0291 -0.0582 -0.1283
15870W        W33394   6.246  10.513   5.102 -0.2595  0.1792 -0.2374
15871W        W33395   2.660   4.401  15.923 -0.1339  0.0716 -0.3015
15872W        W33396   8.342   0.083  12.563 -0.0899 -0.1738 -0.1034
15873W        W33397  15.853   4.237  16.017 -0.2783  0.0711 -0.0824
15874W        W33398  12.224  10.049  15.366  0.0988 -0.0294 -0.0678
15875W        W33399  13.188   1.224   1.295 -0.1383  0.2234 -0.0859
15876W        W33400   3.698   8.958  17.352 -0.3340 -0.0479  0.1119
15877W        W33401  11.741  15.374  13.902 -0.1675 -0.0477 -0.1434
15878W        W33402  11.236  12.207   2.504 -0.0429 -0.1785  0.0424
15879W        W33403   7.142   9.005  11.316  0.0052 -0.2972  0.2589
15880W        W33404  13.260   0.135  17.283  0.0219  0.0414 -0.0273
15881W        W33405  12.940   8.452   3.829 -0.2028 -0.1727 -0.2456
15882W        W33406  12.488   1.925   0.178 -0.0487 -0.0664 -0.1149
15883W        W33407  11.821  10.331  15.753 -0.0801  0.1124  0.0669
15884W        W33408   8.326   4.867   1.074  0.0429 -0.2311  0.0222
15885W        W33409  14.655   0.282  15.014  0.0374  0.0259  0.1190
15886W        W33410  15.700  16.587  16.327  0.2206 -0.2141 -0.1595
15887W        W33411   8.521   3.222   1.088 -0.1311  0.0688 -0.1025
15888W        W33412   9.330  14.567  15.530  0.0177  0.0643  0.2712
15889W        W33413   5.455   6.784  17.056 -0.2059 -0.1880  0.0560
15890W        W33414  14.415  10.769   4.564 -0.2233 -0.0316  0.1949
15891W        W33415   0.434   4.661  14.547  0.1233 -0.1390  0.2863
15892W        W33416  12.994  16.754  12.856 -0.1459 -0.0597  0.0374
15893W        W33417  17.051   9.526   0.633 -0.0654 -0.2585 -0.0032
15894W        W33418   7.388   8.415  17.281 -0.2294 -0.4684 -0.1805
15895W        W33419   1.934  13.548   3.604  0.0887  0.1588 -0.0949
15896W        W33420   2.047   8.186  14.187 -0.0858 -0.4564  0.0482
15897W        W33421  11.782   3.025  17.094 -0.0851 -0.1181  0.0757
15898W        W33422  12.532   8.073  12.519 -0.2554 -0.2141  0.1823
15899W        W33423   7.845  12.604  17.550 -0.1108  0.1950  0.2590
15900W        W33424   9.015   6.964  15.114 -0.0816  0.1053  0.1665
15901W        W33425   9.755   8.223   4.556  0.2816  0.2361 -0.5776
15902W        W33426  15.471   1.445  12.657  0.2517  0.1185  0.2921
15903W        W33427   5.437  15.681  13.599 -0.2092  0.2475  0.1699
15904W        W33428  10.787   2.973  14.091  0.0780 -0.0531 -0.1421
15905W        W33429  11.604   3.641   4.978  0.2033  0.0645  0.1035
15906W        W33430   1.034   4.457   2.805 -0.1049  0.3085 -0.1689
15907W        W33431  15.101   6.004  13.157  0.0378  0.1139  0.2854
15908W        W33432  11.531   3.368  13.045  0.0611 -0.1762  0.0887
15909W        W33433   1.335  16.219   2.579  0.4371  0.2201 -0.1864
15910W        W33434  14.452   5.896   4.162 -0.3089 -0.0462  0.0225
15911W        W33435  11.968   7.824  15.289  0.1373  0.1029 -0.3219
15912W        W33436   1.283   0.388   3.146 -0.2848  0.0613  0.2263
15913W        W33437   5.115   3.104  13.814  0.1040 -0.0936 -0.0495
15914W        W33438   7.342  11.619  12.471 -0.1673  0.2321  0.1538
15915W        W33439   4.983   7.196   1.380  0.0301 -0.3053  0.0152
15916W        W33440   9.832   5.631  14.558 -0.2435  0.2482 -0.1451
15917W        W33441   8.797  14.262  13.045  0.0713 -0.0051 -0.0968
15918W        W33442  14.684   5.240   0.161 -0.0062  0.2397 -0.0256
15919W        W33443   7.250   9.882  12.634  0.2001  0.0819  0.1029
15920W        W33444   4.091   3.224  14.687  0.1130 -0.0518 -0.1462
15921W        W33445   3.445   6.099   3.082  0.2493 -0.4015  0.1221
15922W        W33446   3.407   6.602  14.375  0.1296  0.1064  0.0376
15923W        W33447  12.443   9.122  11.834 -0.0971  0.0231  0.2027
15924W        W33448   1.986   1.892   3.114 -0.1122  0.2486  0.1897
15925W        W33449   6.632  11.873  13.667  0.1150 -0.1479 -0.0921
15926W        W33450  10.857   1.548  17.191 -0.0944 -0.0188  0.2404
15927W        W33451  12.589   5.540   5.918 -0.0163  0.2954 -0.0557
15928W        W33452   9.592   6.557  16.120  0.0874 -0.0714 -0.0251
15929W        W33453   6.281   2.872   3.806  0.2631  0.2206 -0.1354
15930W        W33454  14.023   6.995  14.829 -0.0330 -0.1019 -0.3243
15931W        W33455  10.570   6.628  17.060 -0.0679 -0.1469  0.0904
15932W        W33456   1.066   1.620   0.698 -0.1129  0.0898  0.1576
15933W        W33457   9.293  12.868  17.056 -0.0715  0.0621 -0.2204
15934W        W33458   3.265   4.936  16.303 -0.2066 -0.2332  0.1375
15935W        W33459   1.237  14.776   2.672  0.1547 -0.0123 -0.2389
15936W        W33460   7.492  15.034   4.600 -0.1923  0.2906 -0.2042
15937W        W33461   3.889  13.097   4.133  0.0441  0.0172  0.0829
15938W        W33462   0.465   0.394  16.048  0.1336  0.3629 -0.0216
15939W        W33463   0.697   1.553   5.765 -0.1104 -0.3079  0.0192
15940W        W33464  12.116   7.091  17.360  0.1915 -0.0555 -0.0503
15941W        W33465   5.886  12.278  17.374 -0.1429  0.0156 -0.0169
15942W        W33466   4.214   5.034   4.998  0.2065 -0.0113 -0.1403
15943W        W33467   9.198   5.887  14.094  0.0387  0.2533 -0.1431
15944W        W33468  13.605   9.890  12.370 -0.1446 -0.1728 -0.1417
15945W        W33469   5.405   9.236  16.034 -0.1998 -0.2177  0.2593
15946W        W33470   6.562  15.121   3.578 -0.0274 -0.0679 -0.1269
15947W        W33471   9.080   3.123   1.938 -0.2120 -0.1476  0.2995
15948W        W33472  10.360   6.193  16.923 -0.1196 -0.0284  0.4185
15949W        W33473   0.357  11.911  15.009 -0.4893  0.1055  0.3652
15950W        W33474   0.040   5.156   0.079  0.2411  0.0046 -0.3806
15951W        W33475  10.537   8.507   1.352 -0.1465  0.0204 -0.1833
15952W        W33476  13.852   7.801  17.555 -0.1488 -0.2149  0.2908
15953W        W33477  16.468   8.525  17.333 -0.1836  0.2494 -0.1783
15954W        W33478  16.345   6.186   0.689 -0.1868  0.0909  0.2466
15955W        W33479   5.274  12.526  13.445  0.3091 -0.0387  0.1101
15956W        W33480   8.580  11.212  14.336 -0.0160  0.1036  0.0870
15957W        W33481  15.535   4.251   4.652 -0.2547  0.0006 -0.0787
15958W        W33482   9.751   7.243  14.035  0.3159  0.0020  0.0473
15959W        W33483   3.960   5.704  12.311  0.1554  0.0291  0.1207
15960W        W33484  17.100   3.180   0.284 -0.1086 -0.0368  0.3283
15961W        W33485   3.624  13.488   3.153 -0.2777 -0.0899 -0.1919
15962W        W33486  15.201   2.930  16.804 -0.0009 -0.0439  0.2231
15963W        W33487  16.302  10.700  14.017  0.1709 -0.0198  0.3844
15964W        W33488  10.692  15.224  16.063 -0.0112 -0.0653  0.1397
15965W        W33489   7.772   8.942   5.262 -0.0135  0.0998 -0.0369
15966W        W33490  16.009   7.123  13.139 -0.1814  0.1944 -0.1021
15967W        W33491  12.548   6.221  12.543 -0.1247 -0.0791  0.2209
15968W        W33492  15.426   1.685   6.095 -0.0960  0.4845 -0.0231
15969W        W33493   9.895   4.573   1.066  0.2097  0.1561 -0.0250
15970W        W33494  14.920   1.352  13.817  0.1291  0.0238  0.0701
15971W        W33495  14.272  13.563   0.124 -0.0169  0.1171  0.3664
15972W        W33496   0.180  16.358  16.043  0.2476 -0.1950  0.1093
15973W        W33497  10.381  15.358  15.373  0.3373 -0.2555 -0.1301
15974W        W33498  16.851  11.171  15.018 -0.3104 -0.0591 -0.1870
15975W        W33499  10.379   0.575   3.955 -0.0835 -0.2571  0.3517
15976W        W33500   6.781   2.081  17.562  0.0125  0.0757  0.1611
15977W        W33501   9.808  12.230  13.971  0.0873 -0.1220  0.2343
15978W        W33502  10.507  10.033  12.324  0.3466 -0.0859 -0.1275
15979W        W33503   1.155   1.065   2.680  0.2865  0.0939 -0.2376
15980W        W33504   1.177   1.507   5.512 -0.1476 -0.1278  0.1468
15981W        W33505   6.673  12.311  12.137 -0.3648 -0.1330  0.0414
15982W        W33506   9.584  15.635  14.767  0.1478  0.1435 -0.0974
15983W        W33507  10.544  15.712  12.210  0.0682 -0.0486 -0.1343
15984W        W33508   1.948  11.521   3.630  0.2414  0.1139 -0.1258
15985W        W33509   8.270   1.117  15.362 -0.4434 -0.2268  0.1821
15986W        W33510   0.982   9.855   3.907 -0.0900  0.0865 -0.1442
15987W        W33511  14.814   2.624  16.637  0.1028 -0.0829 -0.2313
15988W        W33512   3.306   9.266  12.512  0.3156 -0.2200 -0.0211
15989W        W33513  11.933  12.941  12.416  0.3953 -0.3158 -0.1326
15990W        W33514  10.968   8.478  17.626 -0.1820  0.0474 -0.1185
15991W        W33515   5.349   8.430  15.206  0.1052 -0.0775 -0.1477
15992W        W33516   0.087   5.965   2.672  0.0666 -0.0504  0.0544
15993W        W33517   8.303  15.459   1.872 -0.0230  0.2044  0.1920
15994W        W33518  14.550   2.150   3.717 -0.2679 -0.0234 -0.1260
15995W        W33519   6.451   0.798  12.178 -0.0611  0.1898  0.0561
15996W        W33520   4.099   6.909   0.978 -0.1127 -0.0951 -0.0443
15997W        W33521  11.395  11.708   2.560  0.1911  0.0099  0.1385
15998W        W33522   3.862   2.795  15.838 -0.1719  0.0248 -0.0246
15999W        W33523  10.559   6.074   0.246 -0.2996 -0.0253  0.1359
16000W        W33524   4.542   4.866   2.175  0.0236 -0.0996 -0.0572
16001W        W33525   4.494   3.406  14.391 -0.1086  0.3157 -0.1053
16002W        W33526   0.965   0.527   4.751  0.0451  0.0237  0.0764
16003W        W33527   5.380  11.134   6.184  0.0177  0.0401 -0.0761
16004W        W33528   0.113  14.563   0.831 -0.0162 -0.3148 -0.3682
16005W        W33529   9.967   0.050   1.663  0.2133 -0.0379 -0.1381
16006W        W33530   8.205  15.453   0.376  0.1213 -0.2489  0.2133
16007W        W33531   6.316  13.800  17.652  0.2219  0.1220 -0.0146
16008W        W33532   4.706   2.245   4.478  0.3324  0.0033  0.1506
16009W        W33533  12.723  10.047   2.170 -0.1400 -0.0802 -0.2061
16010W        W33534   8.402  14.106   3.998 -0.2797  0.2180 -0.2733
16011W        W33535  10.871   2.539   0.542  0.3227  0.1497 -0.0905
16012W        W33536   7.970  14.899  16.280 -0.0351  0.1321  0.0892
16013W        W33537   3.087   1.597   4.404  0.1832 -0.1479 -0.2796
16014W        W33538  14.341   3.505   1.127  0.3638  0.1029  0.1536
16015W        W33539   5.254  10.653  12.739  0.1451  0.3988 -0.0438
16016W        W33540  11.290  11.903   5.035  0.2958  0.0343  0.0116
16017W        W33541   7.469  11.662  14.444 -0.2234 -0.1247  0.1458
16018W        W33542  12.947   7.684   3.361  0.0898 -0.1299 -0.1799
16019W        W33543   3.973   3.767   2.287 -0.1296 -0.0323 -0.3200
16020W        W33544  14.224  13.296  14.607  0.0792 -0.0302 -0.2954
16021W        W33545  15.878   8.411  15.215 -0.1029  0.1224  0.0709
16022W        W33546  13.521   1.178  15.415 -0.0006 -0.1817  0.1264
16023W        W33547  13.715   9.348  15.948 -0.1434 -0.0178 -0.3031
16024W        W33548   5.035   4.816   0.835 -0.1178 -0.3873 -0.0620
16025W        W33549   4.948   6.243  13.835  0.0704  0.0101 -0.0376
16026W        W33550   3.139   6.782   3.990 -0.1396 -0.0428  0.2451
16027W        W33551   2.481  10.726   4.403 -0.0977  0.2164  0.3301
16028W        W33552   1.286   2.517  14.850  0.0198  0.0054 -0.2583
16029W        W33553  17.038   4.682  16.075  0.2804 -0.2355  0.1107
16030W        W33554   2.841   3.568   4.169 -0.0394  0.0913  0.0579
16031W        W33555  14.794   7.542   4.883  0.0387 -0.1486 -0.3703
16032W        W33556  15.366   3.889   4.288 -0.2455  0.0689  0.0052
16033W        W33557   4.974   6.612   0.576 -0.0382  0.1120 -0.1243
16034W        W33558   4.333  10.968  13.329 -0.0098 -0.2120  0.1551
16035W        W33559  13.623  14.723   3.262 -0.0229  0.3137 -0.0476
16036W        W33560  15.414   3.201   0.688 -0.0226 -0.0728 -0.1247
16037W        W33561   2.235   3.891   2.794  0.1418 -0.0222  0.2267
16038W        W33562  15.071   8.490  17.305  0.1796  0.0442  0.1591
16039W        W33563  14.446  11.229  16.500 -0.2453 -0.1440 -0.1590
16040W        W33564  16.069   8.072   0.188  0.2637 -0.2697  0.0012
16041W        W33565   2.914  10.109  12.402  0.3664  0.0959 -0.0060
16042W        W33566   6.504   9.055  15.221  0.2953  0.1425  0.1737
16043W        W33567  12.424  16.138  12.891  0.1723 -0.1396  0.0930
16044W        W33568  11.052   3.913  14.212  0.1261  0.0284 -0.0399
16045W        W33569  13.955   5.690   0.426  0.1944 -0.0614 -0.2098
16046W        W33570   9.144   1.376  14.358 -0.1041  0.0119  0.0322
16047W        W33571   8.401   2.234   1.897  0.0490 -0.0767 -0.1039
16048W        W33572   3.651   8.375  12.830 -0.1876  0.0207  0.0335
16049W        W33573   9.216   6.815   4.208 -0.1430  0.0734 -0.1757
16050W        W33574   3.141  13.604  12.561 -0.1881 -0.4116 -0.1448
16051W        W33575   4.299   7.012   4.803  0.0333  0.0335  0.0729
16052W        W33576   9.792   0.236  15.341 -0.1099  0.2411 -0.2610
16053W        W33577  14.008  10.718   1.831  0.0889  0.2534 -0.0396
16054W        W33578  13.791   2.854  12.722  0.3159 -0.0000  0.0215
16055W        W33579   4.682   0.272   3.895  0.0022  0.0319 -0.1904
16056W        W33580   5.782  16.726   1.768  0.0861 -0.1537  0.0815
16057W        W33581  10.322   2.518  17.036 -0.0095  0.0366  0.1735
16058W        W33582   6.777  12.490  17.149  0.0920 -0.2886 -0.0567
16059W        W33583   5.983  15.822  12.331  0.0307 -0.0185 -0.2652
16060W        W33584   2.620   1.030   1.568 -0.0638  0.2451  0.0593
16061W        W33585  10.596   5.608   3.623  0.3408  0.0197 -0.0638
16062W        W33586   5.639   9.188  13.540  0.0033 -0.0815  0.2114
16063W        W33587  14.384  16.080  14.757  0.2956 -0.0640  0.0332
16064W        W33588  16.297  12.088   6.358  0.1935 -0.0693  0.0923
16065W        W33589   3.625   1.578  11.363  0.2837 -0.1128 -0.0900
16066W        W33590   0.341   5.664  15.495 -0.0489 -0.1367  0.1181
16067W        W33591  14.507  13.369   4.949 -0.0011  0.2829  0.0289
16068W        W33592   3.469  10.510  14.219 -0.0421 -0.0040 -0.0372
16069W        W33593  14.139   3.515  17.274  0.3937 -0.1049 -0.0810
16070W        W33594   0.984  13.374  13.894 -0.1656 -0.0862  0.0511
16071W        W33595  11.071  12.105   4.585  0.2649 -0.0254  0.1443
16072W        W33596  10.677   1.689  16.763  0.0055  0.2485 -0.0067
16073W        W33597   5.365   2.891  17.456  0.0762  0.1447 -0.0146
16074W        W33598   8.314  10.936  16.770  0.1698 -0.3098  0.3581
16075W        W33599   7.082   2.425  12.822  0.2472 -0.2041 -0.2312
16076W        W33600  10.681  16.462  14.396 -0.0671  0.0425 -0.3177
16077W        W33601  16.406   7.398  17.361 -0.1499 -0.0849 -0.1877
16078W        W33602   7.860  14.771  12.536  0.0726  0.1554  0.0629
16079W        W33603   3.257  10.223  13.235  0.1053  0.4197  0.0558
16080W        W33604   9.304   1.960  12.524  0.2996 -0.2382 -0.2548
16081W        W33605  14.370   2.250   2.627 -0.0124  0.0828 -0.0066
16082W        W33606  10.481  12.224   4.559  0.0227  0.0750  0.2977
16083W        W33607   2.137  10.685   3.166  0.2252  0.0110 -0.1003
16084W        W33608   3.230  16.181   2.746  0.0265 -0.0627  0.0099
16085W        W33609   8.559   7.760   4.567  0.1623  0.0544  0.0734
16086W        W33610  11.534  16.226  12.459 -0.4585  0.1129  0.0272
16087W        W33611   2.967   9.402   5.509  0.2676  0.2028  0.0182
16088W        W33612  14.845   7.030   4.102  0.0363 -0.0134 -0.2070
16089W        W33613   7.142  16.686  17.210 -0.0320 -0.0096  0.1867
16090W        W33614   8.893   6.968   0.661 -0.2629 -0.0367 -0.2688
16091W        W33615   4.755  12.154  12.813 -0.0848 -0.4007 -0.0824
16092W        W33616  10.698  12.405  13.282 -0.0143  0.1714 -0.0779
16093W        W33617  13.623  15.809   4.749  0.2631  0.0257  0.0105
16094W        W33618   3.235  11.707   3.856  0.1251 -0.1039  0.1725
16095W        W33619  16.148   5.812   1.158 -0.2046  0.1401  0.0217
16096W        W33620   5.838  14.521  16.074 -0.1063 -0.1981 -0.1272
16097W        W33621   8.860   4.052  12.305  0.1476  0.2134  0.2621
16098W        W33622   8.937  14.735  14.112  0.0387  0.1502  0.1904
16099W        W33623  15.822   8.276  16.265  0.0541  0.3096  0.1360
16100W        W33624   5.761  12.439  14.737  0.1097 -0.1042  0.0534
16101W        W33625  10.910  12.858  14.165 -0.0797 -0.0360  0.4409
16102W        W33626   2.166   3.467  14.107  0.2008  0.0711 -0.1339
16103W        W33627   4.335   9.918   3.489  0.0589  0.1549  0.0419
16104W        W33628   9.348   7.149   3.339 -0.0208 -0.0919 -0.1144
16105W        W33629   0.442   4.401   0.947 -0.3094  0.1279 -0.1098
16106W        W33630   6.046  15.181   0.411 -0.2732  0.2559 -0.1178
16107W        W33631   4.076   2.776  14.949 -0.3634 -0.3136 -0.1141
16108W        W33632  15.197  11.292   4.371  0.0621  0.2754  0.1740
16109W        W33633  14.857   9.862   2.073 -0.2258  0.3461  0.0090
16110W        W33634  13.352  14.411  12.061  0.0050  0.1313 -0.2105
16111W        W33635   2.176   6.079   3.793 -0.1497  0.2255 -0.1355
16112W        W33636  13.913   8.024  15.265  0.1722 -0.3892  0.0668
16113W        W33637   8.783  15.950  16.356  0.1148  0.1422  0.1220
16114W        W33638   1.740  12.428   3.999  0.0448 -0.0698 -0.4436
16115W        W33639   0.102   8.634  15.098  0.1607 -0.0797  0.0571
16116W        W33640   9.985  14.571  17.054  0.1362  0.3566 -0.0807
16117W        W33641   4.100   0.082  13.766  0.0493  0.2161  0.5044
16118W        W33642   3.748   4.610   3.296 -0.1622  0.1476 -0.1299
16119W        W33643  15.546   4.487   5.250 -0.0763  0.1746  0.0964
16120W        W33644   4.971  12.075   5.151 -0.2977 -0.1404 -0.0802
16121W        W33645  16.275   0.618   0.015 -0.1962  0.0022  0.2953
16122W        W33646   2.648   3.386  13.374 -0.0831  0.1262 -0.0502
16123W        W33647   9.066  12.550  16.188  0.0631  0.1457  0.0342
16124W        W33648  16.918  16.197  14.080 -0.2564  0.1249  0.3475
16125W        W33649   1.701  15.974  11.391  0.0293 -0.2144  0.0061
16126W        W33650  12.572   9.169   4.220 -0.1428  0.2482 -0.1860
16127W        W33651   0.647   4.916   5.575  0.1900 -0.1960  0.0236
16128W        W33652  13.393  16.049   2.356  0.0231 -0.3047 -0.3348
16129W        W33653  11.152   4.636   2.534  0.1475  0.1102  0.1064
16130W        W33654   4.001   7.788   3.048  0.3126 -0.0134 -0.1940
16131W        W33655  12.716   3.443  17.292 -0.0556  0.0914  0.2665
16132W        W33656  16.568  12.372  15.116  0.2155 -0.0990  0.0505
16133W        W33657  11.429   9.522  12.820 -0.0158  0.1117  0.1020
16134W        W33658   0.644  16.560  16.079 -0.2232  0.2467 -0.4509
16135W        W33659  14.883  10.921   4.334  0.2175  0.0299 -0.0489
16136W        W33660  10.870   1.447  12.804  0.2665 -0.2579 -0.2071
16137W        W33661   6.998  10.675   1.029 -0.2085  0.2433  0.0103
16138W        W33662   0.236   7.851   3.140 -0.0348  0.2647  0.0848
16139W        W33663   5.064   7.814   1.678  0.0185 -0.0798  0.1752
16140W        W33664  13.239   0.309   1.973  0.0962  0.0429 -0.2857
16141W        W33665   2.026  12.894  17.322  0.0278 -0.1585 -0.1178
16142W        W33666  14.385   7.720  16.519  0.3036 -0.0612  0.1932
16143W        W33667  16.553   8.499   3.998  0.0020  0.2040 -0.0238
16144W        W33668  15.315  16.876  17.176 -0.0811 -0.2086  0.2008
16145W        W33669   9.089   4.540  14.126  0.0558  0.0069 -0.2476
16146W        W33670  10.051  13.700   5.006  0.0439 -0.0946  0.1612
16147W        W33671  11.651   7.360   4.461  0.1692  0.1680  0.1344
16148W        W33672   3.876  16.475  16.941  0.4156  0.2794  0.1558
16149W        W33673   8.960   1.467  15.759  0.3188 -0.0405 -0.0341
16150W        W33674   5.354  17.073  14.484  0.0002 -0.0411 -0.1532
16151W        W33675   8.874  16.163  13.822 -0.1245  0.0254  0.1098
16152W        W33676  11.679   1.694  13.808 -0.1468  0.1832  0.0788
16153W        W33677   7.465   6.788   0.008  0.0093  0.3571  0.0417
16154W        W33678   1.412  13.040   0.252  0.0956 -0.1103  0.0140
16155W        W33679  16.871  14.218  13.403  0.3750  0.0331 -0.1919
16156W        W33680  10.179  10.544   4.244  0.0076  0.3262  0.2201
16157W        W33681   6.787  12.084  16.870 -0.0005  0.1351 -0.2541
16158W        W33682  16.836   3.555  17.186 -0.0669 -0.6470 -0.0282
16159W        W33683   4.461  13.095   5.890 -0.0278  0.3015 -0.1348
16160W        W33684  13.933  16.316   0.489 -0.0015  0.0616 -0.3126
16161W        W33685   5.121   7.645  15.732 -0.2652 -0.2604  0.1342
16162W        W33686   0.349   4.163  12.738 -0.0184  0.1438  0.1041
16163W        W33687   8.806   6.910  15.599 -0.1030  0.1656 -0.2966
16164W        W33688  10.990  15.286  16.410  0.1210  0.3002  0.1987
16165W        W33689  13.162   9.048  16.378  0.1468  0.2551  0.0084
16166W        W33690   7.801  15.744  14.561  0.0159  0.2625 -0.2390
16167W        W33691  13.552   9.955   2.551  0.0634  0.3965 -0.0153
16168W        W33692   7.087  14.071  14.174  0.0202  0.2273 -0.0670
16169W        W33693   5.316   9.162  16.513  0.0103 -0.2743 -0.1197
16170W        W33694   1.645   3.124  12.657  0.1833 -0.1420 -0.0651
16171W        W33695   7.992   3.497  13.012 -0.0647 -0.0767 -0.0824
16172W        W33696  11.741   4.099   5.121 -0.0562  0.0302 -0.0571
16173W        W33697   3.193  15.924   3.199 -0.0318  0.2271  0.2342
16174W        W33698   3.947   7.584   5.154  0.1935 -0.1173  0.1783
16175W        W33699  13.903   6.475   2.154  0.0281  0.2005  0.2750
16176W        W33700   5.042   6.013   4.728 -0.1221  0.0208 -0.0284
16177W        W33701   0.232  15.654  15.286  0.1926 -0.0859 -0.1266
16178W        W33702  11.392   0.484   1.476 -0.2313  0.0208  0.3561
16179W        W33703  14.089   1.194   4.905  0.0271  0.1783 -0.2529
16180W        W33704  13.435   9.195   3.130 -0.1182 -0.0380  0.0694
16181W        W33705   4.143  16.344   0.549  0.0920 -0.1293 -0.0764
16182W        W33706   1.630   2.880   4.142 -0.0671  0.0475 -0.1009
16183W        W33707   5.120   6.787  13.755 -0.0792 -0.0417  0.0070
16184W        W33708  11.739  11.361   0.544  0.2580 -0.0382 -0.2745
16185W        W33709  15.862   3.050  14.841  0.2744  0.2803  0.1028
16186W        W33710   4.912   8.611  12.407  0.1454  0.1421 -0.0166
16187W        W33711  12.967   5.676   0.456 -0.3207  0.0689 -0.2575
16188W        W33712   4.635  12.611  17.402  0.1284  0.0073 -0.1912
16189W        W33713   1.291   6.185  12.951 -0.1889 -0.0088  0.0533
16190W        W33714  14.563  10.962  13.977 -0.0135  0.2360  0.0615
16191W        W33715   1.288  14.760   3.817 -0.1865 -0.1394 -0.1891
16192W        W33716   4.442  12.218  12.291  0.0263  0.1123 -0.0201
16193W        W33717  14.107  12.314  12.909  0.0310 -0.0004  0.1586
16194W        W33718  16.600  16.973  16.167  0.1936  0.0306  0.1212
16195W        W33719   4.510   2.838   3.064  0.1011 -0.1021  0.2272
16196W        W33720  15.516   5.458   3.534  0.1357  0.0444 -0.0628
16197W        W33721   3.138  16.795   4.283  0.1278 -0.4913  0.0822
16198W        W33722   0.711   7.604  12.858 -0.0700  0.1114  0.3673
16199W        W33723  11.129   2.229  15.148 -0.1656  0.1313 -0.0266
16200W        W33724  16.618  13.441  14.693 -0.3286  0.2367 -0.0914
16201W        W33725  14.614   2.199  16.201  0.2649  0.0609  0.0942
16202W        W33726   4.295   1.292   2.199 -0.0023 -0.1076  0.0407
16203W        W33727   1.037   0.872   2.218 -0.1625  0.0212 -0.0869
16204W        W33728   3.643  16.276  14.159 -0.2676 -0.2722 -0.1789
16205W        W33729  15.345   0.694  12.883  0.0296  0.0175  0.0434
16206W        W33730  11.149  11.268  12.720  0.3772  0.0494  0.0765
16207W        W33731   5.457   5.705  15.487 -0.3263  0.0243 -0.1104
16208W        W33732   0.283  13.198   3.185 -0.2085 -0.1337 -0.0782
16209W        W33733   8.028  12.500   3.848  0.3545  0.0458  0.0466
16210W        W33734   3.444   9.140  15.096 -0.0413  0.1530  0.1116
16211W        W33735  10.591   4.303  15.531  0.1528 -0.0737  0.2347
16212W        W33736   0.740   1.488  14.044 -0.0217 -0.2289 -0.0902
16213W        W33737   0.695  12.675  16.142  0.0597  0.0759  0.0084
16214W        W33738   2.357  11.288   1.019  0.1015 -0.2583 -0.3588
16215W        W33739   2.775  13.308   2.164  0.3520  0.1794 -0.0434
16216W        W33740  15.144   9.699  11.720 -0.0208 -0.0154 -0.1261
16217W        W33741   2.643   8.081   2.278 -0.0135 -0.2314 -0.0168
16218W        W33742   9.604  16.626   1.712  0.0066  0.0702 -0.1577
16219W        W33743   5.142   1.747   0.009  0.1472 -0.2799 -0.0373
16220W        W33744  10.028   9.672  12.415  0.1830 -0.2955 -0.1776
16221W        W33745   1.052   8.825   5.424 -0.0025  0.0235  0.0290
16222W        W33746  12.259   6.537  15.157 -0.0136 -0.1441  0.2127
16223W        W33747   6.518  10.242  12.749  0.3596 -0.2472 -0.2663
16224W        W33748   9.512   6.879  16.890  0.0667  0.1308 -0.1350
16225W        W33749   7.908   9.764   3.503  0.0220  0.0126 -0.0989
16226W        W33750  16.597   0.568  16.513 -0.1190 -0.0155 -0.0462
16227W        W33751   9.473   6.823  12.722  0.1575  0.0900  0.1213
16228W        W33752  12.097   1.529  17.719 -0.0261 -0.2579 -0.1157
16229W        W33753   1.464  14.412  11.667  0.2062  0.1519  0.0449
16230W        W33754   3.698  14.706   1.283 -0.0236  0.0729  0.3439
16231W        W33755   2.624   0.807  16.775  0.0199  0.3650 -0.0882
16232W        W33756  11.603  12.331   2.811  0.2948 -0.2502  0.2172
16233W        W33757   3.615  12.253  16.640  0.1788 -0.0649 -0.0885
16234W        W33758   2.566   8.118  16.089 -0.1300  0.3148 -0.1755
16235W        W33759   0.972  11.201   3.943  0.1478 -0.0654 -0.1273
16236W        W33760  11.475  14.885  12.015 -0.2885  0.2809 -0.2237
16237W        W33761   9.592  10.168   3.112  0.0656 -0.0482  0.2288
16238W        W33762  12.804  13.826  15.851 -0.1189  0.2763  0.1997
16239W        W33763   1.992  11.192   1.812 -0.0797  0.1741 -0.1723
16240W        W33764  13.733   2.159   3.711  0.0413 -0.1277 -0.0518
16241W        W33765   2.571   6.345   1.730  0.2315 -0.0308 -0.2418
16242W        W33766  16.842  13.040   5.238  0.0133  0.3171  0.0245
16243W        W33767   4.706   9.174   0.520 -0.1521 -0.0860 -0.2936
16244W        W33768  15.532   9.448   4.446  0.0382  0.0352  0.0747
16245W        W33769  13.543  14.477   0.609  0.0103  0.0129  0.1599
16246W        W33770   9.588  16.380   5.254  0.0057 -0.0412  0.1474
16247W        W33771  13.312  13.530   1.849  0.5112  0.0967  0.0871
16248W        W33772  12.930   8.666  13.058 -0.2770 -0.0261 -0.1610
16249W        W33773  11.711  15.047  16.904 -0.1085 -0.1221 -0.1471
16250W        W33774   4.497  10.903  14.798  0.0655 -0.1147  0.0248
16251W        W33775   6.131  16.771  13.476  0.2121 -0.0993 -0.1267
16252W        W33776   8.293   6.007  15.465 -0.0005 -0.1358 -0.1156
16253W        W33777  10.484   0.065  14.059 -0.0446 -0.0935  0.0117
16254W        W33778   8.483   9.393   2.723  0.0316  0.0435  0.5016
16255W        W33779  16.016   3.304  17.112 -0.2500 -0.0463  0.0827
16256W        W33780   1.769   8.808   3.641  0.1147  0.0732  0.1491
16257W        W33781   3.766   3.217   1.919  0.3105  0.3002  0.1177
16258W        W33782   7.324  16.033   3.762 -0.0998  0.3249  0.1713
16259W        W33783  10.548   0.188   5.578  0.2185  0.0274  0.4239
16260W        W33784   0.724   4.120   2.314 -0.1527 -0.1669  0.2493
16261W        W33785  11.428  13.306   3.968  0.1245  0.4926  0.0723
16262W        W33786   2.578  10.484  15.265  0.0357  0.0413 -0.1011
16263W        W33787   7.828   3.560   2.102  0.1989 -0.1100 -0.0833
16264W        W33788   6.958  10.143   3.476  0.0073 -0.1261 -0.0003
16265W        W33789  15.807  16.700  12.114  0.3980  0.2362 -0.0025
16266W        W33790   0.048   2.812  17.676  0.1000  0.1545  0.0133
16267W        W33791   0.338   9.283   0.680  0.1451  0.1966 -0.0591
16268W        W33792   3.356   4.871   3.213  0.3538  0.2610 -0.1870
16269W        W33793  15.307   8.799  16.355  0.1068 -0.0862 -0.2871
16270W        W33794  15.876   0.206  14.009  0.0024 -0.3326 -0.0088
16271W        W33795   1.876   6.490   0.137  0.1221 -0.0544 -0.0411
16272W        W33796   3.121   0.946   1.305  0.0462 -0.3966  0.0738
16273W        W33797  14.073   7.116  15.349  0.1672 -0.0857 -0.2623
16274W        W33798   9.573   2.680  13.960 -0.0994  0.3122  0.2232
16275W        W33799  13.729   1.659  14.178 -0.0173  0.0065  0.2175
16276W        W33800   8.496   8.327   2.311 -0.0112 -0.0411 -0.3677
16277W        W33801   5.981  16.727   3.393  0.2123 -0.1674  0.0066
16278W        W33802  14.352   9.380  14.272  0.0729  0.2408 -0.0197
16279W        W33803  10.819  14.510  13.368 -0.2786  0.0385  0.1402
16280W        W33804  12.023  11.485   1.098 -0.0049 -0.2017  0.0336
16281W        W33805  12.063   2.660  16.773 -0.0551 -0.0123 -0.0074
16282W        W33806  12.992   4.354   5.757  0.2109 -0.2263  0.1216
16283W        W33807   9.926   0.675  11.090 -0.0034 -0.0255 -0.3048
16284W        W33808   5.998  11.604   0.983 -0.1376 -0.0080 -0.1022
16285W        W33809   5.661  13.888  13.996  0.1608  0.2190 -0.1042
16286W        W33810  15.139  12.196   5.687  0.2199  0.2149 -0.1493
16287W        W33811   7.875   9.248  13.655  0.1201  0.1084 -0.3188
16288W        W33812   9.411  11.356   3.529  0.0151 -0.0275  0.0962
16289W        W33813   7.069  15.076  14.467 -0.1292  0.0677 -0.1678
16290W        W33814   7.630   3.738   3.120 -0.1642  0.1699  0.1333
16291W        W33815   2.864  10.991  12.778 -0.1028 -0.0436  0.1089
16292W        W33816   4.846  15.166  14.401  0.3550  0.0107 -0.0190
16293W        W33817   2.254   0.166   2.680 -0.1892 -0.0774 -0.1255
16294W        W33818   7.463   9.714   0.301 -0.1927  0.1681 -0.0775
16295W        W33819  16.660   8.877  17.706  0.1311  0.0793  0.2417
16296W        W33820   1.203  10.159  16.924 -0.0001 -0.2750  0.2952
16297W        W33821   0.668  12.724  15.302 -0.0860  0.0059 -0.0422
16298W        W33822   4.534  12.458  16.828 -0.2946 -0.1370 -0.0203
16299W        W33823   3.215  11.038   0.739 -0.0692  0.2457  0.0876
16300W        W33824  16.254  16.167   1.234 -0.0566 -0.2074 -0.1021
16301W        W33825   6.207   7.431  15.470  0.3966 -0.1579 -0.1126
16302W        W33826  12.909   3.659   5.656 -0.0683 -0.1324 -0.3527
16303W        W33827  10.099   6.235   0.289 -0.1335 -0.1004  0.1807
16304W        W33828  12.358   6.054  14.746  0.2480 -0.1556  0.2825
16305W        W33829   4.437  13.436  12.894 -0.1851  0.2594  0.1222
16306W        W33830  14.342   9.199   4.058 -0.0182  0.1529  0.1114
16307W        W33831  12.190  13.344  13.301  0.0124  0.0345  0.0138
16308W        W33832  16.394   8.491   4.487  0.2560  0.0962  0.1195
16309W        W33833  14.290   8.031   2.083 -0.4002 -0.5040 -0.0842
16310W        W33834  14.767   3.976   0.466  0.0752  0.0947 -0.2389
16311W        W33835  16.166   2.468  16.580  0.3341 -0.4259 -0.2806
16312W        W33836  12.434   2.394  16.435  0.2149 -0.1433 -0.1934
16313W        W33837  13.386   8.467   3.519  0.0520 -0.0108  0.1367
16314W        W33838   7.858   5.897  14.283  0.2336 -0.2027  0.2752
16315W        W33839  16.700  10.279  15.478  0.0917  0.0644  0.0409
16316W        W33840   0.947  16.917  16.279  0.1667  0.1294  0.1002
16317W        W33841   7.404  12.086   4.360  0.2300  0.0642  0.0185
16318W        W33842   1.136   5.272   3.799  0.0788  0.3786  0.0749
16319W        W33843   3.438  12.359   4.030 -0.0202  0.1211 -0.0316
16320W        W33844   8.136   0.139   3.653 -0.3074 -0.0731  0.2460
16321W        W33845   7.366  14.869   3.918 -0.2839 -0.5023  0.3808
16322W        W33846   5.239   5.281   4.095 -0.1415 -0.0359 -0.2074
16323W        W33847   2.385   7.627   5.097  0.0577  0.0105  0.1582
16324W        W33848   3.292  11.509  17.709  0.1047  0.0929 -0.0912
16325W        W33849  14.244   0.077   4.459  0.0010 -0.0955 -0.2010
16326W        W33850  16.337  12.188  14.185 -0.0736 -0.1302 -0.1233
16327W        W33851   7.944  12.788   3.033 -0.0394  0.2600 -0.1328
16328W        W33852  12.003   3.371   0.302 -0.2315  0.3261 -0.0029
16329W        W33853   4.086   9.154  16.588 -0.2934 -0.0286  0.0777
16330W        W33854  10.740   8.363  16.898  0.1599 -0.0230  0.1557
16331W        W33855   5.250   4.781   0.290  0.0382  0.0358  0.2344
16332W        W33856   3.654  13.721   2.281  0.1309 -0.0141 -0.2061
16333W        W33857   8.214   1.243   4.565  0.1824 -0.2624  0.3061
16334W        W33858  14.883   3.838   2.023 -0.1920  0.0282 -0.1000
16335W        W33859   8.752  15.768   2.701  0.1517  0.1273  0.1067
16336W        W33860  10.745   3.203  14.868  0.0061  0.1994  0.1664
16337W        W33861   2.397  15.155  13.612  0.1236  0.0887  0.4190
16338W        W33862  11.680   2.327   0.993 -0.1765  0.4205  0.2027
16339W        W33863  12.735   4.667   4.556  0.0804  0.2968  0.4428
16340W        W33864   4.968  15.515   4.386 -0.0594  0.2178  0.1165
16341W        W33865   2.971  16.436   0.833 -0.1636 -0.0146 -0.1377
16342W        W33866  12.566   7.265  13.561  0.0876 -0.1335  0.2144
16343W        W33867  15.438   4.328   3.850 -0.2096  0.0628  0.0095
16344W        W33868   5.197  10.710  15.354  0.0384  0.0080 -0.0784
16345W        W33869   7.247   4.612   1.436  0.1047  0.2214 -0.3821
16346W        W33870   4.782   3.808  15.626 -0.1088  0.2852  0.0316
16347W        W33871   4.706  13.018   1.831  0.0186 -0.0175 -0.2255
16348W        W33872  10.543  13.797   2.951 -0.0662 -0.1656 -0.0233
16349W        W33873   7.647  12.777  13.061  0.0878  0.4137 -0.0827
16350W        W33874  12.486   5.587  13.097 -0.0098  0.0803 -0.1437
16351W        W33875  10.280   4.798   3.359 -0.0680 -0.1809 -0.1811
16352W        W33876  11.441  12.748  17.598  0.1877 -0.0962 -0.1456
16353W        W33877   3.967   8.036  12.928 -0.1691  0.0593 -0.1162
16354W        W33878   0.202   4.495   3.069  0.0400 -0.1350 -0.1150
16355W        W33879  11.523   5.527   3.723 -0.0786  0.1309 -0.2481
16356W        W33880   0.270   7.588   1.794  0.1426  0.0555 -0.0509
16357W        W33881  14.093   1.057   4.407  0.3209  0.0143 -0.0590
16358W        W33882   2.864  13.321  14.088 -0.0749  0.4653  0.1744
16359W        W33883   4.855   6.285   2.798 -0.1296 -0.0102  0.2484
16360W        W33884  12.358   4.183  12.804  0.1360 -0.1960  0.0662
16361W        W33885  15.374   1.140   5.734  0.1873  0.0075 -0.0068
16362W        W33886   1.299  16.042  15.092  0.4230  0.2277  0.2634
16363W        W33887  15.187   2.962  13.156  0.0590 -0.1494 -0.1525
16364W        W33888  12.326   9.406  16.206  0.0625 -0.1820  0.1265
16365W        W33889  16.553   9.137   0.652 -0.1022  0.0230 -0.0876
16366W        W33890  11.056  14.300   0.351 -0.2093 -0.0833 -0.1815
16367W        W33891   5.177   6.123   4.222  0.1237 -0.2177 -0.0149
16368W        W33892   1.504   0.722   5.377  0.0182  0.0935 -0.2788
16369W        W33893   9.754   2.144  12.139  0.0093 -0.0662  0.3645
16370W        W33894  14.308  13.646   2.039  0.0644  0.1390 -0.0469
16371W        W33895   7.128  11.156  16.706  0.0530  0.0038 -0.0744
16372W        W33896  13.794  13.045   4.672 -0.1630 -0.0488 -0.1852
16373W        W33897   4.011  15.667   5.870 -0.2984  0.0494 -0.3020
16374W        W33898   2.228   2.325   3.814  0.1156 -0.1625  0.3111
16375W        W33899  16.782  16.627  14.221 -0.0204 -0.2087 -0.3038
16376W        W33900  12.468  13.953   1.774 -0.0765  0.2002  0.1467
16377W        W33901   7.883   3.686   3.984  0.0992  0.3500  0.1715
16378W        W33902   9.300  11.715  17.590  0.1682  0.2704 -0.0075
16379W        W33903   2.534   1.976  17.542  0.2050 -0.0257 -0.1992
16380W        W33904  15.255   3.067   6.535 -0.1618 -0.2957  0.0749
16381W        W33905   0.392  13.773   5.500 -0.0170  0.1667 -0.1956
16382W        W33906  17.160   8.170  13.508 -0.3781 -0.1456  0.2134
16383W        W33907   9.880   8.100   2.085  0.1566  0.0784  0.3320
16384W        W33908   6.241  15.829  16.608  0.1516 -0.2655 -0.0968
16385W        W33909  17.012   3.652   2.508 -0.1954 -0.2741 -0.1949
16386W        W33910   5.576   2.318  16.138  0.0548 -0.1973 -0.1993
16387W        W33911  10.128  17.020   2.565 -0.0755  0.0260 -0.2972
16388W        W33912  16.511   0.270  16.060 -0.0415 -0.2065  0.0274
16389W        W33913  11.025  16.077  14.180  0.1022  0.2593 -0.0463
16390W        W33914   5.243  16.320   2.614  0.1507  0.0163 -0.0817
16391W        W33915   7.176  10.802   3.856  0.0352  0.2343  0.1236
16392W        W33916   9.692  14.395   4.582  0.0041 -0.1122  0.1249
16393W        W33917   5.869  16.651   4.109  0.1454  0.0652 -0.3366
16394W        W33918   5.757   4.295   2.263  0.2035  0.0351  0.2814
16395W        W33919   5.148  16.349   1.571 -0.0987  0.3359  0.1015
16396W        W33920  16.709  12.622   5.415  0.1038 -0.1296 -0.0163
16397W        W33921  15.817   0.805   5.813  0.0411  0.1248  0.0094
16398W        W33922   4.917  13.585   0.472 -0.0599 -0.0908  0.0171
16399W        W33923  14.389  17.006  15.752  0.2550  0.4641 -0.2044
16400W        W33924   0.491   3.245   3.271 -0.1612  0.1150 -0.0075
16401W        W33925  15.459  14.447   3.893  0.0968 -0.0107 -0.1759
16402W        W33926  12.441  14.084  14.305 -0.4438  0.1966  0.2859
16403W        W33927   6.437  14.768   5.062  0.0205 -0.0537 -0.0553
16404W        W33928   3.226  15.688   4.258  0.1115  0.0077 -0.1335
16405W        W33929   6.507  16.877   3.132  0.0493 -0.0871 -0.4049
16406W        W33930  11.064  12.957  13.702  0.1287 -0.2474  0.0137
16407W        W33931  13.378  14.248   4.112 -0.1890 -0.2185 -0.2880
16408W        W33932   6.039  13.367   2.937  0.2033  0.2097  0.1040
16409W        W33933  13.492   4.316  14.642  0.1712 -0.0581  0.0368
16410W        W33934   7.584   0.691   4.307 -0.2051  0.1568 -0.3480
16411W        W33935   5.665   0.738  11.855  0.1206 -0.0374  0.0202
16412W        W33936   5.949  11.924  17.013  0.0804 -0.1272  0.2935
16413W        W33937  16.239   8.499   3.015 -0.0413  0.1767 -0.1597
16414W        W33938  15.430   4.287  13.363  0.1615 -0.1020  0.3143
16415W        W33939   6.924   1.709   2.773  0.0563  0.0960  0.3971
16416W        W33940   8.161  10.836  16.294  0.3572 -0.0481 -0.0559
16417W        W33941  14.605   2.702   2.698  0.0516  0.0314 -0.1123
16418W        W33942   7.156  10.285   0.054  0.0822  0.1473  0.3086
16419W        W33943   8.372   5.193  17.058 -0.1361  0.2120 -0.0970
16420W        W33944   2.929   0.020   0.101 -0.1822  0.2352 -0.0220
16421W        W33945  12.106   9.814  14.098  0.0196 -0.0642 -0.0976
16422W        W33946   8.080  14.909  13.925 -0.2292  0.0067 -0.1137
16423W        W33947   5.431   9.564   5.330  0.3117  0.1341  0.1209
16424W        W33948  16.297  15.428  13.006  0.1082 -0.0570  0.0193
16425W        W33949   3.179  12.022   4.359 -0.0499 -0.4158 -0.0527
16426W        W33950  11.121   5.137  16.123  0.0101 -0.2121 -0.2118
16427W        W33951  12.313   5.625  16.922 -0.2891  0.2118 -0.0132
16428W        W33952   9.731   3.382  17.016  0.0674  0.0858  0.1162
16429W        W33953   7.809   4.664  11.898 -0.2220  0.3278 -0.0525
16430W        W33954   8.556   7.689  13.788 -0.0315  0.3082 -0.0727
16431W        W33955   4.911  15.905  15.364 -0.1130  0.0004 -0.0556
16432W        W33956  13.045  11.705   0.611 -0.0476  0.1880 -0.1193
16433W        W33957  16.540  13.351  16.822  0.1603 -0.1860  0.1992
16434W        W33958  13.321   7.202  17.182 -0.0010  0.1165 -0.0241
16435W        W33959   1.886   0.124  15.346  0.0270  0.2006 -0.3897
16436W        W33960  10.859  11.167   5.268 -0.3214 -0.0605  0.0580
16437W        W33961   2.971   4.070   1.352  0.0794 -0.0859  0.1461
16438W        W33962   8.554  13.632  12.438  0.0946  0.1811  0.1711
16439W        W33963   8.435  16.397  16.881 -0.0595 -0.1679 -0.2761
16440W        W33964   4.770  15.571   0.575  0.1634  0.5324 -0.1585
16441W        W33965   9.245   1.827   4.064  0.0150  0.0188 -0.3161
16442W        W33966   9.973  14.872   3.105  0.0371 -0.1653  0.0050
16443W        W33967   4.684  12.085  15.707  0.0131 -0.1076 -0.0329
16444W        W33968   9.483   1.706  14.707 -0.2664  0.1213  0.0196
16445W        W33969   0.916  13.999  16.093 -0.0001 -0.1555  0.0112
16446W        W33970   3.218  10.358   3.637 -0.1029  0.1825  0.2662
16447W        W33971   1.279  14.400   2.136  0.0365 -0.3913  0.0868
16448W        W33972  10.529   4.853  15.031 -0.1564 -0.4011  0.0235
16449W        W33973   3.683   9.693   5.319 -0.3300 -0.1698 -0.0478
16450W        W33974   4.569  10.316   3.145  0.0867  0.2357  0.0637
16451W        W33975  13.408  16.165   1.136  0.1094  0.1087 -0.1878
16452W        W33976   6.066   6.920   2.027  0.4484  0.0290  0.2570
16453W        W33977   3.796   1.875  14.777 -0.0308 -0.0787  0.0937
16454W        W33978   4.466  12.115  14.309 -0.1119 -0.1799  0.1179
16455W        W33979   7.298  15.395   5.394  0.1861  0.0356 -0.3288
16456W        W33980  10.685  16.991  14.489  0.1681  0.1560  0.1244
16457W        W33981   5.888  14.118   4.531 -0.2141 -0.3080 -0.1625
16458W        W33982   4.151   8.557  12.901 -0.0525  0.1412  0.1731
16459W        W33983   2.439  10.949  15.685 -0.1158 -0.1806 -0.1293
16460W        W33984   1.365  16.055  13.408 -0.1131  0.3219 -0.2963
16461W        W33985  13.747   2.325   1.751 -0.4463 -0.0312 -0.1667
16462W        W33986  10.119  11.760   1.915 -0.3284 -0.0105  0.0917
16463W        W33987   2.500   9.905   4.025  0.1425  0.0397  0.1755
16464W        W33988  16.330  14.310  13.669 -0.1621  0.1471  0.1650
16465W        W33989  11.914   1.229   4.861 -0.2114 -0.1500 -0.1036
16466W        W33990  14.518   1.194  15.321 -0.0390 -0.1111 -0.2531
16467W        W33991   3.583   3.594   4.574 -0.1593 -0.0872  0.0277
16468W        W33992   2.912   8.536   3.586 -0.1457 -0.3131  0.2477
16469W        W33993   0.006   2.922  13.201 -0.2509  0.0282 -0.2478
16470W        W33994   3.796  10.728   0.469  0.1369  0.1778  0.1687
16471W        W33995   5.588  16.852  13.132 -0.1660  0.3397  0.0191
16472W        W33996  11.330   2.806  17.016 -0.1627  0.2152  0.2796
16473W        W33997   3.176  10.585  17.325  0.1340  0.2065  0.1314
16474W        W33998   2.194  15.862  14.890  0.0998  0.0471 -0.1690
16475W        W33999   4.126   9.187  17.576  0.0908  0.1840 -0.0602
16476W        W34000   8.633   7.963  14.310  0.1256 -0.0987 -0.2234
16477W        W34001  10.346  13.049   0.604 -0.1389 -0.2750 -0.0184
16478W        W34002   2.156   4.541  17.708  0.0583  0.0899 -0.2735
16479W        W34003   8.406  13.499   5.219 -0.1729  0.0310  0.1012
16480W        W34004   4.464  13.723   0.681  0.1013  0.1783  0.1524
16481W        W34005   4.565   6.880  15.879  0.3164  0.2153 -0.1418
16482W        W34006   9.588   4.597   4.184  0.1823  0.1338 -0.1102
16483W        W34007   3.618  17.147   2.398 -0.0771  0.3224  0.0370
16484W        W34008  14.625  15.846   1.506  0.1167  0.0482 -0.1326
16485W        W34009  14.155   5.611   4.450 -0.1541  0.2283 -0.0565
16486W        W34010  14.458  12.942   4.567 -0.2804  0.0520 -0.2050
16487W        W34011  10.563  10.803  17.439  0.1651  0.0529  0.1713
16488W        W34012   5.513  15.819  14.935  0.2542 -0.0998  0.0851
16489W        W34013   0.280   9.955  14.331  0.2260 -0.1836  0.1041
16490W        W34014   1.453  11.572   2.460 -0.1934 -0.0725 -0.0059
16491W        W34015  11.914   4.224   2.746 -0.0089  0.1518 -0.0116
16492W        W34016  12.414   3.693  15.667  0.0253 -0.2020 -0.3355
16493W        W34017   7.021  13.079   3.677  0.0385 -0.0472 -0.0372
16494W        W34018  14.432   2.650   4.210  0.1362  0.2474 -0.1123
16495W        W34019   6.643  14.046  11.594  0.1183 -0.2038  0.1390
16496W        W34020  12.363   5.454  15.384  0.2472  0.1215  0.3309
16497W        W34021  13.202  15.295   1.350  0.5148  0.1740  0.2591
16498W        W34022  15.705   8.497   1.126 -0.2338 -0.0774  0.0132
16499W        W34023  12.592   1.061  14.291 -0.2282 -0.0985 -0.2548
16500W        W34024   2.543  14.361   4.433 -0.1062  0.2334 -0.1252
16501W        W34025  15.632   5.640  13.840  0.1284  0.0175 -0.0901
16502W        W34026  12.069   7.763  13.007  0.0025  0.0829 -0.2295
16503W        W34027  13.638   6.091   0.432  0.3542 -0.1991 -0.0253
16504W        W34028  14.167   8.760   5.718  0.2407 -0.2148 -0.4185
16505W        W34029  11.228   1.171  12.308  0.0430 -0.2579 -0.3050
16506W        W34030   2.932   9.617   0.461 -0.0904  0.2761 -0.1510
16507W        W34031   1.879   4.683  16.395 -0.2197 -0.1109  0.0696
16508W        W34032   3.106  11.146   3.517 -0.0525  0.2357 -0.1964
16509W        W34033   9.602   3.035   0.538  0.2183  0.4703  0.2171
16510W        W34034  13.135   8.178   0.382 -0.0818 -0.1258  0.0928
16511W        W34035   3.026  13.160  16.788 -0.2038  0.0712 -0.0086
16512W        W34036   1.854   6.939  14.829 -0.0637 -0.0277 -0.0486
16513W        W34037   9.222  15.944   3.490 -0.3025  0.1046  0.1243
16514W        W34038   2.439  14.229   3.453 -0.1300 -0.1210  0.2735
16515W        W34039  15.765  15.765  11.498  0.0036 -0.0915 -0.1507
16516W        W34040   8.363   2.683  14.886 -0.2944  0.1908 -0.3757
16517W        W34041   2.701   0.262  16.759 -0.0186 -0.1884 -0.0691
16518W        W34042   8.941  10.261  13.614  0.0764 -0.0179 -0.0102
16519W        W34043   6.576   4.256   5.291  0.2889  0.2298 -0.1394
16520W        W34044   8.700   0.981   0.394 -0.1348  0.2461  0.0631
16521W        W34045   3.325   2.558  14.416 -0.2639  0.0458 -0.0261
16522W        W34046  10.360  10.946   4.517  0.0886 -0.2292 -0.0379
16523W        W34047   2.116  15.896   1.646 -0.0393  0.2544 -0.1399
16524W        W34048   6.989  16.565  12.554  0.1567  0.0049  0.2336
16525W        W34049   8.973   5.328   2.696  0.0715  0.0726  0.0267
16526W        W34050   7.121   2.085   0.252 -0.1598  0.0394  0.0665
16527W        W34051  15.757   5.902   1.471 -0.2498  0.2627 -0.2273
16528W        W34052   2.568  10.632  12.416  0.4289  0.2356 -0.2656
16529W        W34053  10.244   9.356   2.765 -0.1036  0.2718 -0.3431
16530W        W34054  15.516  13.453  12.974  0.0933 -0.1264  0.0460
16531W        W34055  15.601   9.708  13.109 -0.0121 -0.2760  0.0046
16532W        W34056   9.395   0.462   3.789  0.0553  0.2403 -0.1068
16533W        W34057  10.623  10.517   3.828 -0.0643  0.2904  0.0337
16534W        W34058  16.745   3.898  17.633  0.2684  0.0260 -0.0409
16535W        W34059   7.956   0.399  15.347 -0.0336  0.2464 -0.0051
16536W        W34060   9.426   2.995  12.376  0.1194  0.2878  0.2220
16537W        W34061  13.293  10.885  17.059  0.3661  0.0881 -0.0543
16538W        W34062   2.346   6.469   0.848  0.0914  0.0488  0.2487
16539W        W34063  15.038   7.054  16.842  0.4452 -0.4048  0.1772
16540W        W34064   8.014  13.039  15.713  0.3139 -0.0170 -0.0162
16541W        W34065   4.921  13.548  16.965  0.0631  0.1761 -0.0570
16542W        W34066  10.615   8.638   2.355 -0.1523 -0.1133  0.0129
16543W        W34067  14.597  14.360  13.427  0.3696  0.1551 -0.3312
16544W        W34068   6.049  13.411   0.088  0.2212  0.0476 -0.0678
16545W        W34069   9.307   6.956  15.687  0.0515  0.1163 -0.0084
16546W        W34070  12.523   3.871  17.253  0.2212 -0.0326 -0.3929
16547W        W34071   9.482  11.527  16.898  0.1137  0.1423 -0.0378
16548W        W34072  11.903  15.226   1.004 -0.1797  0.1149 -0.0965
16549W        W34073   7.994  10.009  16.546 -0.0806  0.3586  0.0131
16550W        W34074   1.457   4.129   6.283 -0.0636  0.0852  0.2353
16551W        W34075  13.199  15.243   0.625 -0.0179 -0.1986 -0.1170
16552W        W34076   6.951  12.978  17.141 -0.1123 -0.1033  0.0605
16553W        W34077   4.950   9.168  14.073  0.0717 -0.2251 -0.1870
16554W        W34078   3.059   4.652  16.715  0.2188 -0.1370  0.0491
16555W        W34079  12.388  12.830  15.048 -0.1134 -0.2556  0.2128
16556W        W34080   0.537   9.782   3.631 -0.0534  0.1307  0.2221
16557W        W34081  11.753  12.534   1.695  0.0108  0.0448  0.1738
16558W        W34082   1.316   8.540   0.964 -0.0505  0.1153  0.5380
16559W        W34083  14.172  11.609   2.116 -0.1482  0.1965  0.0098
16560W        W34084   6.099   3.304   5.428 -0.0144  0.0908  0.0110
16561W        W34085  13.976   4.738   3.767  0.2885 -0.0653 -0.1862
16562W        W34086   2.695   4.821  16.280  0.0982 -0.0710  0.1959
16563W        W34087   9.305  11.357  15.453  0.1748 -0.1666 -0.2853
16564W        W34088   1.889   1.011  11.991 -0.1308  0.0066 -0.1241
16565W        W34089   6.420   4.241  15.787  0.2109  0.1203 -0.0715
16566W        W34090  11.825   2.278   5.114 -0.4258 -0.0616 -0.0414
16567W        W34091   6.947   2.010   3.831  0.1487  0.3867 -0.1428
16568W        W34092  16.599  14.417  12.661 -0.0848 -0.1761 -0.1358
16569W        W34093   1.185   0.206   1.639  0.3432  0.0908  0.0082
16570W        W34094   1.597  10.322   1.111 -0.1797  0.3841  0.0545
16571W        W34095   1.176   8.042  17.613 -0.0052  0.1967 -0.0253
16572W        W34096   0.379  14.004  13.534  0.1845  0.0334 -0.2232
16573W        W34097   7.251   3.068   3.018  0.0501 -0.1210  0.2398
16574W        W34098  10.919  14.032   0.752  0.1138  0.0583 -0.3766
16575W        W34099   2.800   5.019   1.531  0.0229 -0.0490 -0.0143
16576W        W34100  14.852   6.959   5.591 -0.1491  0.0211 -0.1671
16577W        W34101  10.559  15.659   2.259  0.0002  0.0170 -0.2081
16578W        W34102   8.697   9.077  17.082 -0.2426 -0.0217  0.0996
16579W        W34103   0.942   8.447   5.097  0.2941 -0.0715  0.0597
16580W        W34104   9.143  12.564   4.093 -0.1884 -0.0786 -0.0903
16581W        W34105   8.937   2.080  16.968  0.0180  0.2501  0.1216
16582W        W34106   3.879   4.391  14.719 -0.1092 -0.1256  0.2878
16583W        W34107   5.324  14.156   0.526 -0.3390 -0.1514 -0.1814
16584W        W34108   2.219  16.004   4.541  0.2563  0.1266  0.0019
16585W        W34109  17.048  16.878  13.843  0.0199  0.2568  0.2741
16586W        W34110   0.738  15.698   1.472  0.1393  0.2617 -0.1982
16587W        W34111  13.311   0.196   2.494 -0.0695 -0.0828  0.1899
16588W        W34112  12.303  10.540   1.470 -0.0642 -0.0546 -0.0222
16589W        W34113  12.575   7.821   1.034 -0.0810 -0.1727  0.1422
16590W        W34114   5.470  11.236  17.146  0.2655 -0.1287  0.0088
16591W        W34115  12.177   1.611  16.855  0.3245  0.2083  0.0542
16592W        W34116   2.621  16.855   4.292 -0.2799  0.2357  0.1491
16593W        W34117   8.935   2.676   2.862  0.0025 -0.1257  0.0094
16594W        W34118   2.453   7.704  15.850 -0.0611 -0.1298  0.1303
16595W        W34119   6.184   7.446   2.912 -0.2003 -0.0260  0.1556
16596W        W34120   5.979  15.917   4.494  0.2841  0.1074  0.1942
16597W        W34121  13.898  13.390  17.289  0.0204  0.0921 -0.1312
16598W        W34122  17.112   4.944   1.333  0.1120 -0.0137  0.1566
16599W        W34123  15.140   2.080  14.796 -0.0599 -0.1659 -0.1486
16600W        W34124   1.681  11.156  17.133 -0.2930 -0.0902  0.0094
16601W        W34125   5.431   3.097   4.112 -0.1141  0.1865  0.3477
16602W        W34126  14.882  10.726  14.841  0.0889 -0.2497  0.4384
16603W        W34127   6.859  14.674   0.483  0.1001 -0.3455 -0.0710
16604W        W34128  13.999  16.409  14.036 -0.1658 -0.1732  0.0401
16605W        W34129   4.002   1.750  15.965 -0.0449 -0.1479 -0.0749
16606W        W34130   2.853   7.318   0.815 -0.2558  0.0620  0.1978
16607W        W34131  11.486   4.937  14.579 -0.0435  0.2132 -0.1360
16608W        W34132   5.420  15.616  12.944  0.3833  0.2219  0.2542
16609W        W34133  12.491  11.013  17.271  0.0876  0.0100 -0.2235
16610W        W34134   8.704  14.651   5.693 -0.3389  0.2205 -0.0586
16611W        W34135   1.588   0.777   4.472  0.2901 -0.0438 -0.1029
16612W        W34136   3.463   8.639   0.039 -0.0691 -0.0990  0.0262
16613W        W34137   4.312  11.015   0.624  0.1022  0.2214 -0.2353
16614W        W34138   4.474   8.548  15.501  0.0828  0.0234 -0.0350
16615W        W34139  12.982   7.689  12.752  0.0279 -0.0776  0.2199
16616W        W34140  12.412   0.757  16.962 -0.1491 -0.1293 -0.0846
16617W        W34141   3.983  11.078  14.423 -0.0480  0.1490 -0.3874
16618W        W34142   4.412   5.551   3.628  0.1226 -0.0281  0.2512
16619W        W34143   7.983   3.016  14.855 -0.0059 -0.1377 -0.3219
16620W        W34144  15.794   1.792   2.838  0.0809  0.0894 -0.2486
16621W        W34145  11.018   2.572   1.190 -0.1526 -0.1149 -0.0902
16622W        W34146  12.955  16.396   3.695 -0.0577  0.0351 -0.1002
16623W        W34147  12.310  12.385  14.002 -0.2179  0.0119  0.0353
16624W        W34148   3.317  11.140   2.697  0.0694  0.1354 -0.0836
16625W        W34149  14.210   6.302   2.849 -0.1373  0.0829  0.1013
16626W        W34150   2.249  10.549  17.544 -0.0080  0.0962 -0.1007
16627W        W34151  13.893   9.610  15.513  0.2411 -0.1766 -0.1209
16628W        W34152   1.738  11.817  14.792  0.2417 -0.0278  0.0788
16629W        W34153   6.297   6.039  17.368  0.4334 -0.0940  0.0576
16630W        W34154  12.120  14.473  16.212  0.2461 -0.0702 -0.0507
16631W        W34155   0.682   5.316   5.230  0.0635  0.3155  0.3211
16632W        W34156   5.707   2.431  14.743 -0.0962  0.0203 -0.2279
16633W        W34157  10.305   7.411  14.877 -0.1063 -0.3435 -0.3559
16634W        W34158   1.943  10.020   0.466 -0.1109 -0.0292 -0.0659
16635W        W34159   4.657   5.160  16.365  0.2418  0.0718  0.1632
16636W        W34160  15.734   8.666  12.133 -0.1955 -0.1916  0.0496
16637W        W34161   2.651   9.162   2.692 -0.1182 -0.0307 -0.0596
16638W        W34162   7.240  12.361  17.040  0.2128  0.0157 -0.1878
16639W        W34163  13.072   9.682   2.453 -0.0356  0.1792  0.1625
16640W        W34164   6.865   4.391   4.533  0.2119  0.0723 -0.0795
16641W        W34165   0.430   3.595   6.319  0.1040 -0.2682  0.1804
16642W        W34166   9.204   2.322  16.317 -0.0068 -0.1747  0.2641
16643W        W34167  12.572   9.793   0.386 -0.0202  0.1929  0.2265
16644W        W34168   4.292   8.368  15.921 -0.0180 -0.1260 -0.2555
16645W        W34169  12.631  13.934  17.023  0.1636 -0.2473  0.0038
16646W        W34170   4.466   0.362   4.366  0.0049  0.2790  0.1307
16647W        W34171   8.574   9.423  14.960 -0.4223 -0.2000 -0.0497
16648W        W34172   6.875   4.772   2.367  0.1358 -0.5117  0.0104
16649W        W34173   0.278   1.122  16.622 -0.0529  0.2741  0.0349
16650W        W34174   4.937   6.807   2.690 -0.2925  0.3661 -0.1285
16651W        W34175   6.740   6.860   4.743  0.1119 -0.2711 -0.0570
16652W        W34176   5.624   9.496   3.608  0.2788  0.0204  0.1090
16653W        W34177   1.999  11.555  13.338 -0.2130 -0.0215 -0.3317
16654W        W34178   9.031  16.330   3.770 -0.1100  0.1960 -0.2442
16655W        W34179  16.428   3.787  16.957  0.2337  0.1103 -0.0679
16656W        W34180   1.502  10.175  13.621 -0.0245  0.0376  0.0020
16657W        W34181   4.096   0.119  16.844 -0.2012 -0.0153 -0.0905
16658W        W34182   5.651   6.140  14.618 -0.0907  0.1323  0.0866
16659W        W34183   5.559   4.425  13.828 -0.0243 -0.0290  0.1975
16660W        W34184  12.578  13.309   1.071  0.0187  0.3358 -0.0120
16661W        W34185  12.553   7.143   2.381 -0.0475 -0.1473 -0.1200
16662W        W34186   2.942  12.323   3.538 -0.3018  0.2757  0.0057
16663W        W34187   0.401  15.353   1.229  0.0419  0.1143  0.1323
16664W        W34188  12.253  14.066  14.832 -0.2239 -0.0030 -0.2048
16665W        W34189   0.414  14.100  14.080 -0.0251  0.3895  0.1971
16666W        W34190   2.637  11.202   3.321 -0.0506 -0.1971 -0.1480
16667W        W34191   1.105   8.534  15.745 -0.1577 -0.2608 -0.1715
16668W        W34192   1.389  13.401  17.101  0.1982  0.0976  0.1750
16669W        W34193   6.148   5.060  13.371 -0.2103  0.0078  0.1953
16670W        W34194   0.059   8.158   0.151  0.1241 -0.0228 -0.0782
16671W        W34195   8.195  11.375  12.828 -0.0054  0.1279 -0.0689
16672W        W34196  15.945  12.594  17.387 -0.2381  0.2767 -0.1992
16673W        W34197  10.095  11.251   4.155  0.0745 -0.0292  0.2807
16674W        W34198  12.157   5.141  12.475  0.0541 -0.2912 -0.0441
16675W        W34199  16.438   0.496   0.514  0.0845 -0.0592 -0.3056
16676W        W34200   4.947  15.866   0.171 -0.1362  0.0590  0.2332
16677W        W34201  16.434  15.714  14.747  0.1521 -0.1686  0.4347
16678W        W34202  14.030  16.306  15.035  0.0052 -0.2466  0.0336
16679W        W34203  11.413   6.828  16.647 -0.1096 -0.0641 -0.0470
16680W        W34204   4.141   3.873   2.988  0.1739  0.2940 -0.0501
16681W        W34205   5.852   7.529   3.284 -0.1938 -0.0643 -0.2680
16682W        W34206   7.808   0.649   0.119  0.1541 -0.0434  0.4284
16683W        W34207  11.144  11.608  16.001 -0.2277  0.1347  0.1566
16684W        W34208   1.086   2.542   5.862 -0.4727  0.0484  0.1187
16685W        W34209  13.185   2.929   4.610  0.0884  0.2114 -0.1406
16686W        W34210   8.774  10.615   0.134  0.0032 -0.1379 -0.0124
16687W        W34211   4.664  17.010   3.574 -0.4333 -0.2610 -0.1722
16688W        W34212   2.169   6.869   3.835  0.2646 -0.1654 -0.0798
16689W        W34213  10.088  13.956   0.393 -0.1466  0.3882 -0.0194
16690W        W34214  12.973   0.391  14.420 -0.1698  0.0242 -0.1005
16691W        W34215  10.624  11.830   1.368  0.0646  0.1251  0.2017
16692W        W34216  16.615   3.505   0.148  0.1139  0.0496 -0.3261
16693W        W34217   7.642   1.368  14.241 -0.0579 -0.0223 -0.0300
16694W        W34218  16.067  15.713  12.687 -0.0162  0.0747 -0.0618
16695W        W34219   0.855   6.242  14.088  0.0593 -0.1274 -0.1202
16696W        W34220   5.234   1.219  13.770  0.3710 -0.0228  0.2589
16697W        W34221   8.897   7.845  15.870 -0.0170 -0.0708 -0.0420
16698W        W34222   7.553  15.815  14.087  0.0828 -0.1417  0.0800
16699W        W34223   7.984  10.837   4.333  0.0061 -0.1336 -0.0920
16700W        W34224   5.821  12.429   0.149  0.1534  0.0173  0.0309
16701W        W34225   4.933  15.488   3.872  0.0575  0.0536  0.1190
16702W        W34226  12.651   6.588  17.047 -0.0033  0.0108  0.3779
16703W        W34227  15.162  12.372  16.094  0.0175  0.1379  0.0234
16704W        W34228   3.474   7.008  15.296 -0.2370 -0.1869  0.0559
16705W        W34229   5.466   6.796   2.410 -0.4152 -0.1051  0.0708
16706W        W34230  14.742  16.483   3.482  0.0537  0.0446  0.0752
16707W        W34231  12.732  13.278  15.020 -0.2780  0.4559 -0.0951
16708W        W34232  14.815   6.144   3.860 -0.2583  0.0911 -0.0052
16709W        W34233   0.347   0.570   1.745 -0.0137  0.0249  0.2292
16710W        W34234  12.859  12.395   4.961  0.2464 -0.3710 -0.0373
16711W        W34235   3.627   3.960  14.892 -0.1935 -0.2749  0.0061
16712W        W34236  13.570  12.103  12.007 -0.3321 -0.2648 -0.1298
16713W        W34237   3.335  13.348   0.775 -0.1101  0.0055 -0.1792
16714W        W34238   0.096  11.534  14.115 -0.0537 -0.0249  0.2140
16715W        W34239  11.984   2.404   4.663  0.0638  0.2875 -0.2138
16716W        W34240  12.936   1.096   5.696  0.0663 -0.1392  0.0468
16717W        W34241  16.522  13.166   2.870  0.0011 -0.1407 -0.2611
16718W        W34242  13.043  16.620  16.641 -0.3449  0.1817  0.0330
16719W        W34243   4.606   7.369   2.046  0.0194 -0.2315 -0.3555
16720W        W34244   1.917  11.142  15.341  0.3545  0.0601  0.0268
16721W        W34245   7.438  10.719   0.222 -0.3508  0.0407  0.1321
16722W        W34246  15.218   8.230  17.683 -0.5489  0.3991 -0.0438
16723W        W34247  12.710  15.404   1.253 -0.1275 -0.0218  0.1777
16724W        W34248   2.252   8.075  13.257  0.1792 -0.0712  0.1263
16725W        W34249  12.514  15.816   2.120 -0.2746  0.4671  0.2265
16726W        W34250   9.571  15.200   5.983 -0.2352  0.0160 -0.2473
16727W        W34251  15.358   3.624  13.806  0.2035  0.0784  0.1895
16728W        W34252   3.515   6.489  12.225 -0.0396 -0.2417  0.0521
16729W        W34253  12.071   0.836   3.868  0.1219 -0.0187  0.0892
16730W        W34254   7.270   1.357  17.212  0.0996  0.2415 -0.5463
16731W        W34255   6.546   5.126  11.982 -0.1418 -0.2119 -0.2149
16732W        W34256  12.973  14.849   4.036  0.1361 -0.0373  0.0084
16733W        W34257   5.386  13.481  14.707  0.0715  0.1190  0.0868
16734W        W34258   9.966  14.530   2.024  0.0119  0.0645 -0.1589
16735W        W34259   5.863   7.120  16.228  0.0092  0.2159  0.2153
16736W        W34260   3.661   8.135  16.844  0.1113  0.4130 -0.0009
16737W        W34261  16.400   8.523  12.807  0.0435 -0.2532  0.0531
16738W        W34262   9.159  11.460   3.067 -0.1375 -0.0957 -0.1778
16739W        W34263   7.319   7.112   4.289 -0.3204 -0.0154  0.1528
16740W        W34264   1.853   2.620  17.186  0.1729 -0.2365  0.1751
16741W        W34265  12.633   0.685   4.520 -0.1301  0.1180  0.1209
16742W        W34266   7.472   8.840  13.243 -0.0863  0.2565  0.2623
16743W        W34267  11.336  15.476  12.028 -0.0369 -0.0437 -0.0251
16744W        W34268  12.014   0.425  14.594 -0.3078 -0.2119 -0.1066
16745W        W34269   8.732  15.490  12.038 -0.0465  0.0753  0.3586
16746W        W34270  15.132  14.988   0.555 -0.0099  0.1992  0.0580
16747W        W34271   5.983   1.066   4.163 -0.0051  0.0012  0.1884
16748W        W34272   8.392   4.619   2.926  0.0446 -0.0976  0.1361
16749W        W34273  10.595   5.125  16.754  0.0635  0.2183  0.1118
16750W        W34274   6.721  12.251  17.654 -0.0887 -0.0395 -0.0100
16751W        W34275   9.037   1.573   4.478 -0.1027  0.2318 -0.1757
16752W        W34276  13.782   8.737  14.095  0.2527  0.2945 -0.0331
16753W        W34277   7.989   3.896   5.267  0.0705 -0.1231 -0.2565
16754W        W34278   5.868  10.728   2.990 -0.2142  0.1122 -0.1758
16755W        W34279   2.089   8.287   2.228  0.0242 -0.3362 -0.1723
16756W        W34280   1.893   9.385  16.648 -0.1890 -0.1655 -0.4207
16757W        W34281   2.002   5.892  15.794  0.1127  0.1120  0.1145
16758W        W34282  15.487   1.275  17.431  0.1529 -0.2207  0.2120
16759W        W34283   1.387   9.198   6.147  0.0901  0.2067 -0.1193
16760W        W34284   2.048   1.920  14.757  0.1645  0.0197  0.1748
16761W        W34285   1.174  16.247   4.661  0.3496  0.0863 -0.1274
16762W        W34286  11.578  14.967  12.904 -0.0048 -0.0199 -0.1278
16763W        W34287   1.357  15.414  17.321 -0.0960 -0.1010 -0.1003
16764W        W34288  16.272  16.607  16.179  0.4060  0.1700 -0.0762
16765W        W34289  11.462   3.481   6.309  0.0501 -0.5501  0.0721
16766W        W34290   5.622  13.274   0.382 -0.0628 -0.1505 -0.2613
16767W        W34291   2.667   7.301  15.423 -0.1728 -0.0327 -0.1594
16768W        W34292  16.388  14.166   4.664  0.1941 -0.1499  0.1762
16769W        W34293   2.747   2.046  15.641 -0.0076 -0.1925 -0.1246
16770W        W34294   9.609   5.452   4.865 -0.4447 -0.1029 -0.1640
16771W        W34295  14.193   0.179  14.847  0.4473 -0.1786 -0.1413
16772W        W34296   4.447   7.489  12.212 -0.0774 -0.3058  0.0943
16773W        W34297  15.512   5.288  15.216  0.0175 -0.2993  0.0807
16774W        W34298  15.438  11.458   1.566 -0.0344  0.2174  0.0953
16775W        W34299   7.738  10.085  11.554  0.0588 -0.0114  0.1631
16776W        W34300   8.159   1.793   4.546 -0.0689 -0.1726  0.3727
16777W        W34301  11.842   8.743  16.618 -0.2073  0.1753 -0.0258
16778W        W34302   2.292  15.362   2.284  0.0226  0.1358 -0.0668
16779W        W34303   1.731   6.728   3.623 -0.1920 -0.1976  0.2011
16780W        W34304   3.765   6.293   5.216 -0.0174 -0.2008 -0.1777
16781W        W34305   3.226   6.499   5.312  0.2998  0.1196  0.0438
16782W        W34306   9.115  16.657  14.103  0.1376 -0.0750 -0.4484
16783W        W34307  16.773   1.733   4.490  0.0389  0.0996  0.1674
16784W        W34308  15.237  15.853   5.075 -0.1864 -0.1128  0.0397
16785W        W34309  13.508   7.652   1.800 -0.0414 -0.2459  0.1050
16786W        W34310  13.522  13.082   5.440  0.2516  0.3520 -0.0903
16787W        W34311  10.026  13.956  12.233 -0.0844  0.0331 -0.2134
16788W        W34312  17.001  13.668  12.758  0.0654 -0.1834  0.3422
16789W        W34313  14.633   9.058   4.735  0.1456 -0.1633  0.1851
16790W        W34314   9.921   0.618   6.321 -0.0984  0.2800 -0.1209
16791W        W34315  12.052  14.189  13.856 -0.2656  0.0506 -0.2125
16792W        W34316   7.351   4.861   3.913 -0.1245  0.2807  0.0132
16793W        W34317   0.528   8.737   4.147 -0.2761 -0.1207 -0.0543
16794W        W34318   2.128   9.400   2.417  0.2256 -0.1848  0.2973
16795W        W34319  11.510  16.684   1.187  0.0347 -0.1366 -0.0701
16796W        W34320   5.328   4.046   1.707  0.2885 -0.1144 -0.1075
16797W        W34321   2.429  14.423  12.647 -0.1473  0.1260  0.0394
16798W        W34322   7.365   4.265  12.711  0.0565 -0.0293 -0.2855
16799W        W34323  14.311   5.454  13.075 -0.0307  0.2087 -0.2378
16800W        W34324  14.246   5.002  14.705  0.2151  0.0476 -0.0844
16801W        W34325   5.541   3.604  17.105  0.0259 -0.1878  0.2036
16802W        W34326   3.651   5.154  16.772  0.3009 -0.0735  0.1137
16803W        W34327   1.626   9.151   3.943  0.0779  0.1133 -0.0116
16804W        W34328   8.501  16.886  17.219  0.0603 -0.3614 -0.2918
16805W        W34329   0.701   4.481  12.929  0.3755 -0.0768 -0.5312
16806W        W34330   6.488  16.130  15.395  0.1122  0.2024 -0.1427
16807W        W34331  13.539   5.539   1.196 -0.2498 -0.0265 -0.0478
16808W        W34332   6.193  11.111  12.153 -0.0785  0.1327  0.1835
16809W        W34333  16.994   3.298  15.677 -0.1572 -0.2440 -0.1473
16810W        W34334   6.029  14.577   3.226  0.0474 -0.0022 -0.1405
16811W        W34335  10.494   8.587   0.258 -0.2003  0.0762 -0.1114
16812W        W34336   1.356  10.285  16.040 -0.0260  0.2568  0.0939
16813W        W34337   7.384   6.433  12.528 -0.0612 -0.0773  0.0980
16814W        W34338   3.082  15.093   0.076  0.0014  0.2047  0.4446
16815W        W34339  11.860   8.534   0.128 -0.0214 -0.0890 -0.2803
16816W        W34340   4.560   4.760   5.240 -0.0640  0.0741  0.0072
16817W        W34341  10.347   7.643  12.967 -0.2606  0.0634 -0.2226
16818W        W34342   6.414  11.762  16.058  0.2778 -0.0525  0.1624
16819W        W34343   6.944   6.779   1.188 -0.0093 -0.3002 -0.4046
16820W        W34344  15.745   9.048   0.641  0.0082  0.2030  0.0415
16821W        W34345  13.331  13.307   0.217  0.2033 -0.1259  0.0766
16822W        W34346   4.519   4.128   0.709  0.0004 -0.3346 -0.1171
16823W        W34347   2.264   2.883  13.864  0.2549 -0.2636 -0.2325
16824W        W34348   1.011   9.893  15.008  0.3565  0.0211 -0.0258
16825W        W34349   3.619  14.345   2.594 -0.3766  0.1914 -0.2093
16826W        W34350   6.291   6.067  16.633 -0.2152  0.0823  0.3796
16827W        W34351   9.466   2.404   2.726  0.0182 -0.0351 -0.0530
16828W        W34352  15.407  16.669  14.674 -0.1487 -0.1685 -0.1102
16829W        W34353   3.902   9.737   3.293 -0.2862 -0.0762 -0.0749
16830W        W34354   4.011  15.818  14.840  0.2264 -0.1488  0.2041
16831W        W34355   4.274  12.609   0.862  0.3113  0.0298  0.0200
16832W        W34356   1.825   8.940   4.385 -0.0010 -0.1986  0.0966
16833W        W34357  12.204  11.655   0.585 -0.3246 -0.1116 -0.1561
16834W        W34358  10.825  12.063  14.641 -0.1680  0.0436  0.0979
16835W        W34359  13.148  11.989  17.083 -0.1963  0.0864  0.0968
16836W        W34360  12.013  15.390   4.804  0.4242 -0.3926 -0.0182
16837W        W34361  14.980   6.494  17.307 -0.0183 -0.2537  0.1261
16838W        W34362  15.582   7.577  15.153 -0.2105 -0.2425 -0.2030
16839W        W34363  17.096   1.525  12.669 -0.0996 -0.2197 -0.1395
16840W        W34364   7.032   1.377   0.808  0.2519  0.1335 -0.0759
16841W        W34365   2.984  10.314   1.352 -0.0973  0.2901  0.1832
16842W        W34366   8.567   7.962  13.283 -0.0193 -0.1356  0.0114
16843W        W34367   0.344  13.866   3.828 -0.2869 -0.0624 -0.1049
16844W        W34368   6.287   9.599   0.595 -0.3138  0.0622 -0.1469
16845W        W34369   6.943   4.893   4.631  0.3212 -0.2433 -0.0628
16846W        W34370   0.940  15.590  17.028  0.1424 -0.1190  0.0434
16847W        W34371  11.755   1.138  13.845 -0.2205 -0.0791  0.2301
16848W        W34372  11.172   4.080   3.578 -0.1572 -0.2292 -0.0579
16849W        W34373   8.739   8.373  15.137  0.1762  0.2567 -0.1873
16850W        W34374   9.305   8.738  12.880  0.0052 -0.1932 -0.0947
16851W        W34375   6.536  14.832  13.809  0.0367  0.1370 -0.1594
16852W        W34376  10.143   6.944  14.217 -0.1786  0.1240 -0.0170
16853W        W34377   6.856  15.322   3.213 -0.0242 -0.2622  0.2248
16854W        W34378   4.014  15.870   4.369  0.1640 -0.1651  0.1157
16855W        W34379  13.050   1.872   4.365  0.1499  0.0682 -0.1270
16856W        W34380   2.562  12.548   1.372  0.0743 -0.2723 -0.1606
16857W        W34381  11.185   0.108   4.245 -0.1038 -0.0326  0.1415
16858W        W34382   7.499  11.601  15.403  0.1760  0.0639  0.0598
16859W        W34383   7.673   6.691   0.541  0.3887  0.1824  0.0822
16860W        W34384   0.857  13.566   1.942 -0.1824  0.0165  0.3978
16861W        W34385   2.511  14.390   5.272  0.1271 -0.0842  0.1757
16862W        W34386  14.618  11.309  17.711  0.1584  0.0348 -0.2161
16863W        W34387   2.583   6.827  16.336  0.0429 -0.0935 -0.1073
16864W        W34388  16.653  12.086   4.003 -0.3248  0.0162  0.1057
16865W        W34389   1.535  11.625  16.925  0.1711 -0.3006  0.0416
16866W        W34390  11.004   8.461  14.038  0.2472  0.1076  0.1177
16867W        W34391   7.875  11.797   3.211 -0.1025 -0.1519 -0.2729
16868W        W34392   7.718   2.996   3.348 -0.1677  0.0026 -0.1049
16869W        W34393   6.791   4.985  16.369 -0.2111  0.1210 -0.0254
16870W        W34394   8.722  16.694   1.950  0.0587  0.0628 -0.1710
16871W        W34395   5.991   2.385   3.544 -0.1965  0.3000 -0.1324
16872W        W34396   9.334   6.192   4.960  0.0131  0.2722 -0.1490
16873W        W34397  13.587   4.077  14.236 -0.1312  0.1797  0.0912
16874W        W34398  16.450  10.012   0.971  0.0769 -0.0282  0.0620
16875W        W34399  10.102   0.705   0.023 -0.1960  0.0398 -0.2305
16876W        W34400   5.386  16.743   1.274  0.0608 -0.0851 -0.0114
16877W        W34401  12.962  10.601   0.784 -0.1877  0.0991  0.1015
16878W        W34402   7.814   2.191  13.017 -0.1532 -0.0589 -0.1318
16879W        W34403  14.751  11.496   4.464  0.1059  0.3199  0.2015
16880W        W34404   1.636  14.631   2.371 -0.1328 -0.1488  0.2247
16881W        W34405   8.351   9.207  12.628 -0.1938 -0.3042 -0.1236
16882W        W34406  10.725  11.748   1.897  0.1495  0.1285 -0.0838
16883W        W34407  14.205  11.998  12.228  0.2380  0.2050  0.2319
16884W        W34408  17.099  13.899  11.520  0.1450 -0.1658  0.1122
16885W        W34409  11.942   8.276   3.947  0.0346  0.1094  0.0464
16886W        W34410   9.937   2.189   0.162 -0.0778  0.0834  0.1227
16887W        W34411   0.411   5.246  12.256 -0.0584 -0.0444  0.1396
16888W        W34412  10.932   2.748  17.312  0.0688 -0.0199 -0.0158
16889W        W34413  14.682   0.680  15.328  0.2113 -0.0562 -0.0748
16890W        W34414  14.485  16.056  12.185 -0.0068  0.1534 -0.1357
16891W        W34415   7.532  16.407  16.447 -0.0143 -0.2141 -0.1529
16892W        W34416   4.097  11.834   2.900  0.0102 -0.1990  0.4089
16893W        W34417  10.952   0.890  17.058 -0.5646 -0.1824 -0.1385
16894W        W34418  16.838  15.276   0.682 -0.1378  0.2296 -0.5301
16895W        W34419   2.987  17.095  12.851 -0.0731  0.0715  0.0010
16896W        W34420   1.765   0.832  17.350 -0.3802 -0.1394  0.0812
16897W        W34421   1.359  15.499  14.067 -0.1432 -0.3207  0.2209
16898W        W34422  10.959  12.969   3.002  0.2386  0.0943  0.0861
16899W        W34423   4.508  10.804   2.603 -0.1194  0.1211 -0.1402
16900W        W34424  13.215   2.913  13.512 -0.0602  0.1835  0.1444
16901W        W34425  15.636  17.057   3.586  0.0824  0.2955 -0.0212
16902W        W34426   9.956   6.495   1.839 -0.2487  0.0866  0.0727
16903W        W34427   1.934  13.972  16.606  0.4133 -0.0771 -0.2389
16904W        W34428   5.169  13.698   2.893  0.1457  0.0462  0.1615
16905W        W34429   3.819  14.209  13.711 -0.0096 -0.1446 -0.2598
16906W        W34430   8.695  11.056  16.993  0.1021 -0.2118 -0.2791
16907W        W34431   1.796  13.231  15.801  0.0655  0.0997 -0.1670
16908W        W34432   4.606   1.118  14.634  0.0004  0.0701  0.3663
16909W        W34433   9.098   6.962   1.917  0.3069 -0.1155  0.2249
16910W        W34434  15.462   6.421   4.413 -0.4888 -0.1042 -0.1230
16911W        W34435  13.540   8.213  13.257 -0.0096  0.1434 -0.0632
16912W        W34436  13.412   5.382   2.278  0.0257  0.2530  0.2698
16913W        W34437   7.191   5.457   5.214 -0.2858 -0.1605  0.1565
16914W        W34438   2.291   8.070  15.456 -0.0145  0.3319  0.0716
16915W        W34439  15.281   2.982  14.297 -0.0204 -0.0511 -0.2775
16916W        W34440  16.234  16.768   4.234  0.5325 -0.0625 -0.0876
16917W        W34441   4.198   9.660  14.605  0.4340  0.1299 -0.0369
16918W        W34442   2.428   4.339   3.038  0.1983  0.0181 -0.0370
16919W        W34443   7.288  14.074  16.690  0.0516  0.1029  0.0789
16920W        W34444   8.979   8.734  15.402  0.0250 -0.0680  0.0310
16921W        W34445   6.200   2.442  15.491 -0.4074 -0.1845  0.0878
16922W        W34446  13.733   0.775   4.863  0.0408  0.0891  0.1007
16923W        W34447   0.164  15.891  16.965 -0.0155 -0.3836 -0.1806
16924W        W34448  14.233  12.578   5.235 -0.0972  0.2041 -0.1352
16925W        W34449  16.897   8.096  13.957 -0.0642 -0.1882  0.0806
16926W        W34450   1.930   3.601  12.564  0.2256  0.1360 -0.0117
16927W        W34451   5.582  13.802  16.079 -0.0398 -0.0813 -0.0919
16928W        W34452   4.449   3.874   5.678 -0.1452 -0.1952  0.0852
16929W        W34453  11.609  14.000  13.002  0.1038  0.1202  0.3486
16930W        W34454   0.483  10.165  13.872  0.1704  0.2826  0.0884
16931W        W34455   4.123   7.826   0.249 -0.4119 -0.0558  0.0822
16932W        W34456   1.998   3.435  16.896 -0.0794  0.0923 -0.0456
16933W        W34457   5.451   4.845   5.102 -0.0233  0.2908 -0.0311
16934W        W34458  14.884  12.065  13.400  0.1917  0.1592  0.2800
16935W        W34459   2.415  15.378  12.614  0.0486 -0.0521 -0.1040
16936W        W34460  17.097   3.190  14.933 -0.1308 -0.1070  0.0860
16937W        W34461  14.592   5.188   3.513  0.2534  0.2064  0.0106
16938W        W34462   0.440  11.707  14.577 -0.2016 -0.0667  0.0352
16939W        W34463  15.114  10.966   3.344 -0.1793  0.1380 -0.0840
16940W        W34464  15.073  13.260  12.673  0.0697  0.1488 -0.2159
16941W        W34465  14.165  10.994   0.011  0.2007  0.0322  0.1923
16942W        W34466   6.913  10.914  16.289 -0.1734  0.0921  0.1526
16943W        W34467   0.577   1.568   0.500  0.1607  0.0029 -0.0703
16944W        W34468   9.016   2.206   1.931  0.2194  0.1424 -0.2461
16945W        W34469   4.106  14.181   3.170 -0.5085 -0.1746  0.2103
16946W        W34470  11.602   3.058  14.883  0.1287 -0.0193 -0.0012
16947W        W34471  12.519   0.375   0.152 -0.3926  0.1204  0.0743
16948W        W34472   5.401   4.389   4.810 -0.0900 -0.0490 -0.4210
16949W        W34473   1.801   5.039   1.260 -0.0866 -0.2765  0.1764
16950W        W34474  14.840  16.767  13.703  0.0869 -0.1099 -0.0980
16951W        W34475   3.405   1.244   3.148 -0.1122 -0.1694 -0.0846
16952W        W34476   0.211   1.059  15.758 -0.1378 -0.2006  0.2245
16953W        W34477   2.336  16.320  17.583 -0.1377 -0.1002  0.2148
16954W        W34478  11.491   9.288  17.264  0.0869  0.0579 -0.0553
16955W        W34479   7.840   7.816   1.646  0.0550 -0.0852 -0.0350
16956W        W34480   5.557  12.993  13.962  0.1086 -0.1870 -0.0227
16957W        W34481  10.967   2.705   4.184 -0.1909  0.1164 -0.0341
16958W        W34482   5.874  10.353  17.285 -0.1324  0.0353 -0.1250
16959W        W34483  17.079   4.323   0.498  0.2259  0.0239  0.0806
16960W        W34484  16.708   9.755  17.592 -0.2522 -0.0500  0.0523
16961W        W34485   3.472  11.335  13.781 -0.0631 -0.0918  0.0519
16962W        W34486   7.610   2.053   3.278  0.0100  0.0364 -0.0078
16963W        W34487  10.629   0.771   0.978  0.2171 -0.1776 -0.0906
16964W        W34488   8.469  15.428   3.013  0.0217 -0.0282  0.2360
16965W        W34489   9.253  13.800   3.033  0.0923 -0.0869  0.0390
16966W        W34490   8.400   1.694   4.103  0.1663  0.2446 -0.0260
16967W        W34491  15.562   5.564   0.599  0.0147  0.3942 -0.2531
16968W        W34492   3.806  14.169   1.270 -0.1625 -0.3590 -0.1046
16969W        W34493   5.335  15.316   0.281  0.2545 -0.1518  0.1817
16970W        W34494  11.346  16.972   5.499 -0.2165  0.0981  0.2056
16971W        W34495   0.482  13.254   4.621 -0.1846  0.2963  0.0478
16972W        W34496   9.884   1.563   1.921  0.1316 -0.0553  0.3410
16973W        W34497   1.543  10.559  13.101  0.2561 -0.0606 -0.1605
16974W        W34498  16.502  14.118   1.914  0.0029  0.0072  0.1961
16975W        W34499   7.508  15.466   5.865  0.1912  0.1870 -0.0505
16976W        W34500  12.751  10.458  12.800  0.1241  0.1014  0.0281
16977W        W34501   9.343   3.484  14.755 -0.2200  0.0809 -0.0388
16978W        W34502   7.400   4.434   3.608 -0.2491 -0.0303 -0.1098
16979W        W34503   3.536  14.281  17.090 -0.0132 -0.1903  0.4681
16980W        W34504   2.675   4.472   1.595  0.2324 -0.1284 -0.1205
16981W        W34505   3.538   7.966   2.646 -0.0465 -0.0344 -0.0559
16982W        W34506   8.900   8.362  16.076  0.1902 -0.0309 -0.0621
16983W        W34507  12.006   7.819   3.491 -0.0747  0.0094 -0.2794
16984W        W34508   3.018   6.122   1.758 -0.1941  0.0316 -0.0621
16985W        W34509   2.758  15.393  17.177 -0.1176  0.2228  0.1024
16986W        W34510   2.380  10.346  12.749  0.1278 -0.0924 -0.0543
16987W        W34511   4.693   3.310   3.130 -0.1051 -0.2283 -0.1801
16988W        W34512   3.004  13.698   6.683  0.1383  0.1555 -0.0755
16989W        W34513   4.684   9.143   2.779 -0.1103  0.1417  0.1146
16990W        W34514   9.502   7.885  17.135  0.1137  0.0403  0.0205
16991W        W34515  11.329  13.573  14.693 -0.0394 -0.3345  0.2241
16992W        W34516   5.848  12.534   2.065  0.1271  0.2418  0.0910
16993W        W34517  11.530   6.921  11.054  0.1644  0.2594  0.2015
16994W        W34518   6.583   9.984   0.458  0.1292 -0.0662 -0.3117
16995W        W34519   4.143   7.226  12.565 -0.1869 -0.1969  0.2514
16996W        W34520   3.024   4.389   2.194  0.3326 -0.1834  0.0641
16997W        W34521   7.436   1.583  13.843  0.0449  0.1529 -0.2100
16998W        W34522   4.630  10.866   3.767 -0.1095  0.0744  0.2953
16999W        W34523  14.145   1.344  13.213 -0.0895 -0.0379 -0.0702
17000W        W34524  11.228   8.947  14.036 -0.1797 -0.0170 -0.1079
17001W        W34525   7.077   0.901  17.330 -0.2752  0.0921  0.0154
17002W        W34526  12.864  11.403  17.352 -0.1626 -0.0779  0.1685
17003W        W34527  13.434   2.306   5.389  0.0028 -0.1289 -0.1428
17004W        W34528   8.541   4.683  13.742 -0.0848  0.2405 -0.0694
17005W        W34529  11.526  13.729   4.652  0.1685 -0.2156 -0.0005
17006W        W34530   6.423  11.159  13.420  0.0354  0.0311  0.2030
17007W        W34531  16.156  11.971  12.887  0.1602 -0.2242  0.2523
17008W        W34532   2.808   9.093   3.827 -0.1829 -0.1938  0.0647
17009W        W34533   1.610  11.485   1.853 -0.3250 -0.0341 -0.2414
17010W        W34534  13.810   8.000   4.153 -0.2770  0.1828  0.3063
17011W        W34535  14.067   1.781   0.276  0.1781 -0.2304  0.1373
17012W        W34536  17.090  10.571  12.616 -0.1620  0.2412 -0.0358
17013W        W34537   7.267  17.143  14.963  0.3792 -0.4522  0.1989
17014W        W34538  12.586   9.165   3.476 -0.1252 -0.0682 -0.1415
17015W        W34539  13.722   0.024   4.331 -0.0351  0.1852 -0.0671
17016W        W34540  11.925   2.424  17.204  0.2838 -0.1822  0.0748
17017W        W34541  15.357  16.107   5.944  0.1410 -0.1345  0.3399
17018W        W34542  11.012   8.967   3.014 -0.2828  0.2608  0.0051
17019W        W34543  16.146   5.936  16.356  0.0960  0.2459  0.3686
17020W        W34544   1.008   0.498   4.205 -0.0468 -0.0820 -0.2719
17021W        W34545  13.674   7.939  15.794 -0.1087 -0.2775  0.0830
17022W        W34546  15.675   2.324  13.087  0.2036  0.0803  0.2360
17023W        W34547   7.658   6.557  15.962 -0.0626  0.0632 -0.2563
17024W        W34548   6.190  13.848   2.668 -0.1577 -0.0804 -0.0794
17025W        W34549   3.430  12.960  13.681  0.1347 -0.2151 -0.2082
17026W        W34550   6.817   3.179  15.997 -0.2205  0.1132 -0.1603
17027W        W34551   9.018   8.057  17.147  0.1258 -0.2705 -0.0151
17028W        W34552   5.880   9.334   0.632  0.0150 -0.0551 -0.1225
17029W        W34553  16.643   9.737  13.439 -0.1695 -0.1351  0.1347
17030W        W34554   5.546   3.427   1.957 -0.0133  0.1180  0.0546
17031W        W34555   1.725  12.534  16.370  0.0288 -0.0498 -0.0322
17032W        W34556   2.169   6.786   2.580 -0.0491  0.0526  0.3161
17033W        W34557   2.429  16.498   4.920 -0.1177  0.0246 -0.1983
17034W        W34558   8.688   2.600   5.227  0.0740 -0.3517 -0.1119
17035W        W34559   0.754   0.595  17.207 -0.0739  0.3212  0.2680
17036W        W34560   1.137   4.694   5.142 -0.0423  0.0352  0.0060
17037W        W34561  13.946   9.587  14.646  0.4111  0.1495 -0.0684
17038W        W34562   7.322  16.274  14.972  0.0748  0.4015  0.2839
17039W        W34563  13.035  13.121   1.780 -0.1396 -0.1076  0.0861
17040W        W34564  15.926   0.149  12.491  0.0919 -0.3132 -0.0287
17041W        W34565   5.896  14.266   2.776 -0.1120 -0.2666 -0.0230
17042W        W34566   1.068  12.085  15.343  0.2282  0.0256  0.0710
17043W        W34567   8.058   5.662  16.400 -0.2515 -0.4007  0.0601
17044W        W34568  10.298   7.731  13.821  0.2093  0.1835 -0.3930
17045W        W34569  14.533   8.400   3.646  0.1669 -0.2164 -0.0366
17046W        W34570  10.173   8.755   2.603  0.1557 -0.1177 -0.1397
17047W        W34571  11.204   8.506   3.015 -0.0448 -0.1559 -0.2762
17048W        W34572  12.058  13.997   0.176 -0.1716 -0.2333 -0.0991
17049W        W34573  12.144  11.770  16.043  0.3030 -0.2125  0.0127
17050W        W34574  10.265  11.937   3.569  0.0921  0.0078  0.0573
17051W        W34575  15.814   6.096   1.951  0.0646 -0.1965  0.0212
17052W        W34576   3.903   4.239  13.938  0.2272 -0.0529  0.0802
17053W        W34577   6.185  10.657   1.487 -0.0320 -0.0421 -0.1636
17054W        W34578   9.931   6.495  14.397 -0.0332 -0.3454  0.1738
17055W        W34579   5.113  11.366   1.952 -0.2367 -0.0842 -0.0011
17056W        W34580   4.232  11.507  17.020 -0.3144 -0.2562  0.1186
17057W        W34581   9.750   9.510   2.809  0.3937 -0.3168 -0.1530
17058W        W34582   2.069   4.093   3.870  0.1376  0.4145  0.2136
17059W        W34583   4.500  13.816  16.231  0.0017 -0.1704 -0.2002
17060W        W34584   8.302   7.818  17.648 -0.0601  0.1912 -0.0771
17061W        W34585   7.979   9.902  14.438 -0.1701 -0.1662 -0.0585
17062W        W34586  15.772  12.665  16.827 -0.0634  0.1708  0.0366
17063W        W34587   9.103   3.727   2.621  0.0403 -0.0964  0.0892
17064W        W34588   3.268   3.424  14.762  0.0201 -0.1037 -0.0161
17065W        W34589   4.515  15.647   4.635 -0.0427 -0.1706  0.3161
17066W        W34590   0.522  15.329  17.076 -0.1990  0.1769 -0.1130
17067W        W34591  16.059   4.739   6.024 -0.0586  0.1439 -0.0509
17068W        W34592   0.591   8.857   1.285 -0.0268 -0.1162 -0.0483
17069W        W34593   9.623  16.091  13.710  0.0532  0.3101  0.1758
17070W        W34594   2.223  14.937  17.555 -0.0689 -0.2768 -0.1172
17071W        W34595  15.883   0.303   3.729 -0.1631 -0.2420 -0.0263
17072W        W34596   8.053  12.657  16.024 -0.0485  0.0535  0.1139
17073W        W34597  10.073  14.654  14.393  0.1121 -0.2641  0.1691
17074W        W34598   8.317   4.585   2.415  0.2196  0.0095  0.0259
17075W        W34599  13.267   8.153   1.766 -0.3240 -0.4742  0.0216
17076W        W34600  12.015  11.655   0.132 -0.0904 -0.1058 -0.1600
17077W        W34601  10.830   2.027   0.458  0.0893 -0.0069 -0.2045
17078W        W34602   0.721   2.340  13.157  0.1544 -0.0721  0.2620
17079W        W34603   2.667  15.619  15.571 -0.0189  0.1694  0.1849
17080W        W34604  14.599   8.228  13.492 -0.1354  0.0433  0.1472
17081W        W34605   6.416  12.621  16.362 -0.0602 -0.0635  0.0678
17082W        W34606  14.582   1.668  17.049 -0.1433  0.0118 -0.0002
17083W        W34607  12.979   7.543  13.683  0.3874 -0.1930 -0.0278
17084W        W34608   8.798   2.713  14.343  0.1533  0.1026 -0.3116
17085W        W34609  17.063   0.733   5.481  0.1374  0.1921  0.2922
17086W        W34610   0.414   3.711  13.770 -0.1204  0.0355  0.1363
17087W        W34611  15.622  13.248  14.349  0.2853 -0.1133  0.3410
17088W        W34612  15.721   7.411   0.405 -0.0847  0.0863  0.2670
17089W        W34613   3.517  16.018   4.653  0.0016  0.0103 -0.0159
17090W        W34614   3.553  15.850   3.674  0.2282 -0.2871 -0.0999
17091W        W34615  13.408   0.686   3.696  0.3143  0.0378 -0.1327
17092W        W34616  15.539  10.782  17.722 -0.2009  0.3367 -0.0426
17093W        W34617   9.817  12.363   0.725  0.2429  0.0317  0.0184
17094W        W34618   5.155  13.920  13.979  0.0398 -0.2190 -0.1254
17095W        W34619  11.612  11.618  16.153  0.0616  0.0154  0.2090
17096W        W34620  12.634   0.508   5.468  0.2638 -0.1460 -0.0840
17097W        W34621  16.183   3.381  15.235  0.1770  0.0069 -0.0674
17098W        W34622   8.898   4.711   4.888  0.0765  0.0092 -0.2320
17099W        W34623   6.539  11.772   4.445 -0.1764  0.1332 -0.0309
17100W        W34624  10.050   9.787  16.395  0.1185  0.1454 -0.0304
17101W        W34625   0.993   9.849  16.567  0.2275 -0.2988  0.1364
17102W        W34626   7.539   9.675  12.277 -0.3386 -0.0496 -0.2323
17103W        W34627  16.126  14.637  16.691 -0.4204 -0.2053 -0.2456
17104W        W34628  10.688   6.437   4.787  0.1404 -0.1242  0.0978
17105W        W34629  12.952   9.162   3.030 -0.2441  0.2452 -0.2222
17106W        W34630   7.504  12.724   0.181  0.0757 -0.1933 -0.0017
17107W        W34631  11.232   4.795  16.693  0.1007  0.0776  0.2738
17108W        W34632   8.056   2.566   1.995  0.3993  0.1163 -0.1089
17109W        W34633  14.131  15.044   2.679 -0.0378 -0.0228 -0.3571
17110W        W34634  11.677   8.482  14.806 -0.1397 -0.0206 -0.1567
17111W        W34635  12.687   7.841   0.576 -0.1917 -0.0804  0.1762
17112W        W34636  15.938   2.985  17.488  0.0061 -0.1531 -0.0638
17113W        W34637  10.631   1.538   4.961 -0.3742 -0.1441  0.4074
17114W        W34638  11.125  15.906   0.975 -0.3820  0.2010  0.0690
17115W        W34639  16.418  11.093   0.240  0.2321  0.1926 -0.2254
17116W        W34640   3.190   8.843   1.201  0.0534 -0.2252 -0.1562
17117W        W34641  15.146   2.576   0.539  0.0851 -0.1490 -0.1173
17118W        W34642  15.114  13.293   2.359  0.1262  0.1728  0.0788
17119W        W34643  16.468   9.049  17.015  0.0222  0.1487  0.1063
17120W        W34644  11.771  14.207   4.774 -0.2215  0.1558 -0.2465
17121W        W34645  15.387   8.341   2.811 -0.3026  0.2413 -0.0557
17122W        W34646  16.859   9.177   4.145  0.0984  0.1958  0.0069
17123W        W34647   3.578   6.005   4.339 -0.1122  0.2305  0.1469
17124W        W34648  17.093   4.012   4.120  0.0241 -0.0541 -0.0870
17125W        W34649  13.412   9.667   3.839  0.0311  0.1372  0.0271
17126W        W34650   2.004  10.204  15.650 -0.1191 -0.0562 -0.3044
17127W        W34651  15.124  10.916  17.154 -0.0497 -0.0372 -0.0526
17128W        W34652  10.541   0.648  17.542  0.0314 -0.1506 -0.4004
17129W        W34653   1.762   8.353   4.963 -0.0412  0.2883  0.0731
17130W        W34654  10.215   0.510  12.762 -0.2240  0.2054 -0.1159
17131W        W34655   4.732   0.284  17.660 -0.0005 -0.0621  0.1519
17132W        W34656   4.501   4.554  12.906  0.3190 -0.0664  0.2589
17133W        W34657   7.778   4.843  14.124  0.0365  0.0416  0.0467
17134W        W34658   8.924   3.290  13.363 -0.0474  0.0830 -0.0283
17135W        W34659   5.240  15.596   1.427 -0.0998 -0.4518  0.0089
17136W        W34660  13.180   0.706   4.151 -0.1711  0.0684 -0.1201
17137W        W34661  11.307   6.744   0.728  0.0746 -0.0574  0.0195
17138W        W34662   5.959  15.862   2.797  0.2727 -0.0620  0.1563
17139W        W34663  14.554   9.953   6.562  0.1285 -0.1674 -0.0286
17140W        W34664   7.446  13.219  16.283  0.3559 -0.3150 -0.1044
17141W        W34665   0.376   6.299   5.642 -0.1040 -0.2570 -0.3235
17142W        W34666   2.890   5.081  14.452 -0.0108 -0.1092 -0.3073
17143W        W34667   2.942   7.873   0.183  0.2398  0.0173  0.2159
17144W        W34668  13.746   2.199   5.789 -0.0012  0.1814  0.3073
17145W        W34669   3.202   3.580  13.023  0.0315 -0.0588 -0.0625
17146W        W34670  10.497  14.170  13.435  0.0630 -0.0239  0.1383
17147W        W34671   8.134   9.084  15.112  0.2846 -0.0892 -0.0281
17148W        W34672  11.578  11.708  15.639  0.0182  0.0349  0.1813
17149W        W34673  15.207   9.744   4.695  0.0067  0.0642 -0.1229
17150W        W34674   7.183   6.372   2.891  0.2553 -0.2080 -0.0576
17151W        W34675  16.086   8.194   5.338 -0.0276  0.0633  0.2539
17152W        W34676   8.416   3.306   4.783 -0.0903 -0.1014 -0.0760
17153W        W34677   6.807   8.495  16.207 -0.3288  0.0030  0.2038
17154W        W34678   0.347  10.067   2.196  0.2036  0.0771 -0.2335
17155W        W34679  14.947   9.190  16.367 -0.0275 -0.1561  0.2890
17156W        W34680   7.223  17.021   5.329 -0.1111 -0.1546  0.0388
17157W        W34681  16.300  11.765  15.653 -0.0682 -0.0846  0.0784
17158W        W34682   4.601   6.933  13.139 -0.0537 -0.3552  0.0306
17159W        W34683   1.576   2.253   3.038 -0.0187  0.0974  0.2418
17160W        W34684  16.814   1.387  16.695 -0.1763 -0.3045  0.1296
17161W        W34685   3.457   6.036  14.354  0.2661 -0.1032 -0.2078
17162W        W34686   2.433   2.988   5.512  0.0143  0.0811  0.0084
17163W        W34687   7.801  13.434   3.999 -0.2338  0.1658 -0.0367
17164W        W34688   9.116  15.599   2.293 -0.0186  0.1138 -0.0165
17165W        W34689  13.479   3.320  13.350  0.0672 -0.3652 -0.0514
17166W        W34690   7.881   9.037  14.617 -0.1221 -0.0471 -0.1035
17167W        W34691  13.126   2.618   5.633 -0.0821 -0.2108  0.1386
17168W        W34692   6.599  15.982   0.311  0.1901 -0.1883  0.1321
17169W        W34693  11.851   0.603   2.259 -0.2454  0.2445  0.2914
17170W        W34694   3.723   4.565   3.790  0.1709  0.2971  0.0271
17171W        W34695   0.291   7.457  14.192  0.2000 -0.1201 -0.2922
17172W        W34696   0.014  16.993  11.805 -0.0040 -0.2708  0.1820
17173W        W34697   6.869  12.677   2.230 -0.1379  0.1137 -0.1285
17174W        W34698   7.444  10.502  17.402  0.0397  0.0767 -0.0606
17175W        W34699   1.421  10.037  17.370 -0.4396  0.0234 -0.1330
17176W        W34700  11.498  14.060   1.502 -0.2145  0.2594 -0.3334
17177W        W34701   0.295  15.855   3.951  0.0375  0.1532 -0.3093
17178W        W34702  15.845  16.967   4.014 -0.0459  0.2071  0.1431
17179W        W34703   6.090   9.547   5.203 -0.0943 -0.1809 -0.1059
17180W        W34704  12.632  11.760  15.975 -0.1995 -0.3236 -0.1151
17181W        W34705   4.446   2.409  13.907 -0.0720 -0.1683  0.1515
17182W        W34706  11.802   4.335   1.884  0.1232  0.0734 -0.0350
17183W        W34707   7.457  14.723  14.298  0.0651  0.1405 -0.3659
17184W        W34708   7.608   3.040   0.186 -0.2239 -0.0078  0.0640
17185W        W34709   4.002   6.123   2.017  0.1129  0.1188  0.1230
17186W        W34710   4.256   8.020  16.291 -0.1576 -0.3091  0.2144
17187W        W34711   8.023  15.483  16.277 -0.0540  0.2892  0.0623
17188W        W34712   4.449   1.436   4.852 -0.1196 -0.1403  0.0731
17189W        W34713  12.107  15.864  14.682 -0.0359  0.2490 -0.0194
17190W        W34714   8.534   1.622  16.140  0.0365  0.0236  0.0389
17191W        W34715   9.017  16.668   2.564 -0.3329  0.7039  0.0090
17192W        W34716   4.836   2.214   1.946  0.2391  0.5804  0.1146
17193W        W34717   4.401  12.795  13.555 -0.1836 -0.2135 -0.2330
17194W        W34718   1.760  14.820   4.791 -0.1220  0.2171  0.1203
17195W        W34719  14.498   6.523  12.732 -0.3730  0.0190  0.0543
17196W        W34720  13.020   1.318  12.837  0.0788  0.0152  0.2451
17197W        W34721   1.539  14.878   0.946  0.0358 -0.1577 -0.2086
17198W        W34722  12.867   1.602   1.595 -0.2611  0.1059  0.0200
17199W        W34723   1.992   7.699   3.012  0.1982  0.0879 -0.0495
17200W        W34724   0.369   1.221   5.016  0.0853 -0.0517  0.3389
17201W        W34725  12.170   6.644  17.092 -0.0128  0.1085 -0.0035
17202W        W34726   9.084   2.721  15.426 -0.1615  0.1071  0.0504
17203W        W34727   1.040  12.650   2.385 -0.0618  0.1182  0.0307
17204W        W34728   7.770  16.201  13.745 -0.2179  0.2210 -0.3027
17205W        W34729   9.101   9.925   1.664  0.1787 -0.1597  0.0752
17206W        W34730   1.393   4.454  13.690  0.1220 -0.0574 -0.1920
17207W        W34731   3.823   3.779  17.352 -0.2868  0.0409  0.0129
17208W        W34732   9.916  10.274  16.079 -0.1202 -0.0513 -0.0544
17209W        W34733   2.978   2.339   2.667 -0.0198  0.0686 -0.0587
17210W        W34734   2.075   1.328   3.218  0.3174  0.1285  0.2567
17211W        W34735   8.640  10.298   1.069  0.0632 -0.1904  0.1633
17212W        W34736   3.735   9.171  11.243 -0.0669 -0.0030 -0.2482
17213W        W34737  15.895   3.036   5.009  0.0405 -0.0233 -0.1478
17214W        W34738  16.493   2.765   0.964  0.0672  0.3859 -0.0275
17215W        W34739   4.306  16.057  16.201  0.2903  0.0871 -0.0970
17216W        W34740   7.270   8.907   5.395 -0.0281  0.1651 -0.2767
17217W        W34741   9.700  12.493  17.232  0.0397 -0.1284  0.0010
17218W        W34742  12.021   8.151  12.579 -0.0388 -0.0235 -0.0873
17219W        W34743   5.954   5.777  11.446 -0.0651  0.3158  0.0853
17220W        W34744   6.874  12.919  14.548 -0.3744  0.2843 -0.0427
17221W        W34745   0.488   9.101  15.157  0.4958 -0.0901  0.1699
17222W        W34746   2.466  12.332   2.371  0.1709 -0.0446 -0.1696
17223W        W34747   4.461   5.397   0.522  0.2044  0.1973  0.0014
17224W        W34748   2.644  16.536   5.666 -0.1581  0.0262  0.1354
17225W        W34749   6.999   9.522   4.417 -0.1103 -0.0678  0.5210
17226W        W34750   1.509   8.063   1.108  0.0865  0.1129 -0.1231
17227W        W34751  17.123   3.301  13.627  0.1354  0.0891 -0.0571
17228W        W34752   6.828  14.111  13.233 -0.0354 -0.1919 -0.2404
17229W        W34753  15.172   8.567   1.841  0.2371  0.2552  0.2438
17230W        W34754  10.616   2.329  17.438  0.1634 -0.0603 -0.0133
17231W        W34755   7.832  15.396  15.024 -0.1762  0.2272  0.0040
17232W        W34756   5.877  16.414   0.566 -0.0373  0.1041  0.0731
17233W        W34757  12.115  13.091   1.334 -0.1016 -0.0925  0.0938
17234W        W34758   6.798   9.857   2.491  0.0580 -0.0814  0.0838
17235W        W34759   9.241   4.119  13.115  0.0720  0.1164 -0.0511
17236W        W34760  15.839   1.943   5.973 -0.0462 -0.2186  0.2635
17237W        W34761   0.314   1.393  16.134 -0.0227  0.0132  0.0104
17238W        W34762   6.858   4.995  14.274 -0.2604 -0.2528  0.1244
17239W        W34763   1.316   4.292  15.520 -0.3591 -0.2434 -0.2648
17240W        W34764  15.243   3.010  15.162  0.3136 -0.2711 -0.2016
17241W        W34765  10.098   6.670  13.829 -0.3745  0.1317  0.1101
17242W        W34766  15.914  15.816  16.662  0.0468 -0.1824 -0.0011
17243W        W34767   5.381   1.067  12.884 -0.0129  0.0063  0.0155
17244W        W34768   8.025   6.734   0.895 -0.2758  0.0460  0.1391
17245W        W34769   9.652   5.991  14.282  0.0213 -0.0800  0.3843
17246W        W34770  11.097   4.883   4.094  0.0642  0.2156 -0.1773
17247W        W34771   6.041   2.809   3.260 -0.2364 -0.0745  0.1507
17248W        W34772   2.923   5.791   4.868  0.0131 -0.2015 -0.0127
17249W        W34773   5.591   7.890   3.499 -0.2000 -0.0689 -0.0340
17250W        W34774   5.781  10.319   4.978  0.0960 -0.0678 -0.6142
17251W        W34775   2.484  15.137   1.512  0.3120 -0.2760 -0.2277
17252W        W34776  11.769   3.271  12.518 -0.1580 -0.1533 -0.0744
17253W        W34777   5.692   2.719  14.319 -0.1799  0.3547 -0.1005
17254W        W34778   0.793   8.533   0.199 -0.0166  0.0810 -0.2750
17255W        W34779   8.023   2.420  15.319 -0.1714 -0.0525  0.2414
17256W        W34780   8.326  14.036   2.680 -0.0905 -0.3305 -0.1211
17257W        W34781   1.781   8.200   2.608 -0.0435 -0.0978 -0.0285
17258W        W34782   7.687  16.814  16.650 -0.1458 -0.2810 -0.2730
17259W        W34783  15.919  10.944   2.646  0.2468 -0.2539  0.0013
17260W        W34784   6.000   8.115  14.442 -0.0428 -0.0473  0.1395
17261W        W34785   1.716   8.764  14.834  0.0894  0.0899 -0.1116
17262W        W34786   8.901   6.182  13.112 -0.1945  0.2498 -0.2042
17263W        W34787   2.376   7.665  15.180 -0.1093  0.4102  0.1719
17264W        W34788  11.707  12.207   5.052 -0.1866 -0.0932 -0.0053
17265W        W34789  13.674   5.081   5.154 -0.1736 -0.2953 -0.1783
17266W        W34790  11.580   4.957   0.205  0.1015 -0.0799  0.0356
17267W        W34791   6.120  12.052  13.671 -0.0255 -0.0427 -0.1686
17268W        W34792  16.219   0.291   1.875 -0.0028 -0.1389  0.2745
17269W        W34793   1.508   1.505  16.303 -0.2705  0.2727  0.2339
17270W        W34794   1.297   3.329   3.930  0.1517  0.2983 -0.1617
17271W        W34795   9.575   0.614  16.447  0.0057 -0.2272 -0.4308
17272W        W34796   2.985   8.583  13.063 -0.3453 -0.2333 -0.2710
17273W        W34797   4.310   3.938  13.994  0.1247 -0.1458  0.0329
17274W        W34798  16.936   1.120   3.028  0.2708  0.1181 -0.0637
17275W        W34799   8.824  13.838   0.314  0.1997 -0.2782  0.0095
17276W        W34800  11.994  16.500  16.452 -0.0493  0.0387 -0.0447
17277W        W34801   3.534   0.630  17.333  0.1605 -0.0853 -0.1937
17278W        W34802   5.981   5.746  14.553  0.1093  0.0416  0.1926
17279W        W34803  16.913   9.727  16.090  0.0453 -0.0510  0.1468
17280W        W34804   0.425   3.943  16.519  0.1340 -0.1479  0.1559
17281W        W34805   7.298   6.265  12.969  0.1378  0.0425 -0.0094
17282W        W34806   6.623  12.526  11.240 -0.0932 -0.1971 -0.1528
17283W        W34807   4.611   1.145  17.489  0.1284  0.3205  0.3132
17284W        W34808   3.800   9.005   0.243 -0.2460  0.1075  0.0169
17285W        W34809  15.832  15.246   3.931 -0.1350  0.0804 -0.2001
17286W        W34810   5.546   6.946   1.883 -0.0705 -0.2374  0.0397
17287W        W34811  11.866  12.706   3.710 -0.0232 -0.3175  0.1991
17288W        W34812  15.612   1.583   5.666  0.1985  0.3001 -0.1240
17289W        W34813   5.135   0.943   1.701 -0.0483  0.0633 -0.0243
17290W        W34814  10.370   1.430  17.087 -0.0551  0.0868 -0.1817
17291W        W34815   1.316   9.080   4.351 -0.1554  0.1682 -0.1727
17292W        W34816   7.972  14.223   0.705 -0.1485 -0.2108  0.0838
17293W        W34817   3.745  12.148  13.435 -0.2832 -0.1571  0.1865
17294W        W34818  14.507  12.288  14.371  0.1272 -0.2113  0.1606
17295W        W34819  15.854  14.774   0.677  0.0063 -0.1336  0.1282
17296W        W34820   6.965  13.436   1.657  0.0953 -0.0606  0.1302
17297W        W34821  10.791  11.623  16.398  0.0298  0.2119  0.1061
17298W        W34822   9.595   8.460   3.770 -0.0377 -0.1754 -0.0088
17299W        W34823   1.866  14.173  15.266 -0.0287 -0.0730  0.0552
17300W        W34824   0.343  15.725  12.787  0.0486 -0.3748 -0.2260
17301W        W34825  15.804   5.776   5.697  0.0299 -0.1710  0.1144
17302W        W34826  13.425  10.994   2.630  0.1714 -0.0244  0.0758
17303W        W34827   7.255   1.649   4.135 -0.2704  0.3032 -0.0617
17304W        W34828   0.373   4.061   3.852  0.0722  0.2219  0.0526
17305W        W34829  16.492  11.138   5.888  0.1314 -0.0957  0.0344
17306W        W34830   3.795   4.792  16.233 -0.3877  0.1032  0.2593
17307W        W34831   3.370  14.328   1.138  0.2018  0.1290  0.1085
17308W        W34832  10.942   4.985   0.894  0.2874 -0.1542 -0.2133
17309W        W34833   2.370   1.908   6.084 -0.2286 -0.0457  0.0362
17310W        W34834  10.038   6.599   3.119  0.1420 -0.2011  0.1803
17311W        W34835   5.423   2.173  14.254 -0.0682  0.1361  0.1952
17312W        W34836   3.960  13.263   4.690 -0.0206  0.1264  0.2479
17313W        W34837  16.249  14.829  13.708  0.0901  0.1885  0.1419
17314W        W34838  10.568   0.840  12.956  0.0205  0.1599  0.2366
17315W        W34839   5.216  16.792   2.736 -0.1607  0.1907 -0.0595
17316W        W34840   0.881  14.740  17.443 -0.1242  0.1875 -0.2128
17317W        W34841   4.238  11.224  16.225 -0.0332  0.0143  0.0522
17318W        W34842  14.514   9.694  14.670 -0.0111  0.2821 -0.1936
17319W        W34843   3.187   4.076  17.473 -0.4183 -0.0255 -0.1112
17320W        W34844   9.100   4.858   3.538 -0.0989  0.0069  0.1356
17321W        W34845   1.462  11.410  17.460  0.2284  0.0113  0.1138
17322W        W34846   9.654   4.849   3.513  0.3091  0.1371  0.0090
17323W        W34847  11.799   6.935   1.753  0.1223 -0.2593  0.2573
17324W        W34848  14.411  16.628  13.447 -0.1686 -0.2512  0.0366
17325W        W34849   2.474   1.567   2.900  0.1430 -0.0007  0.2043
17326W        W34850  10.268  10.242  14.511  0.2473  0.1263  0.0029
17327W        W34851   8.412   6.700   1.213 -0.2877 -0.2116 -0.1498
17328W        W34852  10.228   0.606   1.788  0.0633  0.0004  0.0675
17329W        W34853   0.100   9.806   3.449  0.4391 -0.1582 -0.2485
17330W        W34854   9.026   1.047  12.025  0.0949 -0.2057  0.0503
17331W        W34855   5.777   8.368  17.557  0.1772 -0.3589  0.2179
17332W        W34856   8.136  16.922  14.927 -0.0242 -0.0885 -0.0340
17333W        W34857   5.880   2.118  15.712  0.0389  0.0015  0.1122
17334W        W34858   4.233  11.362  17.505 -0.2119 -0.0532 -0.0819
17335W        W34859   6.093  15.266  14.687  0.1386 -0.0631  0.0106
17336W        W34860   3.704  11.268  17.598  0.0169  0.0393 -0.3880
17337W        W34861  14.779  16.402   1.974  0.3820 -0.1614 -0.2017
17338W        W34862   3.744   7.300  13.794 -0.4585  0.0924  0.0783
17339W        W34863  14.622   0.237  12.209  0.0068 -0.0859  0.1857
17340W        W34864  15.322   3.658  14.324  0.2273  0.2671 -0.2677
17341W        W34865   3.698   6.901  12.785 -0.1206 -0.0942 -0.2786
17342W        W34866   3.599  14.487  12.305 -0.1997  0.1676  0.0883
17343W        W34867   1.405   5.829   1.479 -0.2082 -0.0869 -0.0995
17344W        W34868  16.066   7.291   3.633 -0.1907 -0.1895  0.0902
17345W        W34869   2.372  15.833   0.005 -0.0776  0.0816 -0.1694
17346W        W34870   1.969  10.750   0.280 -0.2213  0.1044  0.0714
17347W        W34871   7.587   4.304   2.617 -0.0766 -0.1552 -0.2287
17348W        W34872   0.086   2.483  14.110 -0.0770  0.1341 -0.2039
17349W        W34873   5.440   1.833  13.393  0.1206 -0.1634  0.1459
17350W        W34874   0.453   4.185   3.350  0.1391  0.2072 -0.1428
17351W        W34875  12.413   1.601   4.988 -0.2777  0.2812  0.2527
17352W        W34876   0.458  11.550  16.485  0.2138  0.1294 -0.1017
17353W        W34877   8.079   1.356   1.676  0.0478 -0.1673 -0.2249
17354W        W34878   7.168   4.330  15.528  0.3677 -0.2376 -0.2892
17355W        W34879   0.168   9.071   1.110  0.1741 -0.0047 -0.3663
17356W        W34880   4.413   8.815  16.783 -0.0866  0.0199 -0.1217
17357W        W34881   7.111   9.472  13.109  0.1504  0.0346 -0.1816
17358W        W34882   6.606   5.644  12.849  0.0063  0.2704 -0.0182
17359W        W34883   4.381  10.485  11.416 -0.1460  0.0060  0.2844
17360W        W34884   3.454   7.632  15.906  0.0186 -0.2631  0.1681
17361W        W34885  15.663  15.206  17.447 -0.3214 -0.0499  0.2338
17362W        W34886   0.199   7.818   0.781  0.2384  0.1137 -0.0356
17363W        W34887  13.516   9.389   4.744 -0.3824 -0.0603  0.3222
17364W        W34888   0.471   1.022  13.186 -0.1135  0.0689  0.0360
17365W        W34889   3.451   6.617   2.240  0.2953 -0.0397 -0.0823
17366W        W34890   6.586   3.458  17.200  0.0449 -0.1234 -0.0484
17367W        W34891  10.489   6.302   1.966 -0.1386  0.1944  0.3477
17368W        W34892  13.188   6.735   1.933 -0.0352  0.2055 -0.3492
17369W        W34893  10.345   4.182   3.892  0.1544 -0.1093 -0.0349
17370W        W34894  15.275  15.934  13.972  0.2796  0.1450 -0.1019
17371W        W34895  13.599  12.977   3.285  0.2480  0.3340 -0.1322
17372W        W34896  15.686  16.321  13.930 -0.1860 -0.1446  0.2966
17373W        W34897   8.532  10.346   2.456  0.1978 -0.0575 -0.0896
17374W        W34898   9.339   2.081   4.855  0.0901  0.0615 -0.0179
17375W        W34899   3.132  16.745  12.067  0.1339 -0.1421  0.4937
17376W        W34900  14.560   2.949  14.326  0.0303 -0.1458  0.1175
17377W        W34901   5.806   0.470  12.750  0.2292  0.3160 -0.0010
17378W        W34902   8.121  10.833  13.936  0.3313  0.5960  0.1957
17379W        W34903  11.311   9.026   4.472  0.2224  0.1489 -0.2588
17380W        W34904   7.119   8.254  12.011 -0.1181 -0.1614 -0.1590
17381W        W34905   7.885  15.802   0.528 -0.0682 -0.2221 -0.0896
17382W        W34906  12.041   9.144   0.940  0.1485  0.4536 -0.2078
17383W        W34907   3.620  10.649  13.079  0.0041 -0.0527  0.0967
17384W        W34908  11.742  15.761  17.657 -0.2539 -0.0258  0.1350
17385W        W34909   9.314   9.211   1.448 -0.1701 -0.3875  0.1644
17386W        W34910  16.720  10.701   5.132  0.0660 -0.1174 -0.1366
17387W        W34911  12.739   2.702   4.880  0.1260  0.1159  0.3076
17388W        W34912   8.108  15.081   3.231  0.1836 -0.0981  0.1036
17389W        W34913   8.139  10.730   0.832  0.2028 -0.2615 -0.1414
17390W        W34914   3.055   7.710   5.334 -0.1418  0.0262 -0.2478
17391W        W34915   9.855   0.177   3.938  0.0538 -0.1172 -0.1185
17392W        W34916   8.272  15.793   2.704 -0.0008  0.2764 -0.1858
17393W        W34917  13.850  16.765  16.275 -0.1442 -0.0491 -0.2447
17394W        W34918  13.708   2.190  13.264  0.0653 -0.2013 -0.2711
17395W        W34919  10.569   9.231  15.177  0.0615 -0.0503  0.3880
17396W        W34920  14.724   5.711  14.412 -0.3309 -0.0003  0.0110
17397W        W34921   5.362  11.713   2.185  0.1424 -0.2066 -0.1646
17398W        W34922  13.426   7.635  17.396  0.2421 -0.1317  0.0167
17399W        W34923   5.764   9.942   3.308 -0.2761 -0.1904 -0.0035
17400W        W34924   6.811   4.275  17.023  0.1640 -0.0686 -0.1139
17401W        W34925  13.287  14.509  12.595 -0.2267 -0.0173  0.2802
17402W        W34926   4.784  14.957  17.563 -0.2316 -0.0836 -0.0699
17403W        W34927  14.714  15.607  12.370 -0.3410 -0.0281  0.4567
17404W        W34928  16.656   4.096   0.899 -0.2899 -0.1367 -0.1611
17405W        W34929   4.683  13.708  13.278  0.0842 -0.2622 -0.1341
17406W        W34930  12.129   1.135  15.949  0.1781 -0.1392  0.0869
17407W        W34931   9.159   5.389   1.031 -0.0735 -0.0181 -0.0081
17408W        W34932  16.787   5.773   3.637 -0.1276 -0.0727 -0.0248
17409W        W34933   6.453   7.495  16.141  0.1645 -0.1188  0.1701
17410W        W34934  16.261   7.116   5.956 -0.2173 -0.1350 -0.3790
17411W        W34935   7.897  10.144   1.206  0.1248  0.0140 -0.2555
17412W        W34936  16.864   2.301   2.385  0.2694 -0.1564  0.1743
17413W        W34937   0.697   5.051   4.009 -0.0922 -0.0716 -0.1447
17414W        W34938  13.286  11.954   3.009  0.3094 -0.0735  0.1348
17415W        W34939  15.686   2.306  16.427 -0.1916  0.1531  0.1676
17416W        W34940   3.315  11.842  13.619 -0.1496 -0.4353  0.1793
17417W        W34941  11.173  12.537  13.390  0.0137  0.1269  0.1057
17418W        W34942  11.081   6.642  14.560  0.0751 -0.0559 -0.2142
17419W        W34943  16.061  11.451  17.348  0.0428 -0.3628 -0.2011
17420W        W34944   0.818  12.239   4.098  0.1090  0.3232  0.1432
17421W        W34945   6.285   1.494   1.228 -0.1118  0.1806  0.1308
17422W        W34946   3.758   5.110   4.675  0.3574  0.0585 -0.0971
17423W        W34947   1.592  15.231   2.518 -0.0674 -0.0587  0.1699
17424W        W34948  14.615   1.840  13.607 -0.0486 -0.1551  0.1888
17425W        W34949   1.225  11.821  14.888 -0.1654  0.2206  0.4135
17426W        W34950   4.626  14.681   2.579  0.0012 -0.0078  0.0888
17427W        W34951   3.235   3.895  14.582 -0.0238 -0.1464  0.3754
17428W        W34952   2.453   2.404   4.669 -0.1692  0.0288 -0.0746
17429W        W34953   3.340  15.614   1.237  0.0689  0.3672 -0.0665
17430W        W34954  15.735   9.105   4.167  0.1664  0.0834  0.1223
17431W        W34955   8.200  10.242  16.162 -0.3707  0.1911  0.0422
17432W        W34956   6.645   8.221  17.080  0.1554  0.1133 -0.1518
17433W        W34957   7.979   0.119   2.772 -0.1026 -0.2586  0.1536
17434W        W34958  10.020   9.125   0.714 -0.1073  0.1828  0.2210
17435W        W34959   1.124   4.255   1.462  0.1914  0.1482  0.0000
17436W        W34960   1.909  16.147  15.584 -0.0568  0.2088 -0.0137
17437W        W34961   5.511  10.907  16.665  0.2113  0.0354  0.0447
17438W        W34962   0.715   5.065  17.191  0.1022  0.0583 -0.2120
17439W        W34963  14.769  16.537   4.980  0.1824 -0.1913  0.0643
17440W        W34964   3.329  15.404   5.505 -0.0697  0.0768  0.1944
17441W        W34965  13.668   1.985   2.306  0.4442  0.4596  0.0904
17442W        W34966  14.776  13.581   1.649  0.0109 -0.2730 -0.1553
17443W        W34967  10.955   2.210   4.047  0.1041  0.1733 -0.0265
17444W        W34968   7.400   1.182   2.861 -0.1684  0.1655  0.1505
17445W        W34969   9.278   9.287   3.399  0.1507 -0.0334  0.2015
17446W        W34970  11.122  16.375   3.665  0.2745  0.0919  0.1525
17447W        W34971  10.635   1.874  14.413 -0.1623 -0.2614  0.0493
17448W        W34972   6.321   1.450  13.738 -0.0897 -0.1769 -0.2436
17449W        W34973   3.885   6.406   0.285  0.0407 -0.1186 -0.1092
17450W        W34974  16.182  11.240  12.630  0.2812  0.1436  0.2911
17451W        W34975   7.545   2.584  13.086  0.0582 -0.0643  0.5305
17452W        W34976   8.736  16.399  13.041 -0.2310  0.2955  0.2933
17453W        W34977  15.517  16.814  13.942 -0.2084 -0.0523 -0.1325
17454W        W34978   1.021   6.607  14.450  0.0909 -0.4868  0.1442
17455W        W34979   6.577  10.364   1.252  0.0140 -0.0959  0.0085
17456W        W34980  16.864   4.878   3.496 -0.0031 -0.0779 -0.0355
17457W        W34981  13.817   1.233  17.388  0.0614 -0.0769  0.0750
17458W        W34982   6.796   0.132  11.455  0.0653  0.2189  0.1369
17459W        W34983   2.576   0.738   4.257 -0.1596  0.1401 -0.0558
17460W        W34984   9.256   1.735   5.991  0.3324  0.1821  0.0221
17461W        W34985   1.724   9.776  15.781  0.0074  0.0439  0.0288
17462W        W34986   7.821   4.162  15.578 -0.1458  0.3495  0.2071
17463W        W34987   9.215   6.999  17.393  0.1734  0.0456  0.1869
17464W        W34988   5.991   8.598  14.557 -0.3200 -0.3973  0.1857
17465W        W34989  15.323  11.430   2.073 -0.0894  0.2240  0.1737
17466W        W34990   6.421   8.742  17.275  0.1411 -0.1392  0.0711
17467W        W34991  15.941   1.355   3.104  0.0175  0.1548 -0.2728
17468W        W34992   5.718  12.558  14.248 -0.0609 -0.0617 -0.2584
17469W        W34993   8.217  10.805  17.236  0.1032 -0.0275 -0.0609
17470W        W34994   4.135  16.996   2.463 -0.2260 -0.0101  0.4030
17471W        W34995   8.368   7.750   0.750  0.2794  0.2915 -0.0910
17472W        W34996   4.795  10.921  12.611 -0.1317 -0.0006  0.2286
17473W        W34997  14.726   2.210   1.484  0.0919  0.2600  0.3104
17474W        W34998   0.888  14.362  14.195  0.3146  0.1994 -0.1264
17475W        W34999  12.209   1.633  15.164 -0.1389  0.1631  0.1059
17476W        W35000  10.943   8.832  15.176  0.3437 -0.4957 -0.0240
17477W        W35001  10.179  11.392   2.643 -0.2013  0.1590  0.0770
17478W        W35002  12.761   9.311   0.401  0.3325  0.0435  0.0112
17479W        W35003   8.675   5.380  15.889 -0.3146 -0.5113  0.0683
17480W        W35004  16.266  13.934   2.453 -0.1875  0.0061 -0.1210
17481W        W35005  14.821  16.774   3.862 -0.2486  0.3625 -0.1775
17482W        W35006   6.937  12.016   5.752  0.1595 -0.3416  0.1488
17483W        W35007  16.116   5.326  16.107 -0.0089  0.0182  0.0905
17484W        W35008  10.301   9.677  17.222  0.0732 -0.1257 -0.0595
17485W        W35009   2.927   4.457  15.011  0.0710  0.2232  0.1792
17486W        W35010   7.424  13.489  14.980 -0.1037 -0.2136  0.1646
17487W        W35011   0.597   8.132  17.688 -0.2056 -0.0117  0.2305
17488W        W35012  12.971   9.606  17.692  0.0102  0.1559 -0.1678
17489W        W35013   2.148  16.927  15.701 -0.0411 -0.0006  0.0179
17490W        W35014   2.505   2.760   3.726  0.0176 -0.2270 -0.0016
17491W        W35015  11.000   5.770   4.468  0.2675 -0.0494 -0.3140
17492W        W35016   4.062  14.700  15.744  0.2077 -0.0522  0.2888
17493W        W35017   5.939   0.804  12.295  0.0327 -0.0411  0.0258
17494W        W35018  14.341  12.130  14.851 -0.0099 -0.1411  0.3131
17495W        W35019  14.361  15.746   6.005 -0.1052  0.2352  0.0937
17496W        W35020   3.391   2.823   1.949  0.0167  0.1377  0.0268
17497W        W35021  14.643  16.895   4.652 -0.2681  0.2156  0.1682
17498W        W35022   1.182   8.011   0.729 -0.2450 -0.0151 -0.0370
17499W        W35023   1.037   4.763  12.650 -0.1259 -0.0743  0.3700
17500W        W35024   8.794   5.942  17.707  0.1229  0.2304  0.0272
17501W        W35025   1.883  13.258   5.138 -0.1468  0.2686 -0.1408
17502W        W35026   1.552   7.046  12.476  0.0361 -0.3095 -0.1173
17503W        W35027   6.456   1.960   5.093 -0.0468 -0.1509 -0.0758
17504W        W35028  10.616   6.370   4.135  0.3135 -0.0619  0.1638
17505W        W35029   1.397  14.177   0.320  0.1104  0.0037 -0.3457
17506W        W35030   3.415  14.113   4.822  0.0849 -0.0668 -0.3090
17507W        W35031   1.752  13.277   4.001  0.1896 -0.0633 -0.0363
17508W        W35032  15.168   9.192   2.913 -0.4913  0.2814 -0.2223
17509W        W35033  11.450  12.188  17.516  0.3264 -0.1632  0.3294
17510W        W35034   9.336  10.840  13.049  0.2355  0.0623 -0.1100
17511W        W35035   9.498   0.336   4.267  0.1388 -0.0119 -0.3446
17512W        W35036  16.274  13.810  14.798 -0.4354  0.1620 -0.2582
17513W        W35037   2.543  16.473   1.139 -0.1375 -0.2587  0.0334
17514W        W35038  11.163   9.457  16.386 -0.1410 -0.0387 -0.1010
17515W        W35039   2.871   9.207  15.679 -0.0538  0.0789  0.1707
17516W        W35040  11.846   6.209  15.082 -0.1085 -0.0323 -0.1445
17517W        W35041  13.443  13.069  16.996 -0.2767 -0.0979 -0.0146
17518W        W35042   6.677   9.645  16.488 -0.0211 -0.1871 -0.1369
17519W        W35043   2.302   3.119  16.380  0.1062  0.0430  0.0121
17520W        W35044   1.315  13.762   2.761 -0.1769 -0.2504 -0.0537
17521W        W35045   3.789  14.950   4.152 -0.0843 -0.2489 -0.2693
17522W        W35046  11.049   0.763  13.667 -0.0442 -0.0625  0.0202
17523W        W35047   3.264   7.505  17.654  0.0065  0.3359  0.0370
17524W        W35048   4.661   6.391   4.770 -0.1143  0.0986 -0.3420
17525W        W35049  15.705  11.371  12.566  0.0132  0.2051  0.2454
17526W        W35050   4.052   3.328   4.222  0.1185  0.2713  0.1593
17527W        W35051  10.483  14.602   1.356 -0.0486  0.1320 -0.0347
17528W        W35052  13.681   8.463  13.673  0.0678 -0.1701 -0.3964
17529W        W35053   6.229  15.556  14.227 -0.2143 -0.1839  0.1847
17530W        W35054   5.546  10.838  13.655 -0.0427 -0.1425 -0.0917
17531W        W35055  10.488   2.785   5.135  0.1646  0.0276  0.1327
17532W        W35056  15.258  10.969  13.953  0.0585 -0.1569  0.0863
17533W        W35057  16.731   7.875  15.264  0.0662  0.0681  0.2544
17534W        W35058   0.929   0.072   3.949  0.1206  0.0268  0.3481
17535W        W35059  16.882   3.794  14.425  0.1521 -0.2369  0.2803
17536W        W35060   1.160  11.996   4.641  0.1320  0.1205  0.1091
17537W        W35061  14.734   4.071   1.452  0.1081 -0.1178 -0.1874
17538W        W35062   6.076  14.043  16.018  0.1175 -0.0878 -0.3027
17539W        W35063   8.499  10.397  17.121  0.2881  0.0616  0.0335
17540W        W35064   3.824   2.207   5.624  0.0482 -0.1913  0.0966
17541W        W35065  11.622  10.463  13.315  0.0855  0.2755 -0.0474
17542W        W35066   2.408  11.234  17.667  0.1822 -0.2658 -0.0164
17543W        W35067   3.113   2.803   4.194 -0.1788 -0.1513 -0.0184
17544W        W35068  10.527   6.658  15.768 -0.1792  0.2826 -0.0141
17545W        W35069  13.820  12.231  17.129  0.0509 -0.0305  0.1334
17546W        W35070   9.110   2.254   3.654 -0.0589 -0.0225  0.1714
17547W        W35071  11.683   5.835  14.155 -0.0373 -0.0233 -0.2945
17548W        W35072  15.388   7.951  16.350  0.0074  0.0373  0.0969
17549W        W35073   4.810  13.924  16.645 -0.3241 -0.0321  0.2430
17550W        W35074  15.202  11.862   4.463 -0.0158 -0.1422 -0.1423
17551W        W35075   8.646   1.632   2.746  0.1436 -0.1567  0.0614
17552W        W35076   5.693   7.901  14.736  0.0342  0.0110  0.0887
17553W        W35077  12.271  12.989  12.009  0.0654  0.2408 -0.0861
17554W        W35078   0.438  16.120   4.361 -0.1188  0.1336 -0.1394
17555W        W35079   4.667   3.758  16.480  0.0814  0.1785  0.1590
17556W        W35080   8.661   8.784  13.870 -0.1854  0.0083  0.2896
17557W        W35081   5.418   1.597   2.977  0.0102 -0.0111 -0.2833
17558W        W35082  15.144  14.333   0.495 -0.1532 -0.0849  0.4344
17559W        W35083   8.571  15.912   4.370 -0.4039 -0.2161  0.1270
17560W        W35084  16.867  10.717   3.414 -0.0956 -0.3009 -0.1650
17561W        W35085   7.494   1.640   0.336  0.0536 -0.0450 -0.2123
17562W        W35086   3.536   9.364   1.093 -0.1050 -0.2269  0.2643
17563W        W35087  16.667   7.281   2.158  0.0614 -0.0334  0.2936
17564W        W35088   9.919   3.043   5.542  0.1245  0.2193 -0.0363
17565W        W35089   0.437  12.233  13.059  0.1130  0.0511 -0.1658
17566W        W35090  11.693   0.847   1.793 -0.1152  0.1567  0.4337
17567W        W35091  14.989  10.699  15.873  0.1111 -0.0871  0.1526
17568W        W35092   2.871  12.150  13.365 -0.0848 -0.0060 -0.0793
17569W        W35093   9.788   1.660   4.079 -0.3803  0.0228  0.0560
17570W        W35094   3.984   1.511  12.142 -0.0868 -0.0561  0.0721
17571W        W35095   9.986   1.492   3.613  0.1013  0.0515 -0.1434
17572W        W35096  13.557   7.472   3.631  0.0979  0.0111 -0.2622
17573W        W35097  12.163  12.728  15.483 -0.0829  0.0675  0.3222
17574W        W35098   2.049   8.352  16.414  0.0727 -0.0580  0.2062
17575W        W35099  16.936  14.627  14.132 -0.0608  0.0842  0.1524
17576W        W35100   5.438   2.801   0.255 -0.2342 -0.1582 -0.1647
17577W        W35101  12.082  10.831  16.475 -0.0755  0.0138  0.1508
17578W        W35102  14.007  16.063   5.919  0.2813 -0.0210 -0.0508
17579W        W35103   6.361   3.917  13.930 -0.0045 -0.1120  0.1867
17580W        W35104  17.144   9.765  16.596 -0.0870  0.1620 -0.0771
17581W        W35105  13.692   6.790  15.263  0.1738  0.0913  0.1291
17582W        W35106   4.905  10.131  12.595 -0.1782 -0.1270  0.4800
17583W        W35107  16.152   9.095   0.949 -0.0799  0.2238 -0.1283
17584W        W35108   4.021  12.473   4.667  0.0760  0.3632 -0.1007
17585W        W35109   9.265   4.170   2.610 -0.3101 -0.3151 -0.0296
17586W        W35110   1.939   0.338  15.810  0.0629  0.1505  0.1721
17587W        W35111   6.456  15.289  16.487 -0.0568  0.4118 -0.1092
17588W        W35112   0.875  11.813  16.665 -0.1790  0.1390  0.0298
17589W        W35113  16.209  15.157  17.503 -0.0098  0.3501  0.2400
17590W        W35114   9.963  13.807   0.895 -0.1126 -0.1222  0.0750
17591W        W35115   8.683   8.612   5.066  0.2287 -0.1723 -0.1921
17592W        W35116   6.107   7.607   0.431 -0.2617  0.1241 -0.1018
17593W        W35117  10.927  11.060   0.580 -0.2616 -0.1900  0.0612
17594W        W35118   8.658   7.742  17.300 -0.3015  0.0714  0.0549
17595W        W35119  14.967  11.329  12.568  0.0756 -0.0571  0.2715
17596W        W35120  15.981   6.429   4.235 -0.0423  0.0941 -0.1598
17597W        W35121   9.833   0.061  13.462  0.2104 -0.1330  0.2332
17598W        W35122   4.677  13.215  17.334 -0.1689 -0.1076  0.2570
17599W        W35123   1.372   0.815   4.929 -0.0747 -0.1594 -0.1206
17600W        W35124  14.815   5.798  16.284 -0.0629  0.0288 -0.1025
17601W        W35125  14.572   7.271  17.687 -0.0449 -0.3174  0.0264
17602W        W35126  15.883  12.099   1.280 -0.0278 -0.2189 -0.2635
17603W        W35127   3.424  12.382  17.250 -0.0981 -0.1613  0.2761
17604W        W35128   2.495   6.408   5.592 -0.1851 -0.1884  0.0407
17605W        W35129   5.281   2.323  13.646  0.0645  0.1372  0.1438
17606W        W35130  16.395   6.803   2.045 -0.2070  0.1484 -0.0829
17607W        W35131  11.697  10.935   3.313  0.0896 -0.1514 -0.0103
17608W        W35132   1.917   0.472  12.984 -0.0620 -0.2164 -0.0306
17609W        W35133   2.834   9.367  12.748 -0.1141 -0.2143 -0.1287
17610W        W35134   9.422   8.550  15.225  0.4156  0.0188 -0.0179
17611W        W35135   2.330  14.143   4.894 -0.1784  0.2970  0.0614
17612W        W35136   1.960  16.457  17.211  0.1594 -0.0402  0.0605
17613W        W35137   7.695   8.408   2.300  0.0027 -0.2988  0.0781
17614W        W35138   3.649  13.162  14.685  0.0277 -0.0177  0.0192
17615W        W35139  15.778   5.773   0.147  0.2189 -0.0138  0.0163
17616W        W35140   1.732  16.663  16.841  0.1574 -0.0390  0.4895
17617W        W35141  15.635  16.143  13.312  0.4091 -0.0302  0.1696
17618W        W35142  16.105  15.742   0.140  0.1171 -0.3422 -0.0753
17619W        W35143   3.521   9.426   0.489 -0.1764 -0.0953  0.0731
17620W        W35144  15.009  14.602  15.415  0.1109 -0.1308  0.3921
17621W        W35145  14.579  10.990  12.617  0.1647 -0.1754 -0.0887
17622W        W35146  16.381   3.788   5.688  0.1254  0.0749  0.1189
17623W        W35147  13.227   8.584  15.529 -0.2295  0.1441 -0.0515
17624W        W35148   0.635   3.471   4.650  0.3082 -0.2080  0.2452
17625W        W35149  14.279   2.612   0.876  0.1022  0.2692 -0.1199
17626W        W35150   3.171   4.875  14.959 -0.0202 -0.0118  0.1490
17627W        W35151  15.435   5.671  15.628 -0.0160  0.0195  0.0061
17628W        W35152   2.838  15.268  16.010 -0.4512 -0.0235 -0.5136
17629W        W35153   0.990   1.892   5.860  0.1146  0.2997 -0.1483
17630W        W35154  15.006  10.626   2.635 -0.0991 -0.0163 -0.1583
17631W        W35155  13.945  16.100   5.380  0.3769 -0.0785 -0.0875
17632W        W35156  14.822   1.451   5.347  0.2553  0.1377  0.0680
17633W        W35157   7.550   3.551  15.526  0.0777  0.1193 -0.0754
17634W        W35158   9.195   3.709   3.176  0.0901  0.2303 -0.0352
17635W        W35159   7.091   9.445  12.512  0.1846 -0.1047  0.1079
17636W        W35160   1.732  13.714   0.298 -0.0585  0.0391  0.0602
17637W        W35161   2.166  16.338  14.988  0.3263  0.1271 -0.0567
17638W        W35162  12.409  10.771  12.112 -0.2045 -0.2267  0.2790
17639W        W35163  12.523  15.759  14.950  0.0183  0.1501  0.1424
17640W        W35164   0.343   2.895  16.386  0.1372 -0.0341 -0.1469
17641W        W35165   5.325  11.516   4.232 -0.0162 -0.2586  0.0152
17642W        W35166   4.630  10.487  17.241  0.1453 -0.0801 -0.1888
17643W        W35167   9.724  13.572   2.876  0.0428  0.2371  0.0670
17644W        W35168  13.536   1.125   0.468 -0.2768  0.0093 -0.2674
17645W        W35169   2.095   3.677   3.567 -0.1585  0.0042  0.4445
17646W        W35170  15.729   3.914   3.725 -0.0487 -0.1175  0.0028
17647W        W35171  17.140  11.419  16.608  0.0187  0.2049  0.0134
17648W        W35172  12.729   3.367   4.034 -0.1017  0.0589 -0.0165
17649W        W35173   8.695  14.009   4.843  0.0108 -0.2369  0.0354
17650W        W35174   5.085  16.393  16.142  0.1647 -0.0811 -0.3590
17651W        W35175   7.438  15.442  14.648  0.3036  0.0867  0.1497
17652W        W35176  10.270   2.899   0.362 -0.0638  0.0496 -0.0686
17653W        W35177  16.823   8.493   1.426 -0.1861  0.1996  0.2155
17654W        W35178  17.065   8.425  16.552  0.0760 -0.2787 -0.0569
17655W        W35179   7.188  13.228  12.801 -0.1060  0.1246  0.1525
17656W        W35180  14.504   6.393   1.415 -0.0966 -0.0762 -0.1065
17657W        W35181  10.454   2.389   3.850 -0.0677 -0.0190 -0.2446
17658W        W35182  14.078  12.804  16.253  0.2984 -0.2067  0.1768
17659W        W35183   1.909  14.987  13.181  0.0181 -0.2761 -0.4550
17660W        W35184   7.706  13.208  15.365 -0.1363  0.0660 -0.0340
17661W        W35185   2.569   0.663   1.231 -0.0743  0.1774 -0.1017
17662W        W35186  11.390   9.718   3.694  0.1803  0.1542  0.2323
17663W        W35187   6.538  14.096  14.297 -0.1231  0.0873 -0.0602
17664W        W35188  15.640   4.939  14.896 -0.0433  0.0260 -0.2253
17665W        W35189   1.384  12.271   5.053  0.0283 -0.2150  0.2066
17666W        W35190  12.408   3.092  14.082  0.0332  0.2325 -0.0799
17667W        W35191   0.091   8.445  11.793 -0.1622 -0.1315 -0.2242
17668W        W35192   4.480   6.112  13.468 -0.1717 -0.1879  0.1945
17669W        W35193   2.385   3.874  15.836  0.0766 -0.0678 -0.3015
17670W        W35194   9.686  14.775  15.804  0.0713  0.1962  0.2556
17671W        W35195  12.310  14.542   0.229 -0.0467  0.2864  0.0643
17672W        W35196  13.082  12.211   0.586  0.1605  0.2070  0.1561
17673W        W35197   3.344  14.051  12.572 -0.1419 -0.0823  0.2103
17674W        W35198  15.945  12.523  14.187  0.2231  0.3801  0.1678
17675W        W35199  16.037   1.168  15.092 -0.0024 -0.0028  0.1731
17676W        W35200  16.878   9.634   4.307 -0.2039 -0.2460 -0.2686
17677W        W35201  10.214  14.246  17.693  0.0471 -0.0710 -0.1490
17678W        W35202   2.320   0.990   3.521 -0.1088  0.3774  0.3547
17679W        W35203  16.226   2.071   3.777 -0.1380  0.2231 -0.1505
17680W        W35204   2.425   8.768  13.655  0.1975  0.0872 -0.2139
17681W        W35205   4.419   5.770  14.423  0.2624  0.0381 -0.0379
17682W        W35206  15.809   8.717  12.718 -0.1071 -0.1501  0.1951
17683W        W35207   6.452   1.029   1.444 -0.3364  0.1830  0.1499
17684W        W35208   8.047   5.789  13.418 -0.3752  0.1317  0.0305
17685W        W35209   3.161  12.054   3.152  0.3738  0.0343 -0.1920
17686W        W35210   0.036   7.629   0.059  0.2667 -0.1012 -0.0792
17687W        W35211  13.333  16.913   5.751 -0.0195 -0.0052  0.1864
17688W        W35212   3.031  16.144  14.350 -0.0753 -0.0496 -0.0948
17689W        W35213  12.283  10.135   3.411  0.0567 -0.2679  0.2569
17690W        W35214  13.343   1.544  16.309 -0.2520  0.0170 -0.0456
17691W        W35215   6.937   2.608   4.732  0.2750 -0.0013 -0.1182
17692W        W35216   0.337   2.974  14.951 -0.0585 -0.1354 -0.2703
17693W        W35217   5.068   2.572  16.537 -0.3028 -0.0269 -0.1356
17694W        W35218   1.944  12.139   2.281 -0.1064 -0.1914  0.1020
17695W        W35219   7.807   5.088   0.942 -0.2539  0.1109  0.0784
17696W        W35220  10.210   8.808   6.232  0.0191  0.0742 -0.0862
17697W        W35221  15.272  16.136   6.525 -0.2703 -0.2064 -0.1948
17698W        W35222  16.528  16.066   0.133 -0.2146  0.0355 -0.1430
17699W        W35223   5.874  11.290  13.431  0.1807 -0.1154 -0.0019
17700W        W35224   6.154  10.636  12.629 -0.4159  0.2538  0.0433
17701W        W35225   4.283   8.582   1.984  0.0306 -0.0258  0.0613
17702W        W35226  10.869   2.055   0.977 -0.4043  0.0420 -0.1190
17703W        W35227   8.232  12.216   4.871  0.0026  0.0787 -0.0531
17704W        W35228   8.362  11.190  15.458  0.0689  0.3196  0.1690
17705W        W35229  12.641   0.219   1.223 -0.0983  0.1050  0.0882
17706W        W35230   1.560   4.267   2.466 -0.3882  0.3091 -0.2747
17707W        W35231  14.750   3.865  12.231 -0.0632  0.1215  0.0481
17708W        W35232  11.369  15.514  13.423  0.0481 -0.1501 -0.2273
17709W        W35233   5.559   1.003   5.206  0.0634  0.3749 -0.0208
17710W        W35234   6.942   0.141   3.616 -0.0017  0.0299 -0.0421
17711W        W35235  10.198   6.115  14.977 -0.3087 -0.1894 -0.2601
17712W        W35236   6.940   6.025  12.685 -0.0611  0.0523  0.1010
17713W        W35237   3.489  13.465   5.493 -0.1869 -0.0281 -0.0177
17714W        W35238   5.468   3.307  14.767 -0.0623 -0.0553 -0.0714
17715W        W35239   5.596   8.302   2.084 -0.2409 -0.2753  0.0709
17716W        W35240   5.076   8.689  16.160 -0.3219 -0.1029 -0.0355
17717W        W35241   0.626   8.912  12.387 -0.4132 -0.2606  0.4088
17718W        W35242   1.590  11.727   4.595  0.0418 -0.1692 -0.1445
17719W        W35243  10.634   5.415  13.305 -0.1682 -0.0795  0.0175
17720W        W35244   3.731   4.604  14.252 -0.1934 -0.2728 -0.0101
17721W        W35245   9.975   9.651  17.579 -0.1892  0.0780 -0.0016
17722W        W35246  10.249   6.831  13.331  0.0062 -0.0704 -0.2850
17723W        W35247  10.089   2.370   1.522 -0.0040  0.2162 -0.0911
17724W        W35248  12.203   8.414  14.471 -0.1970  0.0421 -0.0085
17725W        W35249   1.841   6.105  13.363  0.1276  0.1640 -0.1038
17726W        W35250   4.894   6.783  12.273  0.1067 -0.0824 -0.0164
17727W        W35251   0.523   5.288   2.362  0.0382  0.0232 -0.0668
17728W        W35252   1.733   3.626   0.400  0.1627 -0.2904  0.3653
17729W        W35253   1.868  14.404   1.044 -0.1380 -0.0746  0.0353
17730W        W35254  15.526  15.047  12.507  0.1164  0.0047  0.0939
17731W        W35255  11.357   5.073   3.663 -0.0268 -0.1306 -0.1001
17732W        W35256   0.905   8.428  14.467  0.1937  0.0874  0.0379
17733W        W35257  15.308   3.559   3.833  0.2297 -0.0260 -0.1307
17734W        W35258   7.542   1.803   3.701  0.0951 -0.0171 -0.1755
17735W        W35259  15.854   3.416   0.829  0.0998 -0.0023  0.2324
17736W        W35260   3.871  11.626  17.356 -0.2525 -0.3680 -0.0657
17737W        W35261   0.896  15.105   3.744 -0.1416 -0.0456 -0.4690
17738W        W35262   7.348  10.089  15.948  0.3309 -0.0043 -0.3323
17739W        W35263   8.433   9.203   3.957  0.1101  0.0510 -0.0720
17740W        W35264   1.030   6.665  15.722 -0.2664 -0.1305  0.1906
17741W        W35265  13.474   8.461   5.342  0.2323  0.0860 -0.4267
17742W        W35266   0.893  10.404  16.261 -0.1328  0.0657 -0.3246
17743W        W35267   6.978  10.388  16.578  0.1782 -0.2606 -0.3164
17744W        W35268   6.730  16.043   1.338 -0.1243 -0.0520  0.1441
17745W        W35269   0.572  10.035   1.522  0.0971  0.3567 -0.0376
17746W        W35270   7.382   8.733   4.845 -0.1074 -0.0681  0.0438
17747W        W35271  11.860   9.841  15.715 -0.2647  0.3101 -0.0982
17748W        W35272  11.110   3.243  16.960 -0.0439  0.0384 -0.0862
17749W        W35273   5.663  11.779  14.683 -0.0802 -0.1637 -0.1404
17750W        W35274   7.368   4.144  16.357  0.2364 -0.1112 -0.4268
17751W        W35275  14.093   7.689   5.098  0.0751  0.1859  0.0021
17752W        W35276   1.589  15.784  17.548 -0.1640  0.0683  0.0476
17753W        W35277  15.321  17.079  15.258  0.0421  0.0139 -0.1776
17754W        W35278   4.913   9.644  14.793  0.0736  0.1886  0.0207
17755W        W35279   8.086  13.074  13.923 -0.1570 -0.0128 -0.0768
17756W        W35280   8.221   3.053   4.411 -0.0509  0.2413 -0.1758
17757W        W35281   3.813  16.792  12.962 -0.3277 -0.3434 -0.1111
17758W        W35282  13.523  11.610   3.333 -0.2433  0.2088  0.1626
17759W        W35283   3.437   7.852  15.454 -0.1187  0.1885 -0.2757
17760W        W35284  12.515   2.472  16.910  0.1367  0.3204 -0.0562
17761W        W35285  12.985   6.794   2.958 -0.0519 -0.0249  0.0915
17762W        W35286   1.348   8.635   3.422  0.3001 -0.0415 -0.2129
17763W        W35287   3.960   2.169   2.078 -0.0543 -0.0119 -0.0174
17764W        W35288   0.310   5.120  14.148 -0.2214 -0.2517 -0.0314
17765W        W35289   1.765   7.319  17.309 -0.0621 -0.1281  0.1198
17766W        W35290  13.397  13.088  12.256 -0.1420 -0.0050 -0.0914
17767W        W35291   8.759  16.287   2.275 -0.2656 -0.1296 -0.0731
17768W        W35292  10.824   2.744   3.660 -0.0058 -0.2223  0.2709
17769W        W35293   8.864   2.060  14.288  0.1305  0.2893 -0.0171
17770W        W35294   2.537   1.113   0.963  0.1392  0.2714  0.0343
17771W        W35295  11.621   7.392   2.537  0.0650 -0.1954  0.2471
17772W        W35296   6.960  11.709  14.769  0.2026  0.4065  0.0262
17773W        W35297  11.253  14.606   3.672 -0.1715  0.1610  0.2943
17774W        W35298   2.115   5.217   3.129 -0.2109 -0.3001  0.1821
17775W        W35299   3.197  14.852  13.237  0.1564  0.0305  0.0416
17776W        W35300  13.058   1.764   0.234  0.1224  0.0320  0.0100
17777W        W35301   0.908   6.680  17.080  0.0707 -0.1998 -0.4320
17778W        W35302   1.319  10.561  12.470  0.0371 -0.2968  0.2793
17779W        W35303   6.182   5.424   2.137  0.2187 -0.0098 -0.0835
17780W        W35304   3.658   3.771  15.850  0.1740 -0.0537  0.0830
17781W        W35305  17.100  13.265  13.126 -0.0941 -0.0961 -0.2467
17782W        W35306  10.974  13.200   4.072  0.3572  0.0425  0.1265
17783W        W35307   9.158   3.425  17.570  0.0396 -0.0576  0.1520
17784W        W35308  16.176   3.734  13.455 -0.3662  0.1228 -0.0244
17785W        W35309   9.170   7.608   2.515  0.1990 -0.0126  0.1136
17786W        W35310   1.685  13.507  12.582  0.0082 -0.0927 -0.4708
17787W        W35311  12.238   6.829  14.166 -0.1073 -0.2404  0.1784
17788W        W35312   5.867  10.649   0.765 -0.1736  0.1393 -0.0023
17789W        W35313   5.007   3.644  14.621 -0.3556  0.2317 -0.1745
17790W        W35314  13.775   5.013   4.609 -0.2136 -0.0576 -0.0473
17791W        W35315  16.699  14.779   0.828  0.4081  0.2694 -0.3661
17792W        W35316  15.037  14.359   3.512 -0.2011 -0.0464  0.0976
17793W        W35317  11.056   9.431   0.861  0.2586  0.0482 -0.0290
17794W        W35318   3.546   0.847  16.895 -0.0367  0.0099 -0.1282
17795W        W35319  14.938   0.819  14.186  0.0299 -0.0792 -0.1401
17796W        W35320  16.438  16.527   3.750  0.0896 -0.1136 -0.0429
17797W        W35321   6.095   2.036   4.414  0.0442 -0.1414  0.2532
17798W        W35322   6.009  16.701  14.932 -0.0104  0.1803  0.0685
17799W        W35323   4.635   9.768  16.335  0.2646 -0.1666 -0.0108
17800W        W35324   2.809   4.867   4.764  0.1304  0.1452  0.0371
17801W        W35325   8.880   3.596  12.536  0.1713 -0.3299  0.1330
17802W        W35326  11.032   6.232   0.097  0.0071 -0.2428  0.1263
17803W        W35327   9.329   8.124  13.800  0.1343  0.3336  0.0508
17804W        W35328   5.582   5.528  17.033  0.0956  0.0095  0.0051
17805W        W35329  10.807   5.358  15.713  0.2262  0.0629 -0.1877
17806W        W35330   8.657  11.659   2.882  0.1639  0.1906 -0.3300
17807W        W35331   3.982   9.092  12.165 -0.1361 -0.0552 -0.0829
17808W        W35332   0.860  12.678  12.392  0.1830  0.0786  0.0915
17809W        W35333   7.301  16.779   0.774 -0.1366  0.3086  0.1666
17810W        W35334   9.625   3.014   5.013 -0.1932 -0.0757 -0.2057
17811W        W35335  11.204   9.418   5.369  0.1642 -0.2163 -0.0697
17812W        W35336   3.148  13.190   5.187 -0.1380  0.2878  0.1266
17813W        W35337  10.801   7.235   1.011  0.1457 -0.2457 -0.0129
17814W        W35338   5.066   9.654  17.164  0.0135  0.2533  0.0866
17815W        W35339   6.614  16.699  16.959 -0.2278  0.2535 -0.1544
17816W        W35340   5.671  14.828   3.539  0.1064  0.0276 -0.1251
17817W        W35341  15.385  11.583   0.624 -0.1548  0.2279  0.4021
17818W        W35342  11.971  14.036   5.570  0.0300  0.2527 -0.1484
17819W        W35343   0.880   6.435   5.144  0.2275 -0.0278  0.0689
17820W        W35344   1.562   7.866   5.608  0.0278  0.1009  0.0080
17821W        W35345   8.734   5.024  14.129  0.0142 -0.0707  0.1652
17822W        W35346  16.711   1.162  13.321 -0.2101  0.0901 -0.0014
17823W        W35347   7.312   5.624   0.200 -0.3008  0.0078 -0.0038
17824W        W35348   2.190   7.209  15.619  0.1144  0.2740  0.0233
17825W        W35349   5.822  16.014  14.184 -0.0475 -0.0676  0.0758
17826W        W35350   0.185   7.065  17.369  0.1234  0.1394  0.0280
17827W        W35351  12.151   6.572  12.544  0.2814  0.0263 -0.0393
17828W        W35352   5.265   1.814  12.407  0.0080  0.0052  0.0962
17829W        W35353   6.841  13.129   0.673 -0.0341  0.2258 -0.3518
17830W        W35354   4.676   0.710   0.158  0.2375  0.1667  0.0137
17831W        W35355   2.527   1.192  13.713 -0.0433  0.1313 -0.0999
17832W        W35356  12.115   1.677   2.522  0.2439 -0.7174 -0.0602
17833W        W35357   6.065  10.255  16.326 -0.0128  0.0980  0.1337
17834W        W35358  16.290  11.594   3.351 -0.2974  0.0719  0.0825
17835W        W35359  15.553  15.416  15.859  0.5675  0.1345  0.0840
17836W        W35360  10.559   6.160   3.677 -0.1057 -0.2894  0.0244
17837W        W35361  16.483   1.375   3.244 -0.3161  0.0441 -0.3333
17838W        W35362   2.375  16.435   3.429  0.1679  0.0808  0.0108
17839W        W35363  14.077   2.895  13.591 -0.0486 -0.0172 -0.0656
17840W        W35364   8.525  17.139   4.846 -0.3106 -0.0045  0.0579
17841W        W35365   4.342  13.269  16.261  0.3775 -0.2637  0.2414
17842W        W35366  14.229  12.446  16.748 -0.1158 -0.2414  0.0543
17843W        W35367   5.705   7.340  11.550 -0.0850  0.4134 -0.0000
17844W        W35368  13.852   3.334  15.231  0.2930 -0.1068  0.2475
17845W        W35369  10.796  15.270   3.964 -0.1802  0.2775  0.0408
17846W        W35370   2.572  13.321   0.662  0.0005  0.0237  0.0137
17847W        W35371   2.387   1.609   5.618  0.1224 -0.3231 -0.3475
17848W        W35372  14.401   2.157   1.133  0.2396 -0.1112  0.1848
17849W        W35373   1.718   6.955   5.449  0.1124  0.0593 -0.2614
17850W        W35374   3.571  16.694  15.722 -0.0343 -0.2756 -0.0366
17851W        W35375   8.856   6.982   4.552  0.0387  0.2234 -0.2952
17852W        W35376  11.533  17.069   2.181  0.3298  0.2431  0.1179
17853W        W35377  13.024  13.212   5.382  0.0764 -0.0730 -0.0354
17854W        W35378  13.360   7.012  13.056 -0.0949 -0.0832 -0.0991
17855W        W35379  15.025  14.643   2.476  0.2310 -0.0724  0.1438
17856W        W35380  10.260   2.267   5.266 -0.2217  0.2710 -0.1132
17857W        W35381   5.644   1.935  16.599 -0.1187  0.1986  0.0403
17858W        W35382  16.901   5.725  14.395 -0.2406  0.0093 -0.0786
17859W        W35383   1.108   1.872   4.038  0.1788 -0.2482 -0.0825
17860W        W35384   2.888   2.573   3.366  0.2502  0.1744  0.3944
17861W        W35385  11.048  14.297   2.195 -0.0593 -0.2671  0.1224
17862W        W35386   7.152   4.104   0.570 -0.1258  0.0658 -0.1515
17863W        W35387  10.669   1.248   4.381  0.0154  0.2142 -0.2194
17864W        W35388   5.373   4.386   5.875  0.1285  0.2689 -0.2604
17865W        W35389   8.374  12.747  14.328 -0.0209  0.0882 -0.0433
17866W        W35390  13.537  16.977  13.089  0.0167 -0.3513  0.0059
17867W        W35391   8.443  16.396  13.509 -0.2245  0.0239 -0.1234
17868W        W35392   7.305   2.897   1.656  0.0884 -0.0593 -0.1092
17869W        W35393   9.029  10.458   4.261 -0.0960 -0.2424  0.2947
17870W        W35394  11.266   9.659   0.448  0.1004  0.0887  0.3418
17871W        W35395   6.886   5.668  15.409 -0.3086 -0.0691 -0.0550
17872W        W35396   1.206  11.851  14.053 -0.1062 -0.2464  0.2218
17873W        W35397   3.146  11.189   4.069 -0.4062 -0.0984  0.0962
17874W        W35398  12.706   5.890   5.516  0.0562 -0.1852  0.4354
17875W        W35399   8.192   4.376  16.864  0.0857  0.1893  0.0017
17876W        W35400  14.625   4.378  14.829  0.5602 -0.0137  0.3104
17877W        W35401   0.860  16.330   0.911 -0.1429 -0.1797  0.1371
17878W        W35402   8.387  16.012   0.607 -0.0483 -0.1247 -0.1796
17879W        W35403  15.556  13.151   5.264 -0.1729  0.0205  0.0924
17880W        W35404  16.771   9.440  14.941 -0.2413  0.0091 -0.0520
17881W        W35405  16.343   1.573  13.433  0.1934 -0.1855  0.1567
17882W        W35406   3.773   1.643  16.877 -0.1580  0.1239  0.1631
17883W        W35407   5.528   2.668  13.438  0.0521  0.2550  0.0897
17884W        W35408  12.900  16.383  13.604 -0.1467  0.1891  0.1456
17885W        W35409   3.427  12.932   4.053  0.0395 -0.0290 -0.3782
17886W        W35410   7.033  11.532  15.662 -0.1908 -0.0229 -0.0923
17887W        W35411   3.768  12.009   4.700  0.2244  0.2463 -0.0100
17888W        W35412  10.138   1.509   0.533 -0.0066 -0.1153  0.3569
17889W        W35413  11.039  10.533   0.770  0.3470 -0.0764 -0.1297
17890W        W35414   0.792  13.528   2.856  0.1188 -0.0701 -0.0681
17891W        W35415  13.894  10.992   3.383  0.1161  0.0766 -0.2730
17892W        W35416   2.042  14.458  14.807 -0.1547 -0.1066 -0.0290
17893W        W35417  10.411  15.254   4.239  0.0350  0.1574  0.1681
17894W        W35418  11.221   3.117  14.552 -0.0793  0.0953  0.0199
17895W        W35419   7.038  15.017   4.361  0.1899  0.1523 -0.1583
17896W        W35420   5.362  10.328   1.740 -0.0927 -0.1404  0.0377
17897W        W35421  16.752  11.335   5.278  0.0810  0.3518 -0.2491
17898W        W35422   3.592  14.477  13.367 -0.0519  0.2362 -0.1140
17899W        W35423   8.239   3.432  15.991  0.2050  0.2525 -0.0190
17900W        W35424   0.231  16.614  15.253 -0.0419  0.0195 -0.1910
17901W        W35425   8.844  12.435   3.137  0.0122 -0.0515 -0.1725
17902W        W35426  12.940  11.362  12.401 -0.0089  0.0108  0.1644
17903W        W35427  14.449  10.278  11.138  0.1216 -0.2936  0.0015
17904W        W35428   6.102   8.080   0.087  0.1808  0.0073  0.2933
17905W        W35429  14.088   0.411  12.556 -0.3281 -0.0184 -0.4254
17906W        W35430   5.825  11.313   5.900 -0.1611 -0.0449  0.1653
17907W        W35431  13.005  13.892   2.380 -0.0701  0.0941 -0.3286
17908W        W35432   1.028  10.152  13.880 -0.1199  0.0776  0.0340
17909W        W35433  13.440  12.609   4.195  0.0880  0.0969  0.0681
17910W        W35434   9.082  11.374   5.237 -0.1177  0.1799 -0.0015
17911W        W35435  12.670  12.511  15.296  0.1889 -0.0964  0.2113
17912W        W35436   4.683   5.145  16.847 -0.0903  0.1124  0.1345
17913W        W35437   2.458   9.504   0.299 -0.2449 -0.0121  0.1154
17914W        W35438   2.367   6.722   1.389  0.3330 -0.2555  0.2252
17915W        W35439   8.933   7.870   1.727 -0.0318 -0.2875  0.0775
17916W        W35440   4.666  13.759  13.808 -0.0007 -0.0535  0.0968
17917W        W35441   0.465   7.346  17.728  0.2207  0.0666  0.0567
17918W        W35442   9.386   7.179  14.863 -0.1093  0.0268 -0.2852
17919W        W35443   4.935   7.749   1.188  0.1274 -0.0536 -0.1945
17920W        W35444   5.756   0.685   3.440  0.3110  0.1171 -0.1461
17921W        W35445   9.268   1.179  15.461  0.0968 -0.1306  0.1791
17922W        W35446   6.390   0.853  14.457  0.2702 -0.1916 -0.2319
17923W        W35447   5.859   5.206  12.929  0.0637  0.0912 -0.0926
17924W        W35448   5.040   9.601   3.770  0.2156 -0.1890  0.3170
17925W        W35449   1.243  13.435   4.100 -0.3505 -0.2331 -0.1368
17926W        W35450  11.683   4.085   4.568 -0.3320  0.1416 -0.2605
17927W        W35451  13.118   0.663  13.543  0.1666 -0.1447 -0.0765
17928W        W35452  15.860  14.276   3.033  0.1930  0.1455  0.0417
17929W        W35453  15.552   2.296   0.733  0.2553  0.0399  0.2768
17930W        W35454   8.940   4.662   3.044 -0.5970 -0.1206 -0.2145
17931W        W35455   4.710  16.441  13.131 -0.1994 -0.1404  0.0268
17932W        W35456   3.600   8.793  11.658  0.0314  0.0822 -0.0613
17933W        W35457   1.863   3.043  13.202 -0.4014 -0.0003 -0.2195
17934W        W35458  16.529  12.526   4.770 -0.2932  0.0966  0.1437
17935W        W35459   3.606  13.705  12.869  0.2438 -0.0717  0.0180
17936W        W35460  16.653  12.638  14.474  0.2109 -0.0919  0.1227
17937W        W35461  13.061  16.109  16.681  0.0085  0.0298 -0.0759
17938W        W35462   1.559  13.546   2.332 -0.0648 -0.1679  0.0538
17939W        W35463  15.026  13.719  15.932  0.1687 -0.0072  0.3974
17940W        W35464   1.802   5.710   3.826  0.0465 -0.2792 -0.0576
17941W        W35465   9.561  15.375   2.430 -0.1659  0.0269 -0.2647
17942W        W35466   8.198  16.617  15.381 -0.1359  0.1354 -0.4731
17943W        W35467  13.422  12.530  14.046 -0.1352 -0.3029 -0.1323
17944W        W35468   2.398   5.600  17.530  0.2935  0.0967 -0.1365
17945W        W35469  16.850  15.559   2.909  0.2758 -0.0490 -0.1476
17946W        W35470   1.299   5.390  15.235 -0.2767  0.0541 -0.0325
17947W        W35471   3.865  12.289  15.140  0.1877 -0.0389  0.0755
17948W        W35472   7.584   8.883   0.038  0.0514 -0.0374  0.0791
17949W        W35473  14.870  15.409  15.391 -0.2242 -0.1139  0.0578
17950W        W35474  16.910   4.477   2.174 -0.0082 -0.1174 -0.3203
17951W        W35475  14.003  11.945  16.302  0.1574 -0.1618  0.2343
17952W        W35476   9.169  12.063  12.737 -0.0194 -0.2034  0.0473
17953W        W35477   1.378   9.807   1.440  0.2972  0.1880  0.2124
17954W        W35478  17.033  16.069   5.966  0.0767  0.3549  0.1338
17955W        W35479  15.167  11.145   4.862 -0.1776  0.3476  0.2520
17956W        W35480   9.014  10.293   3.758  0.4171 -0.0127  0.2419
17957W        W35481  14.564   8.044   3.242 -0.0442  0.0007  0.2110
17958W        W35482  14.784   1.347  16.751  0.1465 -0.0544 -0.1949
17959W        W35483   9.913   8.236   0.728  0.0971  0.2105  0.2583
17960W        W35484  16.500   8.780   1.184 -0.1332 -0.1384 -0.3350
17961W        W35485  11.734  15.587  13.128  0.0349 -0.0262  0.1206
17962W        W35486   9.989   1.679  17.364 -0.0519  0.0124 -0.1890
17963W        W35487   3.105   2.968  14.261 -0.2904  0.0073 -0.0956
17964W        W35488   8.326  15.152  15.910  0.0168  0.1609 -0.0010
17965W        W35489   5.769  12.044   5.548 -0.2223 -0.2752 -0.0939
17966W        W35490  12.280  13.514  14.913  0.0061 -0.1758  0.0075
17967W        W35491  12.376   2.251  17.475  0.1883 -0.1227 -0.3903
17968W        W35492  12.060   8.582  15.823 -0.2758  0.0792  0.1369
17969W        W35493   1.195  15.883   0.169 -0.1689  0.2254 -0.1668
17970W        W35494  14.468  10.122  13.490 -0.1268 -0.0075  0.0187
17971W        W35495   5.506  17.058   4.219 -0.1318 -0.1194 -0.0558
17972W        W35496  11.860   4.424  17.195  0.1349 -0.2409  0.0882
17973W        W35497   8.491  14.066  12.648 -0.2700 -0.1176  0.3447
17974W        W35498   3.701  11.598   2.396  0.1288  0.1150  0.1378
17975W        W35499   0.911  10.356  14.731 -0.0182 -0.0552  0.4053
17976W        W35500   5.515  15.065   2.658 -0.3381 -0.1139  0.1951
17977W        W35501   8.888   6.117   5.290 -0.1889  0.1680  0.0871
17978W        W35502   2.359  16.094  15.382  0.0250  0.1217  0.4531
17979W        W35503  11.559   7.371  16.672 -0.0811 -0.0424  0.2323
17980W        W35504  16.035   5.111   4.687 -0.0149  0.1206  0.0447
17981W        W35505   3.668   8.570   3.976  0.2269 -0.1849  0.1171
17982W        W35506   9.006   4.794   1.725 -0.3559 -0.1642 -0.0739
17983W        W35507  15.838   2.526   2.450  0.2232  0.0914  0.0337
17984W        W35508   1.210  15.978  13.879 -0.0767  0.0617 -0.2237
17985W        W35509   4.625   1.835   0.274 -0.1599  0.2151 -0.0021
17986W        W35510   9.605   8.101   0.260  0.3063 -0.0739  0.1745
17987W        W35511  15.401   1.919  16.157  0.0375 -0.0327 -0.1837
17988W        W35512  16.683   0.056   2.046  0.1094  0.0163 -0.2117
17989W        W35513   4.602  10.404   1.212  0.3681  0.1452  0.2311
17990W        W35514   2.660   5.887   1.982  0.0467  0.0233 -0.2740
17991W        W35515  15.172   8.963  15.880  0.4210 -0.1517  0.0778
17992W        W35516   8.232   7.551   1.985  0.2890 -0.1540 -0.0041
17993W        W35517   9.842  11.617   3.285 -0.3303 -0.1320 -0.0170
17994W        W35518   3.910   4.188   1.407 -0.0507  0.1407  0.1372
17995W        W35519  11.579   5.533   1.474  0.2710 -0.1070 -0.1243
17996W        W35520   6.314  14.346   5.856 -0.1729  0.0521 -0.2174
17997W        W35521   4.753   1.663  16.663  0.1446  0.1848  0.0512
17998W        W35522   2.534   1.883  17.029 -0.1366 -0.0119  0.0381
17999W        W35523   2.382  13.763  13.545  0.1296  0.1149 -0.2366
18000W        W35524   1.166   2.498   3.267 -0.1581  0.1470 -0.0868
18001W        W35525  10.401   2.056   2.315 -0.0678 -0.2333 -0.0384
18002W        W35526  15.175  13.940   3.853 -0.1241  0.0264  0.0397
18003W        W35527   4.382   4.319   2.127  0.0970  0.0541  0.1059
18004W        W35528  13.655   6.400  14.885  0.0219 -0.1605 -0.0415
18005W        W35529   7.009   9.002  13.313 -0.0669 -0.1232  0.0478
18006W        W35530  11.799   1.523   5.244 -0.1752  0.0840  0.3234
18007W        W35531  10.627   4.610   1.415  0.0193  0.2751 -0.1295
18008W        W35532   4.179   1.483  15.513  0.0301  0.1225  0.3410
18009W        W35533   1.417   7.784  13.547 -0.3237  0.0011 -0.0198
18010W        W35534  15.995   7.738  13.841  0.1857 -0.1836 -0.0116
18011W        W35535   6.090  16.113  13.052 -0.1035  0.0921 -0.3593
18012W        W35536  15.321  11.655  15.561  0.0227 -0.3110 -0.1127
18013W        W35537   6.609   0.287  12.254  0.1685 -0.0200 -0.0156
18014W        W35538   7.384   6.326   4.672  0.0548  0.0947  0.0061
18015W        W35539  11.875   5.472  13.850 -0.0066  0.0707 -0.0821
18016W        W35540   6.987   0.828  12.181  0.0103 -0.1963 -0.0495
18017W        W35541   2.789   7.717   2.577  0.2183  0.4520 -0.0629
18018W        W35542   8.318   4.916  14.632 -0.0058 -0.1187 -0.1777
18019W        W35543   7.763  12.541   0.582 -0.3560  0.2387 -0.1200
18020W        W35544   1.592   0.241  12.660  0.0329  0.1558  0.0863
18021W        W35545   6.402  13.545  13.429  0.4473 -0.2642 -0.0437
18022W        W35546  10.402  12.649   4.300 -0.0022  0.1775 -0.0151
18023W        W35547  14.601  14.864  12.171  0.3950  0.2045 -0.1982
18024W        W35548   9.889  11.396  13.658 -0.1256 -0.0481 -0.1231
18025W        W35549   0.689  16.469  14.198  0.1619 -0.2111 -0.0526
18026W        W35550   0.515   4.569   2.581  0.1857 -0.1733  0.1889
18027W        W35551  15.651  11.132   3.789 -0.2126 -0.1190  0.0655
18028W        W35552   3.970  11.216   2.152 -0.1108 -0.2380 -0.3046
18029W        W35553  13.894   9.572   5.188  0.0593 -0.1051 -0.0088
18030W        W35554  15.447   1.153   3.907  0.1081 -0.0903  0.1280
18031W        W35555   5.756  17.020  16.883  0.0088  0.0618 -0.1449
18032W        W35556  16.690   3.210  15.316 -0.0650 -0.0069  0.3467
18033W        W35557  11.447  16.743  13.934 -0.1655 -0.2006 -0.1866
18034W        W35558   3.936   3.869  12.620  0.1981  0.2157 -0.0255
18035W        W35559  15.579   2.726   2.084 -0.1541  0.0173 -0.6382
18036W        W35560   3.759   1.762  17.410 -0.4578  0.3534  0.0489
18037W        W35561   9.023   7.638  10.994 -0.0573  0.0226 -0.2529
18038W        W35562   4.708   8.633   2.631  0.0136 -0.1038 -0.2025
18039W        W35563   2.212  16.840   0.967  0.2133  0.1422 -0.2863
18040W        W35564   0.658  13.414   1.458  0.0498 -0.1468  0.2618
18041W        W35565   2.631   0.618  14.496 -0.1269  0.1849  0.1565
18042W        W35566   9.251  12.804   3.345  0.0219 -0.1018 -0.0682
18043W        W35567   9.125   0.104   3.421  0.2500  0.1796  0.1092
18044W        W35568  15.383  16.663  13.030  0.0348 -0.0052  0.1004
18045W        W35569   6.065  14.340   0.058 -0.2785  0.0361  0.1196
18046W        W35570   8.961  15.518   3.169  0.0061 -0.0293  0.0184
18047W        W35571  13.040   1.651  14.756  0.2868  0.0743 -0.0882
18048W        W35572  12.482  12.898  16.236  0.1344  0.0299  0.2898
18049W        W35573   5.021   5.371   5.600 -0.1390  0.0758  0.0790
18050W        W35574   6.446   4.785   4.441 -0.2411 -0.1444 -0.0532
18051W        W35575   6.393   7.497  13.057 -0.0548 -0.2211  0.0216
18052W        W35576   4.425  13.512  15.256  0.0087  0.0117 -0.1283
18053W        W35577  13.157  14.544  14.508  0.0682  0.0844  0.0145
18054W        W35578   3.660   7.871  14.768 -0.0995 -0.1264 -0.0776
18055W        W35579  12.545   6.583   4.045  0.0735 -0.1698 -0.1424
18056W        W35580   6.451  15.911  11.871  0.0826  0.1065  0.0596
18057W        W35581  17.052  12.588   5.037  0.0690  0.0078 -0.1593
18058W        W35582   8.702  15.449  14.549  0.2674 -0.1426 -0.2270
18059W        W35583   3.874   6.688   1.962  0.0470 -0.1336  0.2267
18060W        W35584   7.755  11.481   5.074  0.0111  0.0279  0.0631
18061W        W35585  11.937  15.628  15.245  0.2398 -0.1026 -0.2653
18062W        W35586  12.988   8.795  15.061 -0.3565 -0.1065 -0.1531
18063W        W35587   5.896   6.263  14.130  0.1333 -0.2391  0.0958
18064W        W35588   3.852  12.697   1.302  0.0342  0.1840 -0.0720
18065W        W35589  10.585  13.366  13.327  0.0866 -0.3118 -0.1678
18066W        W35590   1.726  13.738  15.569 -0.1765 -0.3536  0.2579
18067W        W35591  13.267  12.363  11.643 -0.0505  0.2002 -0.1134
18068W        W35592   9.972   5.247   4.552  0.1723  0.0700  0.1478
18069W        W35593   9.053  11.909   0.296  0.3553  0.1877 -0.1659
18070W        W35594  15.700  11.836   0.299 -0.1145  0.0618 -0.2396
18071W        W35595   6.465  16.943  14.342 -0.0512  0.3007  0.0825
18072W        W35596   8.447   1.761  14.633  0.3031  0.4497 -0.1183
18073W        W35597   9.206  14.443  13.279 -0.3327 -0.1042  0.1689
18074W        W35598  10.113   2.488  13.902  0.2605  0.1597 -0.0809
18075W        W35599  16.095   7.804   3.884  0.1771 -0.0229 -0.1154
18076W        W35600   0.875   7.202   5.547 -0.0070  0.1018 -0.0380
18077W        W35601   8.279  13.110  15.203 -0.1063 -0.2147 -0.1831
18078W        W35602  15.708  13.209  17.171  0.0362 -0.0817  0.0716
18079W        W35603   5.191  16.839   3.532 -0.1368  0.1138 -0.0892
18080W        W35604   3.048   8.690   5.470  0.0755  0.0907  0.3040
18081W        W35605   8.768  15.816   5.107 -0.1079  0.1318 -0.0507
18082W        W35606  13.174  15.465  12.893  0.0672 -0.0412  0.0237
18083W        W35607  11.752  11.243  17.738 -0.1876 -0.1854 -0.1172
18084W        W35608   8.605   1.569  12.667  0.2742  0.0370  0.1316
18085W        W35609  14.840  14.297   5.142 -0.0824  0.3225 -0.0431
18086W        W35610  15.708  15.404  12.888 -0.0869  0.1510  0.1061
18087W        W35611  16.715   4.030   5.917 -0.0395 -0.0033 -0.0390
18088W        W35612  14.992   5.397   2.285  0.2084  0.3337  0.0601
18089W        W35613  10.008  15.119  16.245 -0.2100  0.0169 -0.1549
18090W        W35614   8.012  11.427  17.694  0.3599  0.0768 -0.1830
18091W        W35615   8.572   7.355  17.037 -0.0980  0.0993 -0.0666
18092W        W35616  10.253   8.198   5.177 -0.2313  0.1142 -0.0667
18093W        W35617  15.789  11.375   2.944  0.2601  0.1024  0.1136
18094W        W35618  15.050   3.658  12.873  0.1944 -0.3453  0.0247
18095W        W35619   8.848   4.325   5.269  0.0813  0.0554  0.1199
18096W        W35620  14.673   5.464  13.985  0.0953 -0.0674  0.2759
18097W        W35621  12.475   1.392  16.197  0.0499  0.0843 -0.0997
18098W        W35622   6.686   3.148  13.204  0.1119 -0.1197  0.1001
18099W        W35623   9.105  12.252   4.932 -0.1010  0.3864  0.1507
18100W        W35624  12.812   3.868   3.947  0.2806 -0.0822 -0.2768
18101W        W35625  10.250   3.791  15.802  0.0221 -0.1060 -0.0164
18102W        W35626  11.508   5.312  15.002  0.0598  0.2501  0.0885
18103W        W35627  16.596   7.902  15.804 -0.1202 -0.0214  0.0860
18104W        W35628   5.768   1.554   3.351 -0.0411 -0.3399  0.1220
18105W        W35629   3.094  16.808   0.461  0.0494 -0.0364 -0.4412
18106W        W35630   2.919  13.276   0.129  0.3444  0.1027 -0.0405
18107W        W35631   8.179   1.964   2.842 -0.1364  0.1892 -0.0728
18108W        W35632  10.433   7.447   4.021 -0.1374 -0.1554 -0.0082
18109W        W35633   3.960  10.407   2.262 -0.1011  0.0856  0.1040
18110W        W35634  14.466  15.116   1.122 -0.3045  0.4268  0.5912
18111W        W35635  13.981   3.277  11.462  0.1761  0.1992  0.2400
18112W        W35636  14.741  15.474   1.836  0.1972 -0.0434  0.2225
18113W        W35637   3.697  12.931  14.253 -0.0263 -0.0665 -0.1150
18114W        W35638  12.854   2.347   0.541  0.1201 -0.0872  0.3655
18115W        W35639   4.118   6.647   3.737 -0.2078 -0.4345 -0.2191
18116W        W35640  11.508  10.881  13.674 -0.0760  0.3243  0.0220
18117W        W35641   3.007   4.833   0.299  0.0363  0.1170 -0.0023
18118W        W35642   2.996  11.948  14.007 -0.1037  0.1050 -0.1228
18119W        W35643   1.920  15.056  15.809 -0.0966  0.1181  0.2196
18120W        W35644   9.211   8.718  15.904 -0.0832  0.1694  0.2650
18121W        W35645   2.640  10.250   4.470 -0.0285  0.0228  0.0744
18122W        W35646  13.900   8.425   3.654  0.1655  0.2630 -0.1083
18123W        W35647   2.363   1.147  15.897 -0.2625  0.0224  0.1720
18124W        W35648  11.298  16.626   2.786 -0.2127 -0.0366  0.1849
18125W        W35649  17.145  16.651   2.316  0.0373 -0.1290  0.1622
18126W        W35650   9.266  15.617   0.495 -0.0119 -0.2085 -0.1588
18127W        W35651   3.617   7.815  16.379 -0.3354 -0.0922  0.3028
18128W        W35652   3.462   8.820   2.495  0.4531 -0.0042 -0.1494
18129W        W35653   9.451  16.211   0.508  0.0213 -0.2247  0.1155
18130W        W35654   6.975  10.305  12.542 -0.2192  0.2314  0.2838
18131W        W35655  10.030   2.896   1.309  0.1373  0.3214  0.3244
18132W        W35656   1.240  12.538   4.363  0.1061  0.2674  0.2727
18133W        W35657  14.658  15.975   5.132 -0.0356 -0.1023  0.0486
18134W        W35658  12.060  13.954  17.060 -0.0544 -0.0032  0.2362
18135W        W35659  16.750   2.730  15.526 -0.2708  0.1621  0.4807
18136W        W35660   5.532   2.912   2.787 -0.0425 -0.1079 -0.1963
18137W        W35661  12.579   4.122  16.699  0.0877 -0.0290 -0.1916
18138W        W35662   5.568  10.056  13.251 -0.1687  0.2626 -0.2293
18139W        W35663  11.654  13.832   1.104 -0.1073 -0.1010 -0.0136
18140W        W35664  14.680   8.841  11.164  0.2998  0.4919  0.3069
18141W        W35665   6.189   2.577  14.518 -0.3845  0.1116 -0.2304
18142W        W35666  12.661   4.550  12.953  0.0185  0.1225 -0.0384
18143W        W35667  14.593  13.315   2.555  0.1188  0.1223 -0.0000
18144W        W35668   0.375   2.491   0.240 -0.0419  0.2634  0.0928
18145W        W35669  16.412  10.998  15.051 -0.0077  0.0494 -0.0978
18146W        W35670  15.833  10.631  13.363 -0.0607  0.2149 -0.0928
18147W        W35671   9.698   4.200  13.499  0.1628  0.4590  0.1093
18148W        W35672   9.094  16.962   0.044 -0.0644  0.0733 -0.1985
18149W        W35673  15.004   3.005   2.026 -0.3577  0.1112  0.2735
18150W        W35674   0.279  10.052  13.414 -0.1132 -0.4239  0.1440
18151W        W35675  14.805   4.757  17.600 -0.0264  0.4638 -0.2249
18152W        W35676   7.201   2.079  13.169 -0.0537 -0.0955 -0.3303
18153W        W35677  15.142  12.581  17.568 -0.0652 -0.1440 -0.0428
18154W        W35678  14.912   5.674  12.352 -0.0251 -0.0525 -0.1097
18155W        W35679  14.822  14.381  16.691 -0.0935 -0.0163 -0.1408
18156W        W35680   6.739  16.472   0.226  0.0200 -0.0853  0.0134
18157W        W35681  16.955   2.243   0.650 -0.1513  0.1860  0.1945
18158W        W35682   4.241  14.045  14.008  0.1991  0.1288  0.1777
18159W        W35683   5.988   8.065   1.884 -0.0069 -0.0022  0.3107
18160W        W35684   7.186   3.767   0.975  0.0841 -0.0558 -0.0637
18161W        W35685   6.769   4.832  13.279 -0.0271 -0.0851 -0.0214
18162W        W35686   2.817   0.732   3.469  0.0807  0.0577  0.0261
18163W        W35687  14.646   5.171  13.492 -0.0702  0.1404 -0.0372
18164W        W35688   6.159   8.740   4.454 -0.2255 -0.1722  0.0661
18165W        W35689   5.896   3.850   4.534 -0.1496 -0.0013 -0.0224
18166W        W35690  12.021   3.332   5.162  0.0235  0.1290 -0.2301
18167W        W35691   0.734   1.475  12.910  0.0219 -0.2708  0.0845
18168W        W35692   5.608   3.135  17.038  0.0663 -0.4413  0.0146
18169W        W35693   4.030   6.338  13.581  0.4870  0.1933  0.1944
18170W        W35694   2.943  12.384  12.922  0.0324 -0.3083  0.1451
18171W        W35695   8.152  16.883   4.316 -0.0802 -0.1638  0.5300
18172W        W35696   1.586  14.419  13.970  0.2319  0.2755 -0.0306
18173W        W35697   1.717  16.673   4.182 -0.1666  0.1305  0.0291
18174W        W35698  14.880   8.428   4.016  0.3170 -0.0929 -0.1099
18175W        W35699   0.062  14.485  14.640 -0.1757 -0.0381 -0.0496
18176W        W35700   9.566   9.265  14.063 -0.2241  0.0707  0.3317
18177W        W35701   4.692   7.131  12.630 -0.0962  0.1304  0.3103
18178W        W35702   9.363   2.454   0.183  0.1077  0.1202  0.3871
18179W        W35703   1.144   6.350   3.961 -0.1952  0.2268  0.1590
18180W        W35704  12.524  16.223   4.610  0.0934 -0.0265  0.0310
18181W        W35705   5.693   5.900  16.660 -0.1484  0.1283  0.1402
18182W        W35706  12.128  11.637   2.899  0.1601  0.4304  0.0293
18183W        W35707  14.394  12.428   4.352  0.0885  0.0919  0.0803
18184W        W35708   2.152  14.585   1.880 -0.0776  0.5299 -0.1586
18185W        W35709  15.035   7.293  15.565  0.0523 -0.1482 -0.1247
18186W        W35710  16.681  10.593  13.606 -0.1428  0.3013 -0.2396
18187W        W35711  15.753   8.729  13.302  0.0878 -0.2904  0.1447
18188W        W35712  11.647   3.475  15.835  0.3310 -0.1270 -0.0715
18189W        W35713   0.471  15.343   3.538 -0.4923  0.1981  0.4089
18190W        W35714   9.392  14.869  11.404 -0.1789 -0.3464  0.0184
18191W        W35715   8.774   3.626   0.111  0.2272 -0.0361 -0.2149
18192W        W35716  15.822  13.159  15.244  0.1864 -0.0821 -0.2214
18193W        W35717   0.048   0.003   2.316  0.0217 -0.1901  0.0263
18194W        W35718   8.936  13.504   2.223 -0.2091 -0.2509  0.1374
18195W        W35719  14.160   6.819   1.593  0.1929  0.1842  0.1681
18196W        W35720   6.470   7.686  15.167  0.0553  0.0051 -0.0018
18197W        W35721   9.979   8.040  15.949 -0.1958  0.0781 -0.1018
18198W        W35722  11.933  10.909  17.118 -0.1308  0.1356  0.1180
18199W        W35723  16.141  15.475   2.447 -0.1120 -0.0231  0.3630
18200W        W35724  17.145   8.679  17.038  0.0781  0.3482 -0.0982
18201W        W35725   1.775  15.628   3.485  0.3726  0.0270 -0.2002
18202W        W35726   6.524   8.001   4.083  0.0015  0.0924 -0.2446
18203W        W35727   9.001   1.479  11.785  0.1682  0.1387 -0.0823
18204W        W35728   6.711   0.261  14.738 -0.0661  0.0575 -0.3793
18205W        W35729   9.001  14.399   4.816 -0.0159  0.0206  0.0270
18206W        W35730   2.792   4.831   2.078 -0.1152  0.1301  0.1092
18207W        W35731   3.030  16.585   1.315 -0.1194 -0.0482  0.0969
18208W        W35732  15.541   5.872  12.952  0.0104 -0.0917  0.2046
18209W        W35733   4.516   4.378  13.839 -0.3206 -0.1162 -0.2057
18210W        W35734  14.076  15.381  14.529  0.0309  0.1249  0.1592
18211W        W35735   2.137  16.924  16.289  0.1368 -0.0214  0.2495
18212W        W35736  10.552   7.463  15.329 -0.1033  0.3331  0.0901
18213W        W35737  14.117   2.969   1.248 -0.2457 -0.1856  0.2206
18214W        W35738  14.766  13.259  15.531  0.0785 -0.0342  0.1525
18215W        W35739   1.743  10.867  16.687  0.2180  0.0660 -0.1060
18216W        W35740  12.923   1.464  15.948  0.3411  0.0932 -0.2032
18217W        W35741  16.177   7.536  12.924 -0.1454  0.0193  0.0421
18218W        W35742  13.584   2.494   2.596 -0.0091  0.3174 -0.2475
18219W        W35743   1.664   2.208  14.902 -0.2417  0.0452 -0.1302
18220W        W35744   6.385   7.118  16.939  0.0443 -0.2816 -0.1497
18221W        W35745  16.096  11.007   2.196 -0.2325  0.2942  0.0714
18222W        W35746   6.124   2.420   1.399  0.1537  0.1201  0.2759
18223W        W35747   6.771   6.997   3.531 -0.0002 -0.3317 -0.0757
18224W        W35748   2.690   1.283   4.387  0.0168  0.3291 -0.2129
18225W        W35749   2.178   1.481  15.060 -0.1281  0.0390 -0.1543
18226W        W35750   9.429  17.104  12.995 -0.3360 -0.3038  0.2703
18227W        W35751  10.062   7.295  13.283 -0.2833 -0.3839  0.1031
18228W        W35752  16.432  13.445   2.421 -0.2714  0.1477 -0.0773
18229W        W35753   5.797   7.175  15.688 -0.3447 -0.1713  0.3501
18230W        W35754   0.309   9.392   5.460 -0.2754 -0.1213  0.1570
18231W        W35755  15.337   1.378  15.397 -0.2012 -0.3019 -0.3715
18232W        W35756  15.355   9.512   1.327 -0.0395  0.0380  0.1600
18233W        W35757   8.192   1.234   2.163  0.1258 -0.4312  0.2310
18234W        W35758   2.921  14.524  15.050  0.0414  0.0362 -0.1979
18235W        W35759  13.918  13.650  14.974  0.1178  0.1169  0.3637
18236W        W35760   5.224   7.826   0.626  0.1154  0.4026  0.1106
18237W        W35761  13.053   7.637   2.018 -0.0001 -0.2313 -0.0926
18238W        W35762  11.122  10.030   0.962  0.1526 -0.0828 -0.3421
18239W        W35763   6.656   1.625  14.174 -0.1167  0.3956  0.0736
18240W        W35764  12.696   9.919  15.518  0.4128  0.1677  0.0416
18241W        W35765  10.421  13.870  12.580 -0.0852  0.3294 -0.2845
18242W        W35766   0.721   1.052  16.836 -0.0385 -0.0791 -0.3602
18243W        W35767   8.954   3.638  16.980 -0.0922 -0.0957  0.0679
18244W        W35768  13.090  13.501  15.392  0.0217 -0.1080  0.2188
18245W        W35769  17.012  17.050   4.674 -0.0353 -0.0500 -0.0077
18246W        W35770   3.361  11.104   4.558 -0.1050 -0.2686 -0.0361
18247W        W35771   7.388  14.136  13.223 -0.1103  0.0901  0.5019
18248W        W35772   7.328   3.200  14.667  0.0264  0.2891  0.1376
18249W        W35773   4.035   9.654   4.775  0.3062 -0.0057  0.0445
18250W        W35774  17.125   1.736   1.341  0.1150  0.0812 -0.1417
18251W        W35775   5.620  16.290  17.644  0.3003 -0.0596 -0.0781
18252W        W35776  13.452   2.894   0.651  0.1937 -0.0109 -0.0051
18253W        W35777  12.885   1.684  16.495  0.1254  0.3115  0.1505
18254W        W35778  14.374  14.073  14.832  0.0913  0.1749 -0.0852
18255W        W35779  15.983  16.629  17.199 -0.2532  0.0512 -0.0804
18256W        W35780   3.826   3.549  12.291 -0.0442  0.1895 -0.2499
18257W        W35781   3.934   0.917  17.232  0.0341  0.4214 -0.1789
18258W        W35782  12.315   5.358   0.815  0.2183 -0.3664  0.1894
18259W        W35783   0.827  13.290  14.599  0.2623 -0.0979  0.1779
18260W        W35784  11.942   1.245  15.378 -0.0783  0.1334  0.0845
18261W        W35785  16.859   5.361   1.052  0.1008  0.0727  0.0423
18262W        W35786  10.867  15.755   3.852  0.1134 -0.3039 -0.0343
18263W        W35787   8.061   8.494  11.636 -0.1051  0.4211 -0.2061
18264W        W35788   6.715   2.640  14.581  0.0291 -0.1141 -0.0667
18265W        W35789   2.909  16.098   1.237  0.0844 -0.0194  0.1497
18266W        W35790   2.799   2.566  14.413  0.0009  0.3203  0.1520
18267W        W35791  14.378   5.380   3.966  0.2982  0.2194 -0.2935
18268W        W35792   2.118   6.925   1.794 -0.1207 -0.1099  0.1943
18269W        W35793   6.873   5.613  14.150  0.1092 -0.0916  0.1714
18270W        W35794  15.290  13.212   3.259  0.0503  0.2115  0.2649
18271W        W35795  16.792   0.582   0.152  0.0833 -0.1257 -0.1238
18272W        W35796   2.472   4.363   2.087  0.3837  0.2097 -0.0366
18273W        W35797   2.274   0.214  15.101 -0.0097  0.1390  0.0291
18274W        W35798   3.767   7.544   0.706  0.1357 -0.5093 -0.0089
18275W        W35799   8.880  13.005   4.191 -0.2225 -0.0325 -0.3463
18276W        W35800  10.895   9.753  12.574  0.0500 -0.0693 -0.0879
18277W        W35801  12.956  11.372  14.192  0.0609 -0.3406  0.2908
18278W        W35802  16.997   6.710  16.110  0.1747 -0.0602  0.1558
18279W        W35803  14.713  10.574   3.216  0.0657 -0.0471 -0.0858
18280W        W35804   0.663   0.876  15.914 -0.0556 -0.1025  0.1357
18281W        W35805   2.623   5.713   4.046  0.2212  0.1555 -0.3799
18282W        W35806  12.345  10.053  13.664  0.0156 -0.0240 -0.0710
18283W        W35807   9.881  13.118  14.455  0.0698 -0.2417 -0.1650
18284W        W35808   0.940  16.828  13.602 -0.0016  0.0016 -0.0782
18285W        W35809  13.795   3.987   1.746  0.2382  0.3018 -0.1812
18286W        W35810  16.539   8.771   2.208  0.1033 -0.0013 -0.0691
18287W        W35811   8.974   0.277   2.504 -0.0025 -0.0201 -0.3098
18288W        W35812   7.395  16.624   2.901 -0.0240  0.0990  0.0423
18289W        W35813   8.808  16.322  14.333  0.2575  0.1885 -0.0260
18290W        W35814  14.591  12.706   6.515 -0.1214  0.0716 -0.1343
18291W        W35815  11.575   9.333   0.219  0.0110 -0.1128  0.1610
18292W        W35816   2.899   5.665   5.900  0.1664 -0.2214 -0.1624
18293W        W35817  16.230  14.989   5.150 -0.2304  0.1124  0.0776
18294W        W35818  13.464  13.103   1.550  0.0149 -0.1581  0.2020
18295W        W35819  10.723   3.769  15.704 -0.3743  0.2288  0.1259
18296W        W35820   2.255  10.495   0.654 -0.3366  0.5080  0.1357
18297W        W35821  12.003   3.332   1.713 -0.1640  0.0287 -0.1471
18298W        W35822   0.784  15.785   5.627  0.0568  0.0673 -0.1764
18299W        W35823   9.767   0.855   1.537 -0.1838 -0.1653 -0.0677
18300W        W35824   4.961   4.342   4.527  0.2076 -0.1682 -0.0315
18301W        W35825  16.348  10.810  15.538 -0.2616  0.3062 -0.1109
18302W        W35826   3.526  12.788  15.964  0.1301 -0.0348  0.2809
18303W        W35827   9.246   7.336   1.138  0.1149  0.0427 -0.0146
18304W        W35828  13.022   6.659   3.592  0.0393  0.1439  0.1718
18305W        W35829   5.308   5.960  16.950 -0.0170 -0.0637  0.2425
18306W        W35830   0.505   5.159  14.643  0.1157 -0.1533 -0.0501
18307W        W35831  13.236  14.976   5.327 -0.2891  0.0381  0.0684
18308W        W35832   6.901   8.414   0.241  0.2649  0.2251 -0.0977
18309W        W35833   9.699   5.309  16.505  0.0288  0.2292  0.1932
18310W        W35834   5.457  15.493  16.739  0.2200 -0.0759 -0.1237
18311W        W35835  11.370  14.906  14.960 -0.1581 -0.1371  0.3621
18312W        W35836   5.750  16.226  14.853 -0.2424 -0.1792 -0.0143
18313W        W35837   8.221  15.727  12.098 -0.0998 -0.0300 -0.1092
18314W        W35838  11.365   0.367   2.985 -0.0681 -0.0243 -0.0289
18315W        W35839   9.347  13.699   0.275  0.1997  0.1764 -0.0661
18316W        W35840  10.663   4.667   5.318 -0.2805 -0.1430  0.0262
18317W        W35841  11.167  13.065  14.974 -0.2260  0.0663  0.0013
18318W        W35842   3.290  14.971   1.980  0.2563 -0.0540  0.0976
18319W        W35843  10.005  13.652  16.403 -0.0939  0.1609  0.2702
18320W        W35844  11.458   3.967  15.697 -0.0918 -0.0951 -0.1351
18321W        W35845  17.058  15.103   1.620 -0.0838 -0.1412  0.0651
18322W        W35846  16.890   5.069   6.831  0.0995 -0.3524  0.1491
18323W        W35847   0.344   6.884   0.389  0.0249 -0.2564 -0.3838
18324W        W35848   1.326   7.779  14.936  0.1265 -0.0064 -0.2045
18325W        W35849   7.594   9.341   2.785  0.1167  0.0493 -0.2095
18326W        W35850   4.799   7.590  12.520  0.2456  0.2675  0.1581
18327W        W35851   7.757  14.248   4.872 -0.2097  0.1294  0.1265
18328W        W35852  12.894   2.504   3.509  0.1851  0.2079  0.0108
18329W        W35853   0.503  10.909   5.311  0.0391  0.1625 -0.0649
18330W        W35854   0.616  16.145   2.082 -0.0199 -0.3104 -0.0613
18331W        W35855   9.335   5.812  14.592  0.5025 -0.1039 -0.0094
18332W        W35856  10.895  12.915  17.706 -0.1247  0.1947 -0.0532
18333W        W35857  15.293  10.037  15.965  0.1121 -0.1763 -0.1072
18334W        W35858   4.558  15.966  12.645  0.0180  0.0713  0.3569
18335W        W35859  14.513   4.044   3.611 -0.1727 -0.1821 -0.0267
18336W        W35860   3.809   1.929  16.472  0.1725  0.1181 -0.1531
18337W        W35861  10.513  16.477  17.505 -0.0703  0.0244 -0.1427
18338W        W35862  14.975  13.783  12.613 -0.0314 -0.5265 -0.1610
18339W        W35863   6.116   5.644  16.423 -0.0793 -0.0408 -0.1211
18340W        W35864  10.716   6.890  14.889 -0.1222  0.0396  0.0322
18341W        W35865  16.395   8.076   4.229  0.1689 -0.1618  0.0194
18342W        W35866  10.135   4.163  13.278  0.1666  0.0496  0.0439
18343W        W35867  15.278   6.057  14.609  0.0590 -0.0616 -0.0946
18344W        W35868  11.353  12.090   3.270 -0.1430 -0.1043  0.1729
18345W        W35869  12.656   8.294   0.360 -0.1035 -0.0158  0.1658
18346W        W35870   7.916   6.343  15.519  0.0146 -0.2438 -0.0634
18347W        W35871  13.889  14.245   2.650  0.1051  0.0460  0.3131
18348W        W35872   0.061  11.738   5.377  0.0571 -0.3185  0.1048
18349W        W35873   1.205  14.245  16.581 -0.1505 -0.1871  0.2300
18350W        W35874  15.269  11.565  14.918  0.1680  0.3951  0.2842
18351W        W35875   4.826  10.094   3.730 -0.0594  0.1256  0.3413
18352W        W35876   3.285   7.800  14.404  0.0823  0.0698 -0.0951
18353W        W35877  10.591   8.214   3.770 -0.1586 -0.2140 -0.2387
18354W        W35878   8.490  11.932   3.344  0.0475  0.0762 -0.1594
18355W        W35879  14.528   1.212  12.857 -0.2197 -0.1410  0.0642
18356W        W35880  16.484   0.709   1.471 -0.0883 -0.0053  0.2006
18357W        W35881   0.992   9.396  16.800 -0.0839 -0.0228  0.0537
18358W        W35882  11.931   0.261  12.841  0.0137  0.1129  0.0289
18359W        W35883   8.685  11.135  15.113  0.0967 -0.2357  0.1085
18360W        W35884  14.037   1.799   1.045  0.1513  0.1238 -0.2418
18361W        W35885   9.220   1.643   4.945 -0.0184  0.3615 -0.0379
18362W        W35886   2.185  13.040   0.525 -0.1949  0.1711  0.2254
18363W        W35887  15.247  13.903  13.039  0.1826 -0.1648  0.0524
18364W        W35888  16.579  12.092  13.120 -0.3764  0.0004  0.0347
18365W        W35889   1.033   6.677   4.271  0.1354  0.1803  0.1706
18366W        W35890  10.305  13.447  12.814 -0.3292  0.3913  0.0144
18367W        W35891  14.987  13.729  16.580 -0.2956  0.0748 -0.0767
18368W        W35892   4.258  16.344   2.532  0.0703  0.0249 -0.0661
18369W        W35893   4.837   4.640   3.115  0.0618  0.0109  0.1440
18370W        W35894   1.122   7.638   3.406  0.2809  0.0617 -0.0064
18371W        W35895   3.178   7.586  16.349  0.0868 -0.2143  0.2278
18372W        W35896  16.046   1.942   5.467  0.2878 -0.2020 -0.0595
18373W        W35897  14.665   3.067  16.742  0.1117 -0.4138  0.2493
18374W        W35898   1.555  14.089   2.408 -0.3735  0.1488 -0.1079
18375W        W35899  11.644  15.633  14.827  0.3376  0.3577  0.1349
18376W        W35900   7.059  13.734   3.647  0.2805  0.0383  0.3666
18377W        W35901   8.710   9.813   1.323 -0.0166 -0.0075  0.1584
18378W        W35902  13.796  13.480   1.632 -0.0359  0.3109  0.2020
18379W        W35903   2.048   7.734   4.387  0.2558 -0.0057  0.1406
18380W        W35904   0.818   9.303   1.957 -0.1459 -0.1617 -0.3601
18381W        W35905   1.279   8.275  15.324  0.1033 -0.1319 -0.2395
18382W        W35906   9.982  10.934   1.771 -0.0198  0.1968 -0.0391
18383W        W35907   9.684   7.822   1.669 -0.1632  0.3489 -0.0039
18384W        W35908  16.340   4.928   2.485 -0.4074  0.0024 -0.0231
18385W        W35909   8.590   5.363   0.771 -0.4644 -0.0546  0.1156
18386W        W35910   8.245   8.939  13.018  0.0374  0.0474 -0.1599
18387W        W35911   2.797   3.600  14.799 -0.3455  0.2561  0.2053
18388W        W35912  11.301  14.522  15.996  0.0891  0.2163 -0.0378
18389W        W35913   5.462  10.284  15.168 -0.3424 -0.0962  0.0095
18390W        W35914   6.923  14.734   3.595 -0.1078 -0.1907  0.1862
18391W        W35915  13.092   1.837  17.108  0.0578 -0.0371 -0.1158
18392W        W35916   6.793   6.414  13.424  0.0838 -0.0429  0.2225
18393W        W35917  12.564   6.848  16.138  0.2055  0.0632 -0.0408
18394W        W35918  12.133  11.989   5.165  0.2439 -0.0344 -0.0901
18395W        W35919   9.212   4.437  15.127  0.2550  0.1026  0.2392
18396W        W35920  14.678  14.349   2.784 -0.2567 -0.2991  0.0343
18397W        W35921   2.660   6.509  13.093 -0.1392  0.4253  0.2532
18398W        W35922  15.685   0.214  16.637 -0.0939  0.0054  0.4190
18399W        W35923  10.239  15.812   0.970 -0.1412  0.3326 -0.3311
18400W        W35924   1.929  10.922  17.502 -0.2220 -0.0771  0.1067
18401W        W35925   4.633   2.827  12.989 -0.2397  0.0246 -0.2034
18402W        W35926   3.650   1.484  16.267  0.1678 -0.0778  0.1095
18403W        W35927   3.934  10.428  15.768  0.1976  0.0901  0.0501
18404W        W35928   6.490   6.015   1.257  0.1797 -0.2642  0.1023
18405W        W35929   5.047   6.981   0.836  0.2548 -0.2948 -0.1733
18406W        W35930  13.076  14.098  12.469 -0.1549  0.0093 -0.1380
18407W        W35931  16.091  14.157  12.779 -0.0319 -0.2384 -0.1239
18408W        W35932   4.800   7.390  17.687  0.1581  0.0973  0.0764
18409W        W35933   0.605   4.369   5.768  0.1117  0.0198  0.0505
18410W        W35934   6.703   4.923  17.464  0.1582  0.0853  0.1374
18411W        W35935   5.465   1.539  14.883 -0.4267  0.3691 -0.1530
18412W        W35936  15.720   3.719  15.531 -0.1226 -0.0230 -0.0064
18413W        W35937   4.871   3.760   3.869  0.1127  0.0132  0.0828
18414W        W35938   2.181   8.175   3.047  0.1078  0.0962 -0.2557
18415W        W35939  14.467  12.829  14.330  0.0867  0.3152 -0.4438
18416W        W35940   0.998  14.628  16.985  0.0960  0.2459  0.0993
18417W        W35941  12.168   6.177  12.944 -0.4030  0.1215 -0.0803
18418W        W35942   6.469   1.718  14.941  0.0891  0.1374  0.2295
18419W        W35943   5.120  16.221  17.594  0.0070 -0.2443  0.1738
18420W        W35944   0.188  16.532  14.195  0.0112 -0.0196 -0.0407
18421W        W35945  10.576  13.946  14.603  0.1076  0.3428 -0.1194
18422W        W35946   3.390  15.516  14.387 -0.0862 -0.1767 -0.1081
18423W        W35947   2.134   4.174  11.970  0.2632  0.0472  0.0505
18424W        W35948   3.552   9.626  14.219 -0.1187 -0.2177 -0.0024
18425W        W35949  16.517  10.327   3.905  0.2405  0.1849  0.2511
18426W        W35950   8.392   6.786   3.235 -0.1780 -0.2255  0.0040
18427W        W35951   5.746   6.125   5.274 -0.1792 -0.2829 -0.1610
18428W        W35952   2.982   5.661  15.967 -0.1151  0.0045  0.1048
18429W        W35953   3.295   9.798   3.717 -0.1534 -0.1166  0.3064
18430W        W35954   9.169  16.175  15.557 -0.2501  0.0230 -0.1852
18431W        W35955  13.315   6.009   1.343 -0.3078  0.2620 -0.4373
18432W        W35956  13.977   0.774   2.008  0.2211  0.0188  0.3711
18433W        W35957  11.994   1.364   3.797  0.0307  0.2078  0.3493
18434W        W35958   3.667   7.578  16.792  0.1954 -0.1466  0.1458
18435W        W35959   5.446   4.084  16.829  0.1472  0.0504 -0.3291
18436W        W35960   3.017   3.857   3.605 -0.0847 -0.1942  0.0522
18437W        W35961  17.139  12.237   4.101  0.2587 -0.1252  0.1997
18438W        W35962   2.271  13.489   1.073  0.1345  0.0572 -0.0269
18439W        W35963  14.540  15.872  12.892 -0.0065  0.0757 -0.2364
18440W        W35964   0.961  13.487   5.325 -0.2278 -0.2688  0.0035
18441W        W35965   0.852   6.485   2.343  0.1291  0.5824 -0.1306
18442W        W35966   1.772   1.359   3.651  0.2964  0.0778 -0.1066
18443W        W35967   9.648   2.084   3.825 -0.3474  0.1586 -0.0026
18444W        W35968   2.487   9.472  15.913 -0.0185  0.0444 -0.0618
18445W        W35969   6.418   3.235   3.126 -0.1075  0.0668 -0.1519
18446W        W35970  14.370   5.934  17.452 -0.0939  0.0426 -0.0176
18447W        W35971   2.688   2.517   1.433  0.0083  0.0973  0.0435
18448W        W35972   7.705   0.121   4.271  0.1102  0.0646 -0.2046
18449W        W35973  14.151   7.392  17.485  0.1371  0.2563  0.2175
18450W        W35974   3.305   7.121   3.145  0.0558  0.2828  0.0351
18451W        W35975   2.825  13.457   1.010 -0.0294  0.2475 -0.1826
18452W        W35976   1.656   6.706   2.736 -0.1503  0.3823 -0.0190
18453W        W35977  11.560  15.221  17.706 -0.0426 -0.0965 -0.3103
18454W        W35978   2.686  13.166  15.773 -0.2752 -0.1001  0.0799
18455W        W35979   9.737   8.016  16.427 -0.0530 -0.2553 -0.0652
18456W        W35980   9.565  16.040   3.025 -0.1686  0.0581  0.0063
18457W        W35981   3.275   3.070   2.458 -0.1326  0.1442 -0.1706
18458W        W35982  16.096   2.384   2.052  0.1638 -0.3541  0.0754
18459W        W35983  11.665   8.988  12.720 -0.1102 -0.1476  0.1727
18460W        W35984  10.145   1.974   3.796  0.0967  0.1186 -0.0409
18461W        W35985   3.764  10.335   0.118 -0.0120  0.2470 -0.0798
18462W        W35986   2.081  11.218  16.798 -0.1916 -0.1266  0.2478
18463W        W35987  14.300   5.154  16.955  0.0678 -0.1650 -0.1513
18464W        W35988  12.154  16.879   2.363 -0.0960  0.2652 -0.1214
18465W        W35989  13.842  13.598   5.570 -0.1769 -0.1287 -0.0861
18466W        W35990   1.559  16.459  13.205 -0.1501  0.0309  0.0568
18467W        W35991   3.963   5.324   3.884  0.3340 -0.1508  0.2467
18468W        W35992  12.894   9.278  11.928  0.2367  0.0836 -0.2791
18469W        W35993   8.659   9.347  12.174 -0.1650 -0.0416 -0.1930
18470W        W35994  15.912   1.614   1.402 -0.2712 -0.2844 -0.2394
18471W        W35995  10.466  15.944  17.539 -0.1108  0.1223  0.0469
18472W        W35996   7.912   0.746   3.393  0.3929  0.3085 -0.0563
18473W        W35997  15.365  11.050   2.946  0.2616 -0.1579 -0.0177
18474W        W35998   0.009   9.527  14.524  0.0558 -0.2990  0.2414
18475W        W35999   6.347   4.625   1.645  0.0107  0.0605  0.2716
18476W        W36000  16.274  12.627   1.510 -0.2749  0.0158  0.0198
18477W        W36001  16.166   3.550   3.721  0.0555 -0.1469 -0.2401
18478W        W36002   2.371  14.057  12.317 -0.0805 -0.3465 -0.0408
18479W        W36003  13.930  13.065   3.752  0.0096 -0.0096 -0.0197
18480W        W36004   0.120  13.807   2.375  0.0449 -0.1000  0.2003
18481W        W36005   4.634  12.274  14.761 -0.1896 -0.1230  0.0098
18482W        W36006  15.251  12.615   1.098 -0.0364 -0.0088 -0.0751
18483W        W36007   7.073   7.077  17.737 -0.0285  0.0232 -0.1083
18484W        W36008  16.473  12.875  14.903 -0.0843  0.0783 -0.0143
18485W        W36009   2.140  15.012  16.365  0.2812  0.2579 -0.1914
18486W        W36010   0.376   0.659   4.846 -0.4659 -0.0492 -0.0916
18487W        W36011  14.568   6.478   4.873  0.0058  0.1190 -0.1218
18488W        W36012   0.863  10.768  16.595  0.0241 -0.0947  0.2444
18489W        W36013  14.408   8.377  12.460  0.1225 -0.1234  0.3215
18490W        W36014   2.478  16.418  16.519 -0.2333 -0.2848  0.1261
18491W        W36015  16.295  13.898  13.149  0.0127  0.2464  0.1159
18492W        W36016   9.686   9.784  13.422 -0.1146 -0.0141 -0.0478
18493W        W36017   2.836  11.296   4.894  0.0121 -0.2868 -0.3903
18494W        W36018   3.591  15.891   0.781  0.0858  0.0642 -0.1085
18495W        W36019   4.115   7.731   3.736  0.0632 -0.0399 -0.0200
18496W        W36020   7.790  13.581  17.128 -0.0446 -0.3318  0.1504
18497W        W36021   4.065   1.396  17.352  0.0901  0.1394 -0.0295
18498W        W36022  13.710  15.677  13.561 -0.0725 -0.2020 -0.1850
18499W        W36023  11.766  16.403   1.560 -0.2613 -0.0510 -0.4119
18500W        W36024  11.385  10.903   4.816 -0.2376  0.2867  0.1157
18501W        W36025   2.375   4.797  14.656  0.0909 -0.0162 -0.0406
18502W        W36026  13.318   9.360   2.062  0.0300 -0.0862  0.1817
18503W        W36027  14.563  12.888   5.395  0.3006  0.0484  0.1115
18504W        W36028   9.397   3.675   1.866  0.1891  0.0296  0.1811
18505W        W36029   6.229  16.327   4.276 -0.1578  0.0140  0.3810
18506W        W36030   4.717   7.758   0.366 -0.1081 -0.0488  0.1830
18507W        W36031   6.308  13.657  14.204 -0.2471 -0.0323  0.2259
18508W        W36032  10.213   0.288  15.606 -0.0066 -0.1279  0.2965
18509W        W36033  16.334   0.352  14.224 -0.0711 -0.0601  0.0549
18510W        W36034   9.363   2.116   2.267  0.0884  0.0083  0.2076
18511W        W36035   1.749   8.166  13.168  0.1499  0.4005  0.2711
18512W        W36036   6.997   1.833  16.308 -0.0657  0.1774  0.1031
18513W        W36037  13.762  11.288   1.257  0.1815 -0.1191 -0.0169
18514W        W36038   8.852  11.084   0.326 -0.1863 -0.0794 -0.3307
18515W        W36039   8.695   0.466   0.712  0.0206  0.0358 -0.0284
18516W        W36040  10.480   3.989   2.792 -0.0944  0.0689  0.3422
18517W        W36041  13.667  10.272  13.002  0.1433  0.2035 -0.0780
18518W        W36042   7.806   7.937   0.972  0.3365 -0.0447  0.3276
18519W        W36043   0.583   5.395   1.385  0.2628 -0.0324 -0.1869
18520W        W36044  15.074   5.465  15.257  0.3085  0.1424  0.0811
18521W        W36045   0.209   2.015   0.440 -0.1273  0.2552  0.2602
18522W        W36046   9.409   8.349  17.232  0.2551  0.1490 -0.1099
18523W        W36047   7.283  13.874   5.586  0.0293 -0.0374 -0.2103
18524W        W36048   1.282   5.899   2.553  0.0502 -0.1652 -0.0062
18525W        W36049   8.825  12.219  13.437  0.0343  0.0754  0.0839
18526W        W36050  16.680  14.567   2.785  0.1190  0.1405  0.0152
18527W        W36051   3.832   6.940  15.611  0.0212  0.3243 -0.2550
18528W        W36052  10.821  15.646  14.049  0.0305 -0.0756 -0.0365
18529W        W36053   4.388   0.688  15.958  0.1366  0.0409  0.2809
18530W        W36054   6.107   8.513   2.001 -0.0437  0.1565 -0.0197
18531W        W36055  11.158   8.179  13.051 -0.3210  0.0413  0.2117
18532W        W36056   3.811  12.493   0.753  0.1126  0.1182  0.0268
18533W        W36057   8.982  13.729  16.381  0.1366 -0.1887  0.2241
18534W        W36058  11.160  16.713  17.030 -0.2361  0.1109 -0.1045
18535W        W36059  12.514  13.943   2.386  0.0351  0.2728  0.1732
18536W        W36060   7.607   4.499  15.947  0.4789 -0.3812 -0.3885
18537W        W36061   8.207   1.922  16.592 -0.0722 -0.0248 -0.1344
18538W        W36062   7.377   5.367  14.020  0.1541  0.4295  0.0824
18539W        W36063  12.951   4.929   5.368 -0.0033 -0.3202  0.1303
18540W        W36064   3.165  17.045   2.204 -0.1522 -0.2750 -0.1259
18541W        W36065   7.843  10.942  12.609  0.0981  0.0653 -0.0221
18542W        W36066   6.924  16.979  14.576 -0.0593  0.1812  0.2525
18543W        W36067  14.754  11.095  15.640 -0.2013 -0.1139  0.1118
18544W        W36068   7.958   5.381  16.915  0.0010 -0.0132 -0.0301
18545W        W36069   9.114   4.883  17.024 -0.0455 -0.0005 -0.0511
18546W        W36070   4.314  16.998  12.854 -0.1436 -0.2018 -0.0333
18547W        W36071  13.806   1.748  17.595  0.2679  0.1803 -0.1801
18548W        W36072  13.737   5.651  12.771  0.1205  0.0177 -0.0993
18549W        W36073  10.032   1.331  15.598 -0.1679  0.0906 -0.1046
18550W        W36074  11.038   9.958   0.050  0.0060 -0.1020  0.1748
18551W        W36075  13.983   4.334   4.492  0.0214 -0.1081 -0.3950
18552W        W36076   3.367  16.763   1.906  0.1341 -0.0519  0.0529
18553W        W36077   7.979   1.707  13.407  0.4238 -0.0154  0.1968
18554W        W36078   2.064   8.235  17.440  0.1097 -0.1893 -0.0614
18555W        W36079   5.480   8.090  16.489  0.1052 -0.0549 -0.0261
18556W        W36080   8.505  10.502  13.843  0.0804  0.0865 -0.1378
18557W        W36081   1.270   8.495   1.920  0.0020 -0.1859  0.1174
18558W        W36082   3.225   3.623  15.489 -0.1448  0.2866 -0.2603
18559W        W36083  14.895   1.317  15.041 -0.1807 -0.1375 -0.0440
18560W        W36084  11.931   0.348   4.569  0.0417 -0.0615 -0.0417
18561W        W36085  12.334  10.879   2.780 -0.0829 -0.1310 -0.2945
18562W        W36086  15.727   9.944   1.480 -0.1638  0.1426  0.0476
18563W        W36087   9.981  16.331  16.622  0.0071 -0.0669  0.1031
18564W        W36088   9.566   6.089   0.540  0.1428 -0.2704 -0.0737
18565W        W36089   0.802   7.306  11.352  0.1265  0.6527 -0.1863
18566W        W36090   3.372   7.383  11.971 -0.1017  0.2827 -0.0535
18567W        W36091   9.749   5.204  15.030 -0.0649 -0.0085 -0.0782
18568W        W36092  16.740   9.470   4.886 -0.0488  0.0124 -0.0820
18569W        W36093  16.327  14.264   0.053 -0.0423 -0.0683 -0.2545
18570W        W36094  11.902  12.584   0.271  0.0051 -0.0666 -0.1851
18571W        W36095   8.316  13.938   4.484 -0.2992 -0.1414 -0.1260
18572W        W36096   4.662   3.762   3.337 -0.0387  0.0890  0.1424
18573W        W36097   0.972   0.163  14.705 -0.3620 -0.2498  0.2178
18574W        W36098  12.505   1.160   3.821  0.1545 -0.1547  0.0265
18575W        W36099   5.987  11.430  12.504  0.0072 -0.0807  0.0694
18576W        W36100  14.210  10.635   0.896  0.2721 -0.0194  0.2737
18577W        W36101   6.841   9.484   1.764  0.0345 -0.1357  0.2372
18578W        W36102   4.038   9.192  14.972 -0.0126 -0.1188 -0.0669
18579W        W36103   5.153   8.632  13.882  0.0590  0.0801  0.3829
18580W        W36104  16.330   9.411  13.649  0.1094  0.1728  0.0634
18581W        W36105   2.996   1.628   0.479  0.0169 -0.2764  0.0608
18582W        W36106   9.507   5.210  11.597  0.0023  0.0232  0.2516
18583W        W36107   2.490   5.683  15.818  0.3211 -0.0732  0.0923
18584W        W36108  10.216  15.768  11.756  0.0542 -0.1145 -0.2127
18585W        W36109   8.469   0.938   5.680  0.0564 -0.0007  0.0507
18586W        W36110   9.385   3.436   5.045  0.2184 -0.1060 -0.0724
18587W        W36111  15.746   0.703   4.108 -0.1073 -0.0672 -0.0758
18588W        W36112   6.332  12.517   2.927  0.0954 -0.0521 -0.0605
18589W        W36113  15.668   8.368  14.562  0.2229 -0.0166  0.1867
18590W        W36114  13.789  11.288   2.399 -0.3821 -0.0187  0.1105
18591W        W36115   3.991  13.214   5.478 -0.2677 -0.1131  0.0140
18592W        W36116   8.806   1.842   5.111 -0.1205  0.1077  0.2032
18593W        W36117  12.817  11.358  14.752 -0.0295  0.2396 -0.0055
18594W        W36118   1.643  12.260   2.985 -0.1534  0.0194 -0.0061
18595W        W36119  14.504   3.190   4.144  0.1913  0.1540 -0.0653
18596W        W36120   5.603   3.578   3.533  0.1775 -0.0252  0.0689
18597W        W36121  11.117  12.640  15.230  0.1014  0.0237  0.2288
18598W        W36122   7.501  12.818   4.751 -0.0766 -0.0179  0.2670
18599W        W36123   7.766  13.102   4.415  0.2078 -0.0937  0.2160
18600W        W36124  13.730  15.504   4.321  0.3784 -0.3121  0.1427
18601W        W36125   2.933  15.229  13.698 -0.0652  0.1658  0.2150
18602W        W36126   1.268   2.923   5.504  0.2956  0.1458  0.0491
18603W        W36127   6.245   5.962   5.356  0.0275 -0.1356  0.2102
18604W        W36128   3.287  16.514   3.125 -0.2016  0.0259 -0.1711
18605W        W36129  13.344  15.967   3.698  0.0296  0.0116 -0.3516
18606W        W36130   0.395  14.785   4.778 -0.3544 -0.1252 -0.1415
18607W        W36131   7.406  10.094   1.697  0.1757 -0.1414 -0.0673
18608W        W36132   5.252   0.769   3.587  0.0971  0.0889 -0.0063
18609W        W36133   8.765   3.004  17.019  0.0429 -0.0260  0.0418
18610W        W36134   5.319   1.613   1.425  0.1609  0.0928  0.3526
18611W        W36135  14.796   7.721  15.603 -0.1242 -0.1414  0.1449
18612W        W36136   5.699  11.173  15.564 -0.0414 -0.3885 -0.1497
18613W        W36137   1.491   1.810   2.801 -0.1875  0.2296  0.0587
18614W        W36138  13.292  15.710  16.919 -0.1566 -0.1016 -0.2226
18615W        W36139   5.305  16.247   4.558  0.3307  0.0148 -0.3391
18616W        W36140  14.873   5.220   4.963 -0.0270 -0.2209  0.0044
18617W        W36141   9.947  15.923  13.352  0.1484 -0.2399  0.2252
18618W        W36142  11.652  14.730  15.400 -0.2618  0.0347  0.3245
18619W        W36143  15.273   6.550  16.142  0.0588  0.2288  0.2027
18620W        W36144   4.034  12.449  13.089  0.0411 -0.3493  0.0751
18621W        W36145   3.924   7.622  11.318  0.1818  0.0183  0.2244
18622W        W36146   3.026  10.417   3.133  0.0062  0.1302 -0.0163
18623W        W36147  12.433   3.074   5.000  0.0529 -0.1130 -0.0563
18624W        W36148  15.370  14.417  13.818  0.1028 -0.1253  0.0291
18625W        W36149   6.025  14.000  15.241 -0.0255  0.0719 -0.1275
18626W        W36150   7.442  10.272  12.858 -0.0700  0.2677  0.1138
18627W        W36151  15.869   0.675   2.402 -0.1151 -0.0408 -0.0697
18628W        W36152  10.650  14.624  12.839  0.2543  0.0371  0.0477
18629W        W36153  11.929   7.086   0.700  0.2144 -0.0926 -0.1250
18630W        W36154   7.569   7.677   3.630 -0.1778 -0.0812 -0.0928
18631W        W36155   9.322   3.478  12.349 -0.0884  0.0717  0.1661
18632W        W36156   0.328   8.805  16.687 -0.1094  0.0027  0.3373
18633W        W36157   2.746  11.645   0.770  0.2351 -0.1391 -0.4346
18634W        W36158  17.076  12.808  14.121  0.1389  0.0228  0.1470
18635W        W36159   0.573   0.441   2.867 -0.1418  0.0222  0.5187
18636W        W36160  13.532  12.501   5.455  0.2649  0.0159  0.0825
18637W        W36161   0.539   7.511   3.355 -0.0900  0.2178  0.1262
18638W        W36162   5.904   7.828   5.337 -0.2173 -0.0384 -0.1088
18639W        W36163  14.187  15.703   5.209  0.3503 -0.1142 -0.2713
18640W        W36164  11.546  15.295   5.133  0.2104  0.0613 -0.2892
18641W        W36165  13.707  16.564   1.457 -0.0906  0.1824  0.0139
18642W        W36166  10.882   1.022   0.204 -0.2709  0.0985  0.2558
18643W        W36167  12.444  11.846  13.674 -0.2548  0.2510  0.1712
18644W        W36168   6.519  13.645   4.246  0.5281  0.1846  0.0208
18645W        W36169   7.134   8.708  17.633 -0.1632  0.1229  0.0207
18646W        W36170   4.020   9.935  15.604  0.0175 -0.0615  0.0148
18647W        W36171   7.642   1.103  16.572  0.2470  0.1398  0.1519
18648W        W36172  16.836  11.232   3.824 -0.2516  0.3015 -0.1929
18649W        W36173  16.874  14.118  16.008 -0.3224 -0.1739 -0.2357
18650W        W36174   3.483  10.295   4.069  0.0993  0.1234  0.0101
18651W        W36175   3.006   5.396  14.878 -0.2615 -0.1916 -0.0226
18652W        W36176  13.922  10.070  14.825  0.1828 -0.2662 -0.1021
18653W        W36177  16.433  10.899   2.575  0.1205  0.4058  0.1962
18654W        W36178   2.670   4.272  14.155 -0.1670  0.1121 -0.1748
18655W        W36179  10.621  14.469   4.209 -0.1420  0.1247 -0.2133
18656W        W36180  10.158   7.734  16.318 -0.1548 -0.4310 -0.2072
18657W        W36181  15.014  16.216   3.105  0.0462 -0.1098  0.1959
18658W        W36182   3.319   2.860   1.180  0.2844  0.0110 -0.0467
18659W        W36183  16.985  11.093  15.736  0.0663 -0.2827  0.1745
18660W        W36184   9.791   6.518  13.224  0.2552  0.2720 -0.2694
18661W        W36185   3.816  15.416  15.233  0.2756 -0.2349  0.0664
18662W        W36186  10.975   6.264   5.726 -0.3970 -0.0389 -0.0277
18663W        W36187   5.771   1.243  14.482 -0.0918  0.0309 -0.2272
18664W        W36188  13.298  11.261  15.627  0.1799  0.0329  0.0564
18665W        W36189   9.152  13.813  15.891 -0.0621 -0.1344  0.4778
18666W        W36190  13.844  10.392  15.193 -0.2418  0.1123 -0.1039
18667W        W36191   6.372  16.394  12.557 -0.1575 -0.3019 -0.1440
18668W        W36192   9.780   5.642  17.377 -0.0945  0.0842 -0.4396
18669W        W36193  16.759   0.351   2.469 -0.0439  0.0731 -0.3379
18670W        W36194   1.450  12.337  15.489  0.0239  0.0834 -0.0428
18671W        W36195   0.653  13.120  15.025 -0.1351  0.3538  0.1386
18672W        W36196   5.019   1.467  12.786 -0.1870 -0.0304 -0.0252
18673W        W36197  16.152   3.965  15.562  0.1533 -0.0201  0.1819
18674W        W36198  11.923   8.899  14.432  0.0885  0.1477 -0.2259
18675W        W36199   5.664   5.745  16.111 -0.0795 -0.0216  0.2586
18676W        W36200   8.781  12.334  17.545  0.1309  0.0204  0.0686
18677W        W36201  10.032  13.193  16.508 -0.2184  0.0943  0.1132
18678W        W36202   1.294   6.649   2.209 -0.1025 -0.4884 -0.2060
18679W        W36203   2.239   7.851   3.502  0.0684  0.0309  0.1650
18680W        W36204  10.324   0.253   4.380 -0.1062  0.1587 -0.1410
18681W        W36205   0.873   2.956  12.801  0.0047 -0.1895  0.1046
18682W        W36206   4.353   7.472   3.357  0.0009 -0.3813 -0.0915
18683W        W36207  12.363  10.758  16.037 -0.2181  0.0960  0.1107
18684W        W36208  14.266   9.678   3.208 -0.1913  0.1158 -0.1739
18685W        W36209   7.232   7.330   3.737  0.2316  0.1004 -0.0539
18686W        W36210  11.167   0.059  13.166  0.0696 -0.1330  0.0034
18687W        W36211   3.311   9.437   5.179  0.2039 -0.1556  0.0667
18688W        W36212  11.619  14.001  15.261 -0.0638  0.2515  0.2649
18689W        W36213   1.132  11.831   0.603  0.0250  0.2558  0.0308
18690W        W36214   7.542  16.746  12.317  0.0129  0.1566 -0.0586
18691W        W36215   5.141  15.639  14.519  0.0282  0.1458  0.0119
18692W        W36216  13.532  15.373   5.654 -0.2390 -0.2589  0.2522
18693W        W36217   0.027   7.541   3.634  0.2772  0.2217 -0.0045
18694W        W36218   7.461   0.949   3.347  0.0844  0.2350  0.0924
18695W        W36219   9.094   1.668   2.484  0.0702  0.0255  0.0295
18696W        W36220   0.734  13.899   5.141 -0.0597 -0.2513  0.1548
18697W        W36221   6.017   9.951  17.644  0.1641 -0.1163  0.3091
18698W        W36222   9.214   4.274   4.931 -0.0001 -0.1286  0.0252
18699W        W36223   4.925  11.797   1.019 -0.1403 -0.0264 -0.0717
18700W        W36224  10.535   5.613  16.869  0.1021 -0.1247 -0.1595
18701W        W36225   0.916  13.484  15.921 -0.0278  0.2531  0.2732
18702W        W36226  15.197  11.325   1.026 -0.0423 -0.0610  0.4337
18703W        W36227   7.089   0.553  14.890  0.1622 -0.0138  0.4036
18704W        W36228   3.936  11.204  13.558  0.0136  0.0355  0.0780
18705W        W36229  12.310  14.295   3.896  0.1439 -0.1555  0.2545
18706W        W36230   4.482   5.630   0.968 -0.2010  0.0487  0.0957
18707W        W36231   5.148   1.675   5.429 -0.3178  0.0913  0.0203
18708W        W36232  10.942   5.819  13.895 -0.0693 -0.2330  0.2938
18709W        W36233  10.257  16.223  14.280 -0.1713  0.0381  0.1144
18710W        W36234  17.020  10.475   3.896  0.0908 -0.0657 -0.1119
18711W        W36235   0.861  11.051  15.552  0.2139  0.1310 -0.4149
18712W        W36236  11.591   4.836  16.224 -0.0930 -0.0240  0.1677
18713W        W36237   9.659  11.817   1.507 -0.0899 -0.1954  0.0402
18714W        W36238   2.756   6.580   5.165  0.3013  0.0500 -0.1401
18715W        W36239   5.976  11.760  13.120  0.2659  0.1601  0.0433
18716W        W36240   3.374  11.069   1.203 -0.1564  0.2793 -0.1856
18717W        W36241  11.330   2.803   0.788 -0.0356 -0.2151  0.1208
18718W        W36242   6.734   6.357  14.639  0.2027  0.1580  0.0631
18719W        W36243  16.249  13.266  16.070  0.0052 -0.0483 -0.4080
18720W        W36244   6.474  12.622   6.757 -0.1102 -0.0970  0.1164
18721W        W36245  12.672  12.876   0.757  0.1336 -0.6531 -0.1077
18722W        W36246  14.866   1.094   5.002  0.0970  0.0899  0.1750
18723W        W36247   0.644  16.220   3.786 -0.3362  0.1672 -0.2980
18724W        W36248  12.026   5.468   4.654  0.1741 -0.1416  0.1867
18725W        W36249   0.893  11.880  14.482  0.2622 -0.0719  0.1590
18726W        W36250  16.232   1.180  13.011  0.0186  0.0276  0.0601
18727W        W36251   6.686  11.226   4.521  0.1247  0.1940  0.4682
18728W        W36252   4.495   0.336  15.114  0.1032 -0.1866  0.0880
18729W        W36253  16.973   8.906   2.084  0.3746 -0.1039 -0.3906
18730W        W36254  11.295   5.702  14.421 -0.0632  0.0708  0.4461
18731W        W36255   5.959  14.945  15.185  0.1489 -0.2532 -0.0037
18732W        W36256  12.145  16.371   0.474  0.1137  0.1439  0.0173
18733W        W36257  10.910  10.485  15.929  0.1457 -0.0519 -0.3293
18734W        W36258   3.478  13.982  16.152  0.2270 -0.2474  0.1651
18735W        W36259   2.128  15.435   4.808  0.1327 -0.0847 -0.2453
18736W        W36260  11.161  17.007   3.109 -0.1501 -0.2292  0.0361
18737W        W36261  17.019   3.128  16.221  0.0603 -0.1898  0.0806
18738W        W36262   8.561   5.874  12.986  0.1792 -0.0161  0.0104
18739W        W36263  13.953  15.503   2.541  0.2323  0.0286  0.2014
18740W        W36264   8.768   8.845  14.391 -0.1089  0.3231  0.0418
18741W        W36265  14.946  15.570  14.140 -0.0297  0.0469  0.0696
18742W        W36266   3.149   9.325   3.038 -0.0524 -0.1343 -0.2018
18743W        W36267   1.735  16.527   1.065  0.0669  0.0639 -0.1660
18744W        W36268  13.075  16.090   4.586  0.2759  0.0984  0.2302
18745W        W36269  17.100  15.145   5.424 -0.1570 -0.2418 -0.0144
18746W        W36270  14.314   5.669  14.929  0.0594 -0.1191  0.0835
18747W        W36271  14.422   9.988  16.906 -0.0436  0.0156 -0.0454
18748W        W36272   2.401   6.009   0.938 -0.0434  0.0478  0.0042
18749W        W36273   9.522   2.873   3.032 -0.0207  0.3136  0.0833
18750W        W36274   7.666   5.789  16.701  0.1544 -0.1020 -0.2856
18751W        W36275   8.177   5.354  16.010 -0.0067  0.1923  0.0200
18752W        W36276   8.356   4.574   4.677 -0.0601  0.1714 -0.2720
18753W        W36277  10.958   1.097   0.772 -0.1695  0.0495  0.0422
18754W        W36278   6.966   7.320   1.508  0.1011 -0.0701 -0.3182
18755W        W36279  10.700  11.282   4.302  0.0814 -0.5223 -0.0141
18756W        W36280  13.322   6.545   2.743  0.0381  0.1323  0.0998
18757W        W36281   4.152  14.871   0.648  0.0095 -0.1675 -0.0097
18758W        W36282   1.308  13.044   2.192 -0.0656 -0.0801 -0.0023
18759W        W36283  14.959  10.073   2.509 -0.0632 -0.0684  0.1725
18760W        W36284  16.557   4.572   1.749  0.1737 -0.0932 -0.0204
18761W        W36285  14.434   0.142   4.918 -0.1718 -0.0009 -0.0323
18762W        W36286  14.732   4.872   5.501  0.0275 -0.0456  0.0008
18763W        W36287   0.840   2.007  12.631 -0.1345 -0.1573  0.0282
18764W        W36288   8.724  13.948   1.297 -0.1069  0.0633 -0.0724
18765W        W36289   9.674  11.340   4.578 -0.0103 -0.0847  0.0839
18766W        W36290   2.782   6.132  15.983  0.0490  0.2376 -0.3086
18767W        W36291  11.261  14.333  17.629  0.2168 -0.0345 -0.3952
18768W        W36292   4.412   5.526  16.005  0.0088  0.0867 -0.1779
18769W        W36293  13.947   0.344  14.350 -0.3177 -0.1151 -0.2075
18770W        W36294  13.709  17.147  14.536  0.1899 -0.3524  0.2100
18771W        W36295  14.458  13.847  13.639 -0.1337  0.0234 -0.4120
18772W        W36296  10.976  10.977  17.227  0.0390  0.1437  0.4140
18773W        W36297   3.489   7.977   0.856  0.1086  0.3932  0.1085
18774W        W36298  10.403   2.042   4.823  0.3447  0.2107  0.2843
18775W        W36299   2.233  12.974  15.607  0.1394  0.1660 -0.0592
18776W        W36300   3.406   4.252   3.590  0.0176 -0.0298  0.0260
18777W        W36301  11.601   7.213  17.518 -0.0891 -0.1709 -0.2631
18778W        W36302   0.310  15.237   4.974  0.1104  0.2788  0.2900
18779W        W36303   0.415   0.818   1.216  0.2402 -0.1031 -0.0803
18780W        W36304   2.759   6.163  11.762 -0.0688  0.0924  0.0711
18781W        W36305  12.182   4.778  17.010 -0.0940  0.2116 -0.1447
18782W        W36306  15.123   9.957   1.188  0.1182 -0.0301 -0.0697
18783W        W36307   9.960  11.837   2.760  0.0915 -0.2988 -0.0166
18784W        W36308   6.457   9.923  16.051 -0.0840  0.2786  0.1840
18785W        W36309  13.755   2.727   1.114 -0.2600 -0.0836  0.1807
18786W        W36310  13.268  11.671  17.491  0.0883  0.3717  0.0444
18787W        W36311  14.269   6.246   3.834 -0.1388 -0.1861 -0.2730
18788W        W36312  11.032  15.457  17.618 -0.0955 -0.4883 -0.1338
18789W        W36313   6.269  12.565   3.406 -0.0268 -0.0895 -0.2054
18790W        W36314   0.723   1.911  14.334 -0.1060 -0.0133 -0.0502
18791W        W36315  16.479  12.440  16.084  0.0635 -0.1911 -0.1672
18792W        W36316   8.491   9.071  17.572  0.0729  0.2925 -0.0374
18793W        W36317   4.463   1.422  11.870  0.0654 -0.0688 -0.0099
18794W        W36318   1.318   4.429   0.831  0.0385  0.2097  0.1358
18795W        W36319  10.856   7.082  17.369  0.1133 -0.0667 -0.3451
18796W        W36320  10.227  10.261   3.153  0.2098  0.1286 -0.2194
18797W        W36321  14.378   1.195  17.170 -0.0314  0.0415  0.1943
18798W        W36322  14.472  11.170  13.390  0.2038 -0.1665 -0.2340
18799W        W36323   0.086   6.540  13.376 -0.1793  0.1352  0.1739
18800W        W36324  14.904   9.942  13.658  0.0045 -0.0171  0.2457
18801W        W36325  11.744   1.980  15.989 -0.2790  0.2819  0.0621
18802W        W36326   3.956   4.332   2.923 -0.0393 -0.2102 -0.6316
18803W        W36327   1.330  10.031   4.303  0.1272 -0.2465 -0.1560
18804W        W36328   2.669  12.745  15.475 -0.0881 -0.0727  0.0890
18805W        W36329   4.963  11.361   2.475 -0.4233 -0.1334  0.2595
18806W        W36330   8.466   2.257  17.364  0.1784 -0.0748 -0.2038
18807W        W36331  11.651   1.814  13.159  0.0085  0.2404 -0.0786
18808W        W36332   8.658   4.379  15.544 -0.0477  0.2294  0.1312
18809W        W36333   0.541   8.405   1.069  0.0469  0.4352  0.3177
18810W        W36334  14.775   7.263  16.469  0.2708  0.0745  0.0606
18811W        W36335   2.319  16.361   2.428 -0.1344 -0.1946  0.2572
18812W        W36336  13.409  10.506   1.194 -0.2245  0.1921 -0.1845
18813W        W36337   5.141   2.707  15.543  0.1168  0.0974  0.1188
18814W        W36338  13.459   4.728  14.135 -0.0575  0.1333 -0.1934
18815W        W36339   5.476   7.578  13.968  0.1251  0.2062 -0.1112
18816W        W36340   5.727  14.173  16.409  0.4221 -0.1435 -0.3402
18817W        W36341  12.149   2.044  12.305  0.1305 -0.1368 -0.1434
18818W        W36342  16.534   4.695  15.304 -0.4183 -0.0787  0.1026
18819W        W36343  10.519   3.007  17.395  0.2042  0.1668 -0.1178
18820W        W36344  11.543  10.300  16.210 -0.0445 -0.1322  0.1599
18821W        W36345   6.549   6.905  14.544 -0.0940 -0.0526 -0.1127
18822W        W36346   7.239   7.361  16.311  0.1024  0.0624  0.2290
18823W        W36347   0.586   9.317  15.794  0.1060  0.1505  0.2465
18824W        W36348   3.742  15.455   0.563 -0.2937  0.0925  0.1832
18825W        W36349  11.705  13.024  17.253 -0.0337 -0.0837 -0.2235
18826W        W36350   7.775   7.091  12.653 -0.0499  0.2413  0.1360
18827W        W36351   6.948   3.948   0.076  0.1128  0.1857  0.1661
18828W        W36352  11.890   4.885   1.469  0.2168 -0.0945 -0.0654
18829W        W36353   7.990  16.312   0.441 -0.2221  0.0316  0.0500
18830W        W36354  14.236  14.782  11.863  0.1797  0.1890 -0.0489
18831W        W36355  13.991   1.569   2.960 -0.0829 -0.1732  0.0645
18832W        W36356  14.134   4.422  12.567  0.0897  0.1019  0.2109
18833W        W36357  13.496   1.907   0.755 -0.0629 -0.1495  0.0604
18834W        W36358   8.625   6.297   4.093 -0.3414  0.0301  0.0536
18835W        W36359   2.846  10.699   3.574 -0.0024 -0.3379 -0.0065
18836W        W36360   2.391   0.545   3.747  0.1269  0.0406  0.2094
18837W        W36361   8.122   4.490  15.945 -0.2068 -0.2774 -0.0533
18838W        W36362  15.526  13.847   2.959  0.0732  0.1169 -0.0436
18839W        W36363  10.746   3.436  16.705 -0.3274  0.2941  0.0379
18840W        W36364   3.344   9.592   1.719 -0.2685 -0.1763 -0.0476
18841W        W36365  14.580  11.615   3.257  0.4091  0.0995  0.0181
18842W        W36366   7.883   7.061  13.555 -0.0270 -0.1925 -0.2635
18843W        W36367  11.927   3.706   4.314 -0.1392  0.3006 -0.0614
18844W        W36368  15.922  13.444  12.104 -0.0436  0.0007  0.0623
18845W        W36369   5.558   7.770  16.086  0.1876  0.2578 -0.2031
18846W        W36370  11.441  10.779  16.955 -0.1107 -0.2174  0.1514
18847W        W36371   3.595   9.245   6.198  0.2459 -0.0055  0.0991
18848W        W36372  14.649  10.829   0.822  0.1367 -0.0698  0.1706
18849W        W36373   1.246  13.242  12.678 -0.0464 -0.0277 -0.0562
18850W        W36374   6.721   4.477  16.526  0.2711  0.1031  0.1082
18851W        W36375   1.780  12.739   1.505 -0.0518  0.2592  0.1596
18852W        W36376  16.283  11.085   5.143  0.2427 -0.0435 -0.0815
18853W        W36377  12.404  15.201   1.562 -0.0556  0.0186  0.1722
18854W        W36378  15.945   6.872   0.238  0.1332 -0.0944  0.1842
18855W        W36379  16.858   9.025  15.289  0.0530 -0.2773 -0.1122
18856W        W36380   0.673   2.490   1.613  0.0061  0.1043  0.0234
18857W        W36381   9.540  14.125  13.528  0.0168 -0.1508 -0.0908
18858W        W36382   2.281   8.249  13.754  0.0723 -0.1899 -0.6311
18859W        W36383   3.978   5.301   0.442 -0.0923 -0.0258  0.0214
18860W        W36384   8.235   0.206   3.186  0.2895 -0.0407  0.1052
18861W        W36385   8.647  13.644  17.293  0.2676  0.0612  0.2397
18862W        W36386  16.177  16.549   3.263  0.0266  0.1460 -0.0861
18863W        W36387  12.180  15.917   5.558 -0.1179  0.3884  0.0086
18864W        W36388   8.946   4.037   3.978  0.0813  0.3123 -0.0055
18865W        W36389   3.912   5.231   1.649 -0.0275 -0.1820 -0.2978
18866W        W36390   2.491   4.713  12.792  0.2461  0.0432  0.1070
18867W        W36391   6.296  11.128   0.220 -0.2197 -0.1614 -0.1609
18868W        W36392  11.663  14.302  15.672 -0.0743 -0.0519  0.0076
18869W        W36393   2.791  15.358   2.560 -0.1218 -0.3196  0.0536
18870W        W36394   5.719  15.054  16.753 -0.1602 -0.0936  0.4429
18871W        W36395  15.936   0.645   1.502 -0.1441 -0.3228 -0.1612
18872W        W36396  12.029  12.679   0.945 -0.1114 -0.0500  0.2616
18873W        W36397   5.366   5.234  12.803 -0.0161 -0.2127  0.1531
18874W        W36398   3.387   3.359  17.209  0.0019  0.1609 -0.0805
18875W        W36399   0.450  11.537   0.968  0.0214 -0.1417 -0.2506
18876W        W36400  10.414   9.285  14.634  0.0438  0.1771  0.0779
18877W        W36401   3.724  11.164   0.750  0.1044  0.3252  0.1328
18878W        W36402   9.147   9.566  13.880 -0.3422  0.0794 -0.1974
18879W        W36403   8.673   1.349   0.735 -0.0002  0.3852  0.0843
18880W        W36404   9.530   0.862  13.332  0.1286 -0.0414 -0.0504
18881W        W36405  11.572   9.302   0.683 -0.0043  0.0454  0.1316
18882W        W36406   0.699   4.411   3.785 -0.0202  0.1071  0.0219
18883W        W36407  10.662  10.535   5.145 -0.0861 -0.0141  0.1074
18884W        W36408   3.662  10.586  12.567  0.0080 -0.2786 -0.0241
18885W        W36409   6.558   9.469   3.317 -0.0814 -0.0573 -0.1387
18886W        W36410   9.865  12.152   2.264  0.0220 -0.4400  0.0907
18887W        W36411  16.873  10.296  16.722 -0.3827 -0.1303 -0.1032
18888W        W36412  13.044  12.315  16.734 -0.3127  0.2459  0.0757
18889W        W36413   4.540   4.283  15.162 -0.2881  0.0106  0.0182
18890W        W36414   3.167   4.017   2.735  0.0191  0.1962 -0.1635
18891W        W36415   7.155   5.999   1.643 -0.3747 -0.0304  0.1559
18892W        W36416   7.863  14.763   2.780 -0.0960 -0.0015 -0.0953
18893W        W36417   9.631   3.044   2.078  0.1121 -0.2339 -0.1035
18894W        W36418  11.178   7.803  13.921  0.0594  0.1580 -0.0578
18895W        W36419  14.266   4.813  15.509 -0.4597  0.1683 -0.0629
18896W        W36420   3.430   9.792   0.780 -0.0136  0.0574 -0.3058
18897W        W36421   1.612   9.872  12.448 -0.1573  0.0574 -0.1039
18898W        W36422  12.384   3.992  16.177 -0.0190 -0.0263 -0.2619
18899W        W36423  16.582   2.469  14.898 -0.3063  0.1511  0.0549
18900W        W36424   5.194   8.360   4.023  0.0588  0.1442  0.3149
18901W        W36425  13.528  16.836  16.726 -0.1813 -0.1566 -0.0240
18902W        W36426  11.298   9.050   5.038 -0.1398  0.0543  0.2258
18903W        W36427  14.385  11.955   2.489  0.3674 -0.1755  0.0648
18904W        W36428  10.906  13.883  12.568 -0.2078 -0.0427  0.1358
18905W        W36429  11.916   9.612   0.586 -0.0103 -0.3702  0.0184
18906W        W36430  16.554   0.471   5.392  0.1533  0.1952  0.4299
18907W        W36431   5.381   6.067  12.704 -0.0930 -0.1447  0.0680
18908W        W36432   2.132  14.290   2.316 -0.0387 -0.1636 -0.1866
18909W        W36433  15.184   5.276  12.328 -0.1265  0.0277  0.2508
18910W        W36434   8.986  13.184   1.867  0.0305 -0.0694 -0.2659
18911W        W36435  11.784   5.035  14.082  0.1165  0.1496  0.0136
18912W        W36436   4.557  14.883  14.638  0.4237 -0.0118 -0.1375
18913W        W36437  12.280  11.227   1.508 -0.1673 -0.1540 -0.1238
18914W        W36438  16.638  16.851  13.023 -0.2664  0.2384 -0.0226
18915W        W36439  17.086  16.596  14.770  0.1723  0.1430  0.1024
18916W        W36440  13.723   2.462   4.175 -0.1116  0.2025 -0.1252
18917W        W36441   9.627   2.746   4.196  0.0383 -0.1521 -0.5644
18918W        W36442   3.864  13.771   2.715 -0.4143 -0.3884  0.2026
18919W        W36443  12.482   5.017  16.063  0.1184  0.1169 -0.2520
18920W        W36444   2.379  11.217   4.346 -0.1127  0.0217 -0.0665
18921W        W36445  10.726  15.097   0.041 -0.0276 -0.2767 -0.3750
18922W        W36446  10.895  11.835  15.605  0.1493  0.1791  0.3825
18923W        W36447  13.123   6.436   1.497  0.0972 -0.0140 -0.2450
18924W        W36448  10.380  14.166   5.198 -0.0636  0.0801  0.0475
18925W        W36449  10.850   1.931  17.681 -0.1031  0.2865 -0.0837
18926W        W36450   1.941  15.531   4.362  0.0816  0.1572 -0.1501
18927W        W36451   7.749   6.120   5.113  0.2544 -0.1393  0.0059
18928W        W36452   1.959   6.443   5.470 -0.3668 -0.0419  0.1446
18929W        W36453  14.262   2.625   5.052 -0.1423 -0.0371  0.0444
18930W        W36454   2.763   0.161   3.473 -0.0240 -0.0040 -0.1345
18931W        W36455   6.695   9.142  14.493  0.1041 -0.0317 -0.1557
18932W        W36456  15.130  13.619  12.092  0.0105  0.2441  0.0007
18933W        W36457   9.736  16.085   3.535 -0.1279 -0.1071  0.2614
18934W        W36458   9.154  12.957  12.920 -0.2117 -0.2167 -0.3332
18935W        W36459   1.374   9.573  15.020 -0.1444  0.1506  0.0401
18936W        W36460   6.170   3.372  16.519 -0.0701 -0.0877  0.0562
18937W        W36461  14.235  11.397   2.630  0.2347 -0.0272  0.0291
18938W        W36462   3.030   3.324   1.306 -0.4631  0.0336  0.1847
18939W        W36463  13.052   8.715  15.976 -0.0332  0.1974  0.0884
18940W        W36464   6.763   3.367   4.647  0.2274  0.2578 -0.0442
18941W        W36465   0.030  15.591   5.130  0.2546 -0.1095  0.1095
18942W        W36466  13.372   1.982   1.858  0.0793 -0.2519 -0.0741
18943W        W36467  13.987   3.946  17.096  0.4085 -0.1970 -0.0255
18944W        W36468   4.134   8.882  11.501  0.1913  0.1782 -0.0687
18945W        W36469  10.892   7.990   0.707  0.2273  0.1073  0.1637
18946W        W36470  15.242  16.831   0.394 -0.0527  0.1624 -0.0323
18947W        W36471  11.919  11.118  14.018  0.3021 -0.1870  0.1577
18948W        W36472   1.943   4.195  13.424  0.0455 -0.0641 -0.1667
18949W        W36473   3.488   6.615  13.241  0.1024  0.3641 -0.0635
18950W        W36474   4.599  16.449   0.788 -0.1421 -0.2467 -0.1285
18951W        W36475  15.654   9.030   1.165 -0.3146 -0.1635 -0.3746
18952W        W36476   4.766   0.316  16.184 -0.1141 -0.1181  0.3956
18953W        W36477  11.247  13.748   5.108 -0.2101  0.0143 -0.3065
18954W        W36478   2.295  13.353   2.381 -0.1509 -0.0784  0.2380
18955W        W36479   6.976  10.531  14.678 -0.1392 -0.2326 -0.1817
18956W        W36480  11.763   6.836   1.252  0.0164 -0.1713 -0.0259
18957W        W36481  11.007   9.435   4.903 -0.0155 -0.0612 -0.1097
18958W        W36482  14.470   3.796   4.578  0.2022  0.0149  0.2491
18959W        W36483  14.781  17.137   2.510  0.2150 -0.1163 -0.1114
18960W        W36484   7.090  12.599  17.516  0.0810 -0.1352  0.1094
18961W        W36485   1.138   3.619  13.324 -0.1396 -0.2905 -0.0986
18962W        W36486  12.562  10.602   2.138  0.0620  0.0192 -0.0904
18963W        W36487   5.743   9.949   4.071 -0.0033 -0.1342  0.0258
18964W        W36488   4.121   3.059   2.781  0.1165 -0.1357 -0.2783
18965W        W36489   3.074  10.157   5.787 -0.2223 -0.2171  0.1160
18966W        W36490  11.804   3.708  17.562  0.0942 -0.2439 -0.0481
18967W        W36491   3.139  11.958   0.212 -0.0562 -0.0674 -0.2161
18968W        W36492  16.654  15.379   5.382  0.1987  0.0261 -0.1782
18969W        W36493  14.693  13.716  17.073 -0.0351 -0.0582  0.1804
18970W        W36494   2.590  11.521  15.437  0.0839  0.4220  0.0954
18971W        W36495   9.508   4.394   3.749  0.2642  0.0259  0.2087
18972W        W36496   9.111  15.383  12.283 -0.2426 -0.1219  0.3359
18973W        W36497  13.961  10.023   2.184 -0.0250  0.2745  0.1657
18974W        W36498  10.562  13.640   0.994 -0.1227  0.1719 -0.2122
18975W        W36499  10.573   5.151   5.274  0.0831 -0.1212  0.3061
18976W        W36500   9.959   8.605   4.981  0.3001 -0.0143 -0.1495
18977W        W36501  15.007   7.604   1.578  0.1736 -0.0849  0.4811
18978W        W36502  11.568   2.676  17.509  0.2616  0.0473 -0.0557
18979W        W36503   1.418  15.105  13.352 -0.0606 -0.0868 -0.0906
18980W        W36504   7.015  16.174   5.512  0.4327  0.1197 -0.2375
18981W        W36505   3.824   9.052   5.653 -0.0746 -0.2122  0.0872
18982W        W36506  11.598  16.691  12.373  0.2165  0.1067 -0.2888
18983W        W36507  10.194  10.790   0.900  0.0190  0.0654  0.0989
18984W        W36508  17.074  14.768   5.768 -0.0664 -0.2613 -0.0116
18985W        W36509  12.864   6.376   4.404 -0.0139 -0.0340  0.2461
18986W        W36510   1.907   7.981   1.459  0.0127 -0.1169 -0.4840
18987W        W36511  11.150  15.065  15.929  0.3387 -0.1267  0.1071
18988W        W36512  11.902  10.482  16.801  0.0983  0.0295 -0.0881
18989W        W36513   5.190   9.316  15.589  0.0335 -0.1034  0.1847
18990W        W36514   7.458   4.862  16.880 -0.2560 -0.1114 -0.1325
18991W        W36515   4.712   2.837   5.441  0.1003  0.2248  0.2140
18992W        W36516  10.002   6.929   5.234 -0.1144 -0.0458 -0.0518
18993W        W36517   9.630   4.307   4.613 -0.0592  0.1359 -0.2552
18994W        W36518   9.502  10.391   1.371 -0.0289  0.1644 -0.0207
18995W        W36519   2.218   0.613  14.231  0.3564  0.0226  0.4768
18996W        W36520   8.551  11.583  16.952  0.1956  0.1671  0.0624
18997W        W36521   3.871  12.095  17.154  0.0674  0.2630 -0.0405
18998W        W36522   3.750   3.738  16.354  0.2582 -0.0433  0.0630
18999W        W36523   1.930   4.784  17.391  0.1503  0.0185  0.0930
19000W        W36524  10.395  15.921   1.862  0.0934  0.0010 -0.0127
19001W        W36525   9.534   6.486   0.235 -0.2269 -0.0878  0.1084
19002W        W36526  10.933  15.952  16.253 -0.2567 -0.0046  0.0690
19003W        W36527  13.118  13.848   4.590  0.1108  0.1142 -0.3580
19004W        W36528   9.054   6.705   0.107  0.1300 -0.1473 -0.1193
19005W        W36529  16.176   5.800   1.901  0.1740  0.2030  0.0275
19006W        W36530  12.405   4.424   2.867  0.1688 -0.1677  0.1138
19007W        W36531   9.675  14.120   0.040  0.1542  0.1747 -0.1478
19008W        W36532   7.657   9.899   3.977 -0.1616  0.1487 -0.1461
19009W        W36533  11.679   0.133   6.402 -0.1749 -0.2556  0.0418
19010W        W36534   8.600  13.609  14.315 -0.2167 -0.1015 -0.1317
19011W        W36535   8.679  16.209   4.734  0.0987  0.0577 -0.0194
19012W        W36536   6.599   9.228   0.791 -0.0703 -0.0577 -0.1359
19013W        W36537   7.804  10.696  13.123  0.1114 -0.0176 -0.2910
19014W        W36538   4.709   6.725   2.253  0.1888  0.1181  0.0547
19015W        W36539  16.433   9.308  15.429  0.1362  0.1447 -0.2352
19016W        W36540  13.575   1.005   4.379  0.0220  0.0794  0.1104
19017W        W36541  14.556   5.228  17.458 -0.0695  0.3295  0.1443
19018W        W36542  10.916   6.343  14.195  0.1198 -0.1203  0.1042
19019W        W36543  12.665   3.838   4.458  0.0136 -0.1582 -0.0478
19020W        W36544   8.659   0.665  12.202 -0.2835  0.0476  0.0782
19021W        W36545  12.198  16.054  17.684  0.2493  0.3092  0.0770
19022W        W36546   9.523  15.109  14.853 -0.0169 -0.0896 -0.0565
19023W        W36547   2.144  15.208   3.325  0.1116  0.4419  0.0707
19024W        W36548  10.152   3.382   1.256 -0.0137  0.0672 -0.1609
19025W        W36549  16.270  11.931   1.047 -0.1467  0.0328  0.0821
19026W        W36550  11.212   3.577  15.461 -0.1327  0.0802 -0.0867
19027W        W36551  11.411  11.409  13.420  0.2416 -0.3060 -0.0786
19028W        W36552   3.450  16.063  13.223 -0.2993  0.2422 -0.2604
19029W        W36553   4.506   2.645  17.553 -0.1038 -0.0649  0.2809
19030W        W36554  12.699   4.882  17.497 -0.2840  0.1256  0.0341
19031W        W36555  13.400  12.282   0.217 -0.1307 -0.0851  0.2993
19032W        W36556  17.146  12.747  16.965  0.0949  0.2930  0.0285
19033W        W36557   4.019   1.227  13.736  0.0825 -0.1557 -0.1176
19034W        W36558  14.408   6.972  16.139  0.0893 -0.0681 -0.0549
19035W        W36559   8.453  15.104   1.539 -0.4726  0.0217  0.1873
19036W        W36560   7.181   8.653   3.638 -0.1347 -0.0544 -0.1532
19037W        W36561   7.681   6.281   2.872 -0.0374  0.1689  0.0231
19038W        W36562   2.362   1.753   1.595 -0.0147  0.1083  0.0280
19039W        W36563  11.923  12.444   3.162  0.0244 -0.4053 -0.1390
19040W        W36564   6.388   8.556   0.413 -0.3103  0.0546  0.0533
19041W        W36565  16.344   8.209  13.817  0.3029 -0.0142  0.0873
19042W        W36566  15.448   8.151   0.856 -0.1341 -0.0851 -0.0148
19043W        W36567  16.144  10.178   4.808  0.0112 -0.0008 -0.0222
19044W        W36568   7.351  11.053   3.416 -0.0403  0.0583  0.2081
19045W        W36569  12.895   7.720   4.421  0.0550 -0.1583  0.1197
19046W        W36570   4.069   7.895  16.745 -0.1319 -0.1676 -0.0078
19047W        W36571   3.514  12.115   0.485 -0.0922 -0.0686 -0.3042
19048W        W36572  15.389   2.550   4.651 -0.2154  0.0832  0.0604
19049W        W36573  15.400   9.208   2.163  0.0047 -0.2390 -0.1808
19050W        W36574  16.167  13.468   5.848 -0.2466 -0.1424 -0.2546
19051W        W36575  15.797  16.612   4.451  0.0055  0.0044  0.0827
19052W        W36576   2.455  13.944   4.098  0.2261  0.0508  0.1928
19053W        W36577  12.819  11.419  16.343 -0.0475  0.0068  0.0414
19054W        W36578  13.272  11.878  12.849 -0.0284 -0.2554 -0.0090
19055W        W36579   5.911  11.497   2.455 -0.1177 -0.0999  0.1268
19056W        W36580   5.821  12.845   4.175  0.1817  0.0394 -0.3354
19057W        W36581  12.782  10.934  14.412 -0.1164  0.1089 -0.2024
19058W        W36582   4.632   0.630  14.204 -0.0732 -0.1254  0.0149
19059W        W36583   6.613  12.891  17.481 -0.0818  0.0899  0.1044
19060W        W36584  17.017   3.309  14.415 -0.3135 -0.0290 -0.0050
19061W        W36585  12.829   1.586   4.055  0.1369  0.2669 -0.0992
19062W        W36586  11.526  14.281   1.945 -0.0211 -0.0912  0.0262
19063W        W36587  15.546  10.004   0.515 -0.2063  0.1197  0.0532
19064W        W36588   0.084   8.603  14.584  0.1151 -0.3581 -0.0773
19065W        W36589  12.055  16.459   4.757 -0.1813 -0.2562  0.1450
19066W        W36590   1.888  16.273  13.572  0.1790 -0.1232 -0.0150
19067W        W36591   7.202  10.517  16.118  0.0061  0.3531 -0.1014
19068W        W36592   0.088  11.462   3.634  0.0715  0.0306  0.2746
19069W        W36593   7.872   8.993  16.625  0.0663 -0.0604 -0.0577
19070W        W36594  12.899   0.464  15.634  0.1327 -0.0147  0.1243
19071W        W36595  14.474   7.010   0.430 -0.0236 -0.1368  0.0019
19072W        W36596  11.536  11.341  14.800  0.0079 -0.0452  0.0744
19073W        W36597   6.082   6.742   3.406  0.2405 -0.1729 -0.0624
19074W        W36598   9.924   7.376   6.137  0.0661  0.0533  0.1844
19075W        W36599  11.848   8.407  16.202  0.0347  0.0089  0.0859
19076W        W36600   0.432  15.560   4.378 -0.0215 -0.0487 -0.0028
19077W        W36601   0.296   6.929  14.632 -0.1682  0.0823 -0.1768
19078W        W36602  16.400   3.271  13.773 -0.3862 -0.0118  0.2069
19079W        W36603   9.920   1.773  15.785 -0.0735  0.1930  0.0219
19080W        W36604   2.505   4.221  13.472 -0.1157 -0.1655 -0.1410
19081W        W36605   9.391  11.060  17.339  0.0373 -0.4296 -0.0507
19082W        W36606   3.971  14.636  16.297  0.1168  0.0466 -0.1087
19083W        W36607   3.481  14.797   5.815 -0.2750  0.3022  0.2086
19084W        W36608  17.127   6.738   1.153 -0.1945  0.3867  0.3125
19085W        W36609   5.537   5.806  14.241  0.3934 -0.0009 -0.1150
19086W        W36610  11.427   1.533  14.602 -0.1184 -0.1174 -0.0900
19087W        W36611  13.976   6.512  17.393 -0.1437  0.0670  0.1623
19088W        W36612   7.525  16.342   0.834 -0.0149 -0.2202  0.0199
19089W        W36613  11.579   8.835   2.354  0.4111  0.0823  0.1569
19090W        W36614  10.624  12.383  11.049  0.0427 -0.0006  0.2244
19091W        W36615  15.667   4.053   0.899  0.4586 -0.1080  0.0565
19092W        W36616   0.965   5.921  12.637  0.1674 -0.0991  0.0591
19093W        W36617  13.842   0.770  14.016 -0.0233  0.0982 -0.2587
19094W        W36618   7.120   0.409   1.533 -0.1218 -0.0917 -0.0788
19095W        W36619   7.353   8.701  15.448 -0.2222  0.0917  0.0164
19096W        W36620   5.088  13.835   5.463 -0.0280 -0.0489  0.0172
19097W        W36621   7.541  10.769   5.181 -0.0864 -0.2592  0.2555
19098W        W36622   2.723  11.573   5.793  0.1060 -0.2718  0.2556
19099W        W36623   3.275   3.620  17.625 -0.0661 -0.2357 -0.0310
19100W        W36624   2.809  12.824   2.034  0.1866 -0.2668  0.1557
19101W        W36625  15.803   6.366  13.744 -0.0072 -0.0282 -0.0144
19102W        W36626  12.689   9.157  17.601 -0.2448 -0.1839  0.1558
19103W        W36627  14.700   9.036   1.089  0.1736 -0.0794  0.1885
19104W        W36628  10.927   9.877   4.538 -0.1217  0.1434 -0.0613
19105W        W36629   8.101   9.765  13.011  0.0571  0.0456  0.0293
19106W        W36630   4.486   3.307  15.648  0.1919 -0.2816 -0.2542
19107W        W36631   6.779  12.558  16.657 -0.1666  0.5498  0.1615
19108W        W36632  10.241   5.854  12.137  0.2079 -0.3660 -0.5357
19109W        W36633  16.916   7.457   0.419 -0.1428  0.2054  0.1389
19110W        W36634  11.664   1.894   6.714  0.0521 -0.2220 -0.0134
19111W        W36635   0.236   4.567   3.969 -0.1823  0.2396 -0.2948
19112W        W36636   1.224   3.794  12.568  0.0448 -0.1836  0.2955
19113W        W36637   9.004   0.736  12.560 -0.0797  0.0128 -0.0700
19114W        W36638   8.770  16.781  16.769  0.0820 -0.0130 -0.1734
19115W        W36639   4.619  16.153  13.492  0.2230  0.0117  0.0266
19116W        W36640   0.353  12.029   3.792  0.1308 -0.2080 -0.5158
19117W        W36641   4.512   1.562  12.911 -0.1659 -0.1111 -0.0627
19118W        W36642  16.329  12.424  12.772  0.4208  0.2102 -0.0033
19119W        W36643   8.642  14.984  16.312  0.2319 -0.1257 -0.1180
19120W        W36644   2.853   4.959   5.447  0.0125  0.0255 -0.1586
19121W        W36645  13.480   8.213  14.400  0.2404 -0.0092 -0.2418
19122W        W36646   8.780   9.540  16.449  0.0392  0.0376 -0.0417
19123W        W36647   1.390   4.234   5.285 -0.1497 -0.1122  0.0691
19124W        W36648   1.730   5.982   5.587  0.0854 -0.2798  0.1021
19125W        W36649   3.369  13.306  14.257 -0.0418  0.0302 -0.0330
19126W        W36650  11.031   4.861  14.827 -0.1927 -0.1253  0.0912
19127W        W36651  12.155  16.352   3.922  0.1164 -0.1457 -0.1373
19128W        W36652   1.780   6.134   5.075  0.1006  0.0149 -0.1707
19129W        W36653  17.078   0.845   1.974  0.2739  0.3909 -0.1179
19130W        W36654   1.995   3.040  14.348 -0.0864 -0.1090 -0.2351
19131W        W36655  14.682  10.896   0.223 -0.2144 -0.1880 -0.0210
19132W        W36656   1.753  14.193  17.161 -0.2846 -0.2262  0.0590
19133W        W36657  13.061  15.225   2.664 -0.1462  0.1779 -0.1073
19134W        W36658   6.477  12.172   3.673  0.1844  0.0614 -0.2405
19135W        W36659  11.413  11.739  12.881 -0.1375 -0.2851  0.3470
19136W        W36660   0.201   2.463  16.149 -0.1038  0.2175  0.1065
19137W        W36661   3.980  15.046   0.133 -0.0208 -0.1115  0.0769
19138W        W36662   4.678  13.068   2.991  0.1278 -0.3335  0.2221
19139W        W36663  16.576  11.555   1.613 -0.3080  0.2117  0.1520
19140W        W36664   5.323   1.040   2.202 -0.3622 -0.3742  0.1473
19141W        W36665  15.975   6.501   0.671 -0.1261  0.1075 -0.3316
19142W        W36666   3.355  15.291  15.385 -0.0074 -0.1586 -0.1419
19143W        W36667   1.523   1.380  13.489 -0.0125 -0.2043 -0.2140
19144W        W36668   3.818  12.143  15.684 -0.0558 -0.1651  0.0104
19145W        W36669  15.388   4.683   4.339 -0.0610 -0.2137 -0.0317
19146W        W36670   2.499   3.857  13.838 -0.1241  0.0004  0.0035
19147W        W36671  12.530   5.173   2.050 -0.0243  0.1721  0.3452
19148W        W36672   4.322   0.438   1.380  0.0357  0.0922  0.0145
19149W        W36673   0.156   5.831   5.505 -0.0237  0.5674  0.1395
19150W        W36674   4.755   7.162   3.066 -0.0563 -0.2296 -0.0707
19151W        W36675   7.287  16.986  15.456  0.1771 -0.1075  0.1289
19152W        W36676  11.779  14.078  12.525 -0.0022  0.3019  0.3172
19153W        W36677   5.868   0.392  16.774  0.0006 -0.1585 -0.2315
19154W        W36678  16.525   7.207  13.124 -0.0350 -0.0864 -0.2243
19155W        W36679   7.032   9.903  16.719  0.3411 -0.0232  0.2961
19156W        W36680  13.269   8.243   4.935  0.2628  0.1537 -0.1383
19157W        W36681  11.334   5.925   5.936 -0.1645  0.1097 -0.3320
19158W        W36682   2.103  16.202  16.815  0.2427 -0.1834 -0.2060
19159W        W36683  12.805   4.113   2.929  0.2189 -0.0386  0.0545
19160W        W36684   0.614   2.579   4.897  0.0365  0.3231 -0.2393
19161W        W36685   7.608   0.948  17.052 -0.0752  0.0632 -0.1303
19162W        W36686  13.873   7.339  13.305 -0.1256  0.1702 -0.0046
19163W        W36687  11.805   8.166  13.550 -0.0312 -0.1034 -0.0564
19164W        W36688  16.148   3.052  16.042  0.0364  0.0550  0.2590
19165W        W36689  11.261   3.884  12.239 -0.2362 -0.2667  0.2261
19166W        W36690  14.555   5.931   2.754 -0.2735  0.1889 -0.1568
19167W        W36691   1.418   9.006  16.663 -0.0972 -0.0853 -0.2194
19168W        W36692  13.567  13.033  14.098 -0.1365  0.0850  0.0556
19169W        W36693  15.230   2.342   1.536 -0.1236 -0.1952  0.2751
19170W        W36694   9.693   9.592  15.961  0.0952 -0.1172 -0.0091
19171W        W36695   5.498   8.723   3.857 -0.0784  0.0506 -0.0875
19172W        W36696  11.111  14.940  16.817 -0.1694 -0.5942 -0.0112
19173W        W36697  10.941   1.917   4.717  0.1229 -0.2674  0.1082
19174W        W36698  12.976  16.488   1.070  0.1584  0.2201 -0.1764
19175W        W36699  15.719   8.248   4.405  0.0827 -0.0551 -0.0681
19176W        W36700  14.251   2.449   0.133 -0.0790  0.0217  0.0103
19177W        W36701   5.327  12.314   4.752  0.3296  0.2103  0.1179
19178W        W36702   9.309  15.187  16.147  0.0345  0.0351 -0.0194
19179W        W36703   9.984  11.783  15.064  0.0694  0.3871  0.0002
19180W        W36704   1.816   8.400   0.150  0.0048  0.1050 -0.3999
19181W        W36705   2.173  15.439  13.172  0.0196  0.0225  0.2389
19182W        W36706   6.798  10.436   4.743 -0.0025  0.1951 -0.1969
19183W        W36707   4.450   4.287   3.024 -0.2015  0.0509  0.0089
19184W        W36708   0.531  15.899   2.777  0.0347  0.2124 -0.2214
19185W        W36709   2.901  11.009  16.471 -0.2677 -0.0328 -0.0379
19186W        W36710   1.684   5.080   4.036  0.1294  0.0651 -0.1817
19187W        W36711   8.893   8.391  14.087 -0.2850  0.3947 -0.2427
19188W        W36712   6.485  10.651  13.505 -0.0265  0.2124  0.0083
19189W        W36713   3.275  10.236   0.001 -0.0630 -0.0174 -0.1520
19190W        W36714  10.700  10.232  17.514  0.1039 -0.0915  0.0674
19191W        W36715   0.675   9.384  17.334  0.2387 -0.1731  0.0014
19192W        W36716  15.634   3.492   5.011  0.1091 -0.1421 -0.2090
19193W        W36717   4.852  11.441  16.047 -0.0009 -0.2099 -0.1282
19194W        W36718   5.038   1.631   0.459 -0.3326  0.1301  0.0253
19195W        W36719   4.778   4.084   5.277  0.0666 -0.0772 -0.0489
19196W        W36720  10.710   3.904  17.682  0.1154 -0.0451 -0.1431
19197W        W36721  11.238  12.258  14.369 -0.0972 -0.2611 -0.0702
19198W        W36722   9.145   6.876   5.588  0.1823 -0.2474 -0.1012
19199W        W36723   4.387   0.194   2.709 -0.0530  0.2882 -0.0845
19200W        W36724  11.481   0.099   3.768 -0.0907  0.1850 -0.3564
19201W        W36725  12.879   3.763   4.938  0.0253 -0.0714 -0.1912
19202W        W36726   4.269   2.293   0.104 -0.0485 -0.0127  0.1502
19203W        W36727  14.457  11.771  14.492 -0.1396  0.2021  0.6217
19204W        W36728   7.432   2.966   1.125 -0.2183 -0.1322 -0.0096
19205W        W36729  11.609   5.927  13.679 -0.0873 -0.2780  0.2868
19206W        W36730   7.213  15.710  16.539  0.0554  0.1595 -0.4167
19207W        W36731  15.078   8.715  16.839  0.1921 -0.1074  0.2361
19208W        W36732  14.819  11.546  13.530 -0.0299 -0.0070 -0.2417
19209W        W36733   9.308  11.173   0.740 -0.1363  0.4771 -0.2088
19210W        W36734   4.979   1.574  16.185  0.1035 -0.0497 -0.1209
19211W        W36735  15.584   6.525  15.145 -0.1724 -0.2266  0.0531
19212W        W36736  13.314   1.712   3.961 -0.0193  0.3497  0.0144
19213W        W36737  14.764   9.929   0.874 -0.3855 -0.1457  0.1558
19214W        W36738  16.333  14.549   1.030  0.0206 -0.1659  0.1784
19215W        W36739  15.004   2.279   2.713  0.2099  0.0811  0.0862
19216W        W36740   4.627  10.771   5.270 -0.0312  0.0177 -0.0240
19217W        W36741   3.221   7.725   3.855 -0.0614 -0.1885  0.0872
19218W        W36742  14.609  13.224  13.287 -0.1030 -0.1466 -0.0951
19219W        W36743  13.317   9.290  12.230  0.0127  0.1586 -0.0244
19220W        W36744  12.637   1.578   2.366  0.1547 -0.2043  0.3342
19221W        W36745  14.664  11.387   2.316 -0.0906  0.1476 -0.0381
19222W        W36746   4.136  16.904   0.708  0.0640 -0.0783 -0.1849
19223W        W36747   7.533   8.043   0.513 -0.0072  0.1581 -0.0485
19224W        W36748   3.793   9.298  14.543 -0.0935  0.0477 -0.1357
19225W        W36749   0.887   0.909  17.704 -0.0120 -0.3079 -0.0827
19226W        W36750  12.319   0.325   2.808 -0.0632 -0.1236  0.0159
19227W        W36751   5.586   7.339   4.485  0.1860 -0.2082  0.1807
19228W        W36752  16.718  11.080   0.974 -0.0035  0.0566  0.2761
19229W        W36753   7.178   1.471   1.892 -0.3778  0.0113 -0.4887
19230W        W36754  13.335   1.016  12.613 -0.3483  0.1620 -0.5141
19231W        W36755   3.689  11.211   5.199  0.0739  0.2272 -0.0828
19232W        W36756   0.762  13.015   5.543  0.0746  0.1095  0.0597
19233W        W36757   5.070  13.077   2.241  0.0174  0.2099 -0.1630
19234W        W36758  10.055   9.909   3.609  0.2004 -0.0080  0.2323
19235W        W36759  14.535   8.974   2.163 -0.0141 -0.4278  0.0127
19236W        W36760   2.935   1.413  14.014  0.2272  0.1995 -0.1767
19237W        W36761   9.404  15.179  16.650 -0.2826 -0.0386 -0.0438
19238W        W36762   2.779  14.940  17.460 -0.3278 -0.0810 -0.1323
19239W        W36763  16.840   0.763   5.029  0.0982  0.0603  0.0020
19240W        W36764  14.887   4.079  17.559  0.0634  0.1590 -0.2303
19241W        W36765   5.885   2.581   2.835 -0.0117 -0.1699  0.0705
19242W        W36766   9.314   6.514  13.140  0.0622 -0.1861  0.1956
19243W        W36767  12.554   9.880   4.891 -0.1636 -0.3512 -0.3232
19244W        W36768   5.950  12.926   1.681 -0.1960  0.0164 -0.1716
19245W        W36769  15.159  10.093  17.201 -0.3216  0.1804 -0.2871
19246W        W36770  16.452   1.525   5.388 -0.0152 -0.3359 -0.1724
19247W        W36771  13.406   2.533   3.679  0.0196  0.0653  0.0994
19248W        W36772  10.036   1.058   1.884  0.2803 -0.1805 -0.0455
19249W        W36773  13.403  13.962  14.025  0.0800  0.2267 -0.0091
19250W        W36774  13.667   4.045   2.594  0.0179  0.0574 -0.0877
19251W        W36775   8.193  13.468  15.545 -0.0260 -0.1027  0.0080
19252W        W36776  14.021   0.118  16.088  0.0777 -0.1537 -0.1363
19253W        W36777   5.368   0.046   5.615  0.2892  0.2417  0.0537
19254W        W36778  15.583   6.043  14.186  0.1128  0.1855  0.1695
19255W        W36779   3.192   8.286   3.981  0.3341 -0.1076 -0.1657
19256W        W36780  14.113  11.174  13.785 -0.1798 -0.0444  0.2145
19257W        W36781  16.068  15.100  12.644  0.1849 -0.2006 -0.0775
19258W        W36782   1.672  15.712  15.750  0.1976 -0.0843 -0.0953
19259W        W36783  14.980   8.930  15.438  0.3789 -0.0298 -0.3231
19260W        W36784  16.234   0.624   3.805 -0.2215  0.0246  0.3110
19261W        W36785   1.073  15.851  14.340 -0.1750  0.0421 -0.1074
19262W        W36786  10.958   8.643  13.019  0.2022 -0.1553 -0.1347
19263W        W36787   0.527   9.537   4.049 -0.0948 -0.0027  0.3059
19264W        W36788  13.973  16.062   2.562 -0.0895  0.1337  0.2022
19265W        W36789  11.101   7.719  16.020 -0.0168  0.0407 -0.0354
19266W        W36790   7.374   4.805  12.707 -0.1081 -0.0163  0.1381
19267W        W36791  16.955   4.868   4.626 -0.0907  0.0317  0.2721
19268W        W36792   8.583  15.766  13.726  0.0680 -0.0364  0.1889
19269W        W36793   8.937   7.592  14.553  0.0741 -0.0481 -0.1627
19270W        W36794  11.068  13.753  14.250  0.0101 -0.0163  0.0981
19271W        W36795  11.921  11.999  13.626  0.0132  0.1124 -0.1817
19272W        W36796   3.550   8.037  13.181  0.0607  0.1532 -0.1058
19273W        W36797   0.935   1.517  14.609 -0.0938  0.0270 -0.2657
19274W        W36798   7.503   8.748  16.865 -0.0247 -0.3100  0.0244
19275W        W36799  14.031   1.922  15.073  0.2268  0.0282  0.1274
19276W        W36800   6.352  14.574   2.802  0.0156 -0.2461 -0.2289
19277W        W36801  17.017   2.559   5.474 -0.1220  0.1889  0.1428
19278W        W36802   7.511  16.775  13.804 -0.1182 -0.1886  0.2314
19279W        W36803   1.320   3.710   1.749 -0.0036  0.1291  0.1630
19280W        W36804   7.059   8.137   1.840  0.4211  0.1150 -0.0658
19281W        W36805   1.965   0.478   3.522  0.1986 -0.1248 -0.1488
19282W        W36806  13.816   5.367  14.798 -0.1291 -0.1598 -0.1330
19283W        W36807   5.555   8.755  14.770  0.0426 -0.0633 -0.0782
19284W        W36808   1.095  13.725   5.795  0.3418  0.1400  0.0999
19285W        W36809  12.170   3.818   1.524 -0.1902  0.3458  0.1026
19286W        W36810  11.376   2.305  16.014  0.0742 -0.2054 -0.2752
19287W        W36811   3.258   5.071   4.840 -0.1127  0.2071 -0.2186
19288W        W36812  16.242  10.817  16.635 -0.0583 -0.1092  0.1585
19289W        W36813   2.259   9.981  16.052 -0.2261 -0.0813  0.1453
19290W        W36814   9.081   5.499   4.033 -0.2053  0.0309 -0.0119
19291W        W36815  16.812  10.337   0.094  0.3475 -0.1116 -0.2353
19292W        W36816   7.167  14.504  15.705 -0.0723 -0.4192  0.0790
19293W        W36817  14.691  13.905  11.980  0.0187 -0.1386  0.0502
19294W        W36818  16.411   6.989   0.650  0.1113  0.2703 -0.0486
19295W        W36819  11.725   1.563   0.291  0.1520  0.0987 -0.2831
19296W        W36820  13.712   6.445   0.772  0.0792  0.0870 -0.1481
19297W        W36821  10.222  12.704   3.803 -0.0126 -0.0156 -0.1530
19298W        W36822  13.068   5.321  17.203  0.2195 -0.4016 -0.0535
19299W        W36823   1.091   3.315  16.583 -0.0211  0.1850 -0.1085
19300W        W36824   9.016   7.541  15.087  0.1036 -0.1172  0.0701
19301W        W36825   6.261   8.142   2.807  0.2305 -0.0725 -0.0239
19302W        W36826  14.098   1.823   5.804  0.1555  0.4312  0.1951
19303W        W36827   4.581  14.031   5.484  0.2126 -0.1974  0.0228
19304W        W36828  10.984   3.533   4.088 -0.1241  0.1826 -0.0079
19305W        W36829   4.202  11.423   5.844 -0.1407  0.1041 -0.1791
19306W        W36830   7.606  10.972  14.025  0.2558 -0.2504  0.0795
19307W        W36831   6.287  16.281  13.526 -0.1910 -0.2540 -0.1027
19308W        W36832   4.149  14.865   4.492  0.1214 -0.0244 -0.2739
19309W        W36833   2.993   2.869   0.204 -0.3355 -0.1684 -0.1883
19310W        W36834  16.656  13.402   4.917  0.0196  0.3042 -0.0923
19311W        W36835   9.547  10.598   2.315 -0.2386 -0.2276 -0.0568
19312W        W36836   5.563   1.477   4.968 -0.0804 -0.2374 -0.0819
19313W        W36837   9.623  16.893   5.416  0.0715 -0.0314 -0.1434
19314W        W36838   6.435  14.879  13.291 -0.1107  0.2114 -0.3176
19315W        W36839   8.184  11.711  17.325  0.1654  0.0029  0.2647
19316W        W36840   9.629   4.461  16.254 -0.1381  0.0983  0.1605
19317W        W36841   6.515   2.922   4.703  0.3070 -0.0445  0.0428
19318W        W36842   6.015   8.656   3.861 -0.0881 -0.3183 -0.3239
19319W        W36843   7.602   1.695  12.943  0.0081  0.1640 -0.3043
19320W        W36844   3.956   5.549  15.807 -0.1596  0.1793  0.1581
19321W        W36845   0.440   5.302  12.845  0.0473 -0.5034 -0.0131
19322W        W36846   8.672  13.280  16.461  0.0221 -0.0859 -0.0496
19323W        W36847  11.132  13.592   3.627 -0.0349 -0.2698 -0.0915
19324W        W36848   8.841   9.818  14.631 -0.2867  0.1053  0.2073
19325W        W36849   7.914  11.252   1.927 -0.0795 -0.1223 -0.1775
19326W        W36850   7.342   6.975  15.005  0.0252  0.0744  0.1580
19327W        W36851  14.204   3.937   0.518  0.3023  0.2109  0.0201
19328W        W36852  15.256   5.815   2.064 -0.0181  0.1636  0.0284
19329W        W36853   5.037  10.488  14.389 -0.0852  0.1328  0.0023
19330W        W36854   1.753  12.814   5.251 -0.1597 -0.0318 -0.2022
19331W        W36855  13.293   4.712   3.232  0.0425 -0.1683 -0.2791
19332W        W36856  16.556   1.405   6.006 -0.0235 -0.0429  0.0338
19333W        W36857   0.782  15.235   4.716 -0.0778  0.0806 -0.0708
19334W        W36858   8.302  12.488  17.353  0.0099 -0.0164 -0.0833
19335W        W36859  12.345   0.212  12.266  0.2801  0.0624 -0.0832
19336W        W36860  11.678  14.082  16.180 -0.2168 -0.0777  0.1065
19337W        W36861  14.049  11.027  12.582 -0.0015 -0.1182 -0.0480
19338W        W36862   9.115  16.874  12.061  0.1507  0.1303 -0.0512
19339W        W36863   3.344   3.717   1.464 -0.0294  0.1589  0.1119
19340W        W36864  10.928   6.780   0.096 -0.1972 -0.1376 -0.2386
19341W        W36865   0.836  16.934  12.605 -0.2580  0.0895  0.0282
19342W        W36866   9.848  14.942  16.745  0.1514  0.2983  0.0057
19343W        W36867   8.048  15.579   3.502 -0.0919  0.3199 -0.0686
19344W        W36868  14.338  15.435  13.048  0.2041 -0.0557  0.0968
19345W        W36869   8.183  13.761  16.875 -0.0752  0.1492 -0.0630
19346W        W36870   7.976   7.462  15.937  0.0311 -0.1756  0.2027
19347W        W36871   7.811   6.371   1.151  0.2139  0.2402 -0.1786
19348W        W36872   2.371   1.843  15.331  0.0671 -0.0671 -0.2966
19349W        W36873   6.287   7.839   4.996  0.0423 -0.1660 -0.0492
19350W        W36874  13.812  11.165  15.824 -0.2818  0.1032  0.1967
19351W        W36875   5.220   6.493  14.675 -0.1530 -0.2306  0.0053
19352W        W36876   3.306   0.341  13.404 -0.2661 -0.0905 -0.0747
19353W        W36877   8.170   1.615   2.514  0.0868  0.1421  0.2037
19354W        W36878   3.572   0.313   3.198 -0.1464 -0.0847  0.3001
19355W        W36879   9.538  11.365  12.369  0.1081 -0.2320 -0.0564
19356W        W36880  14.554   8.898  12.577  0.1526 -0.1441 -0.0470
19357W        W36881  12.507   4.592   0.201 -0.1350 -0.0141 -0.1230
19358W        W36882  16.555  11.744  16.724 -0.0579  0.0189 -0.1360
19359W        W36883   5.854   5.761   3.532 -0.0654  0.1881 -0.0410
19360W        W36884  12.890  15.102   3.487 -0.2601 -0.2786  0.0318
19361W        W36885  16.008  10.815   3.730 -0.1375  0.1208 -0.0627
19362W        W36886   5.767   6.831   0.056 -0.1474  0.3946 -0.0716
19363W        W36887  14.218  13.188   0.988  0.1609  0.0405 -0.1755
19364W        W36888   5.061   3.378  15.678  0.1408  0.0018 -0.0238
19365W        W36889  13.576   3.047  13.864  0.0764  0.0858 -0.0337
19366W        W36890   8.115   1.198   5.418  0.1168 -0.0710 -0.0028
19367W        W36891   9.257   8.595  16.417 -0.0652  0.2045 -0.0598
19368W        W36892  16.091   3.889   1.766  0.3099  0.2525 -0.2434
19369W        W36893   0.198   1.840  13.418 -0.2048  0.0477 -0.1602
19370W        W36894   6.119  12.493   4.434 -0.1769 -0.0752 -0.0482
19371W        W36895  10.532   0.665   0.350 -0.0463  0.2363 -0.2276
19372W        W36896  15.023   6.997  13.418  0.1313 -0.0612  0.1789
19373W        W36897   7.965   2.350   4.857  0.0622  0.0188  0.0380
19374W        W36898  17.012   2.747   1.781  0.0733  0.4562  0.0582
19375W        W36899   7.377  12.152   3.397  0.1254  0.0445  0.0176
19376W        W36900  15.108  15.878   0.511  0.1987 -0.2793 -0.1857
19377W        W36901   1.526  12.173   2.509  0.0012 -0.0876 -0.1003
19378W        W36902  15.482  12.155  15.689  0.1103 -0.1174 -0.1249
19379W        W36903   0.322  12.977   4.065 -0.0951 -0.0458  0.0766
19380W        W36904  16.551   8.377  15.709 -0.1687 -0.0963  0.0458
19381W        W36905   3.970   0.111   1.444 -0.0149  0.0213 -0.1972
19382W        W36906   8.284  10.013   3.803 -0.1177  0.3568  0.1021
19383W        W36907   4.071  10.798  17.521  0.4352  0.0979  0.1501
19384W        W36908  10.296   2.291  12.815 -0.0796  0.2514  0.0156
19385W        W36909   8.764   8.720  16.406 -0.2250  0.1185  0.1543
19386W        W36910  10.842  12.080  12.454  0.1083 -0.1478  0.1687
19387W        W36911   1.848   8.806  17.549 -0.0206  0.3845 -0.0310
19388W        W36912   7.842   9.944   4.873 -0.0944  0.1664  0.3373
19389W        W36913  13.844  10.999   0.800  0.0528  0.0438 -0.0001
19390W        W36914  14.609   7.294  13.298  0.2764  0.2865  0.0659
19391W        W36915   0.441   9.570  16.556 -0.0118  0.0304 -0.2255
19392W        W36916   5.446  14.680  15.825  0.0898 -0.3406 -0.1136
19393W        W36917   0.404   0.644  12.807  0.2593 -0.0538 -0.0152
19394W        W36918   3.871  10.854  14.010 -0.0702  0.0665  0.0058
19395W        W36919   7.191   9.034  17.165 -0.3462  0.1404  0.2304
19396W        W36920   6.049  12.104  14.499  0.0160  0.0927 -0.1266
19397W        W36921   0.275   1.961  16.821 -0.2434 -0.3590  0.3166
19398W        W36922   2.446  11.855  16.172 -0.2450  0.4031  0.2737
19399W        W36923  10.253  16.292  17.058  0.0660  0.1032  0.4301
19400W        W36924   8.240  16.649   4.770  0.1495 -0.1445  0.1229
19401W        W36925   5.530   4.892  13.123  0.1176 -0.2452  0.2417
19402W        W36926   7.203   9.601  16.350  0.0600  0.2871  0.0618
19403W        W36927   3.002   2.361   5.588 -0.0491 -0.0434  0.0125
19404W        W36928   5.936  10.412   5.490 -0.0040 -0.1513  0.0024
19405W        W36929   1.936  12.826   1.983 -0.3005 -0.0864 -0.1134
19406W        W36930  16.109  14.705   5.554 -0.3795  0.1616 -0.2583
19407W        W36931   0.660   2.009  14.802  0.0674 -0.0100 -0.0104
19408W        W36932   9.638   8.422  12.074 -0.0578  0.1999 -0.1205
19409W        W36933   2.203   2.281   0.564 -0.1677 -0.1320  0.0050
19410W        W36934   2.846  14.466  13.075  0.0911 -0.2971 -0.0073
19411W        W36935   8.653  10.706   5.173 -0.1023  0.2630  0.1939
19412W        W36936   1.369   5.357   1.213 -0.3132 -0.0191 -0.1361
19413W        W36937   4.574   2.248   3.192  0.0270  0.2169  0.1057
19414W        W36938   2.428   3.252   4.895 -0.3271  0.0989 -0.1333
19415W        W36939   7.335   9.026   2.429  0.2285  0.0218 -0.1257
19416W        W36940   2.870   0.496   3.924 -0.1945 -0.2534  0.1126
19417W        W36941   4.960  15.985   4.239  0.0988  0.1334 -0.0326
19418W        W36942   5.150   2.058   4.342 -0.1665  0.2586 -0.0699
19419W        W36943   9.714  10.591  16.505  0.0226 -0.1147  0.2784
19420W        W36944  11.093   8.730   2.061  0.0421 -0.0124  0.0263
19421W        W36945  12.863  11.653   2.228  0.1097  0.1226 -0.1242
19422W        W36946   6.909   3.902   2.517 -0.1371  0.0570 -0.0908
19423W        W36947  13.145   2.786   3.092 -0.1954  0.1009  0.0680
19424W        W36948  11.553   3.310   3.516 -0.1046  0.3151  0.0205
19425W        W36949  15.618   3.265  13.542  0.0944  0.1539 -0.0182
19426W        W36950  10.293   9.938  16.790 -0.3962  0.0799  0.0999
19427W        W36951   2.064  14.677   2.696  0.1217 -0.2329 -0.0515
19428W        W36952   0.473   1.978  16.350 -0.0671 -0.0651 -0.1813
19429W        W36953   6.380   0.224   0.475 -0.1774  0.1235  0.1246
19430W        W36954  12.671   1.925   2.758  0.1968  0.2798 -0.1010
19431W        W36955  10.940  13.045  16.396  0.3183 -0.0659 -0.1452
19432W        W36956   0.809   9.719   2.824 -0.0955 -0.0964 -0.0922
19433W        W36957   0.130  10.922  13.005  0.1156 -0.0076 -0.0209
19434W        W36958  12.842   8.419  12.195 -0.0036 -0.0026 -0.3212
19435W        W36959  13.933   2.912  15.561  0.0281  0.1000  0.0995
19436W        W36960   0.731   6.159  17.092 -0.1092 -0.0220 -0.0424
19437W        W36961   1.793  11.044  13.125  0.1173 -0.0083 -0.0458
19438W        W36962   2.655  11.845  16.680 -0.0177 -0.1432  0.0950
19439W        W36963   5.422  15.766   4.478 -0.0235  0.1480  0.0765
19440W        W36964  10.351  14.211  15.814  0.0087  0.0889 -0.3126
19441W        W36965   2.258   8.465   5.604  0.1553 -0.0558  0.0763
19442W        W36966  10.715  16.908   5.384  0.1688 -0.0266  0.4120
19443W        W36967   9.217  10.035   5.354  0.0793 -0.0800  0.2577
19444W        W36968  10.878   2.709  11.411  0.2537 -0.1680 -0.1080
19445W        W36969   1.654  15.265   5.526 -0.0324 -0.3566  0.2934
19446W        W36970   2.679  10.099  14.933 -0.0252 -0.0187  0.1292
19447W        W36971   0.943   5.478  12.907 -0.0162 -0.2405  0.3733
19448W        W36972   9.766   2.637   2.283 -0.2759  0.0426  0.2672
19449W        W36973   2.294   9.176  16.885 -0.2118  0.1081  0.0118
19450W        W36974  10.871   1.165   1.236  0.0786  0.0220  0.2423
19451W        W36975  12.063   7.502   4.285  0.0366 -0.3251  0.0577
19452W        W36976  15.945   8.127   0.686  0.0121 -0.1738 -0.1844
19453W        W36977   4.570  10.964   1.057  0.0888 -0.1260  0.0141
19454W        W36978   2.773   1.051   3.948  0.0744  0.0904 -0.0400
19455W        W36979   0.985   4.798   3.649 -0.0070  0.0891 -0.0569
19456W        W36980   7.454  10.284  14.590 -0.0850  0.1703  0.0175
19457W        W36981   4.304   1.913   4.617  0.2702 -0.2311  0.0661
19458W        W36982  15.163   1.411  14.273 -0.0712 -0.0212  0.1549
19459W        W36983  11.888  14.643  14.919 -0.0074 -0.2515  0.3097
19460W        W36984  11.324  14.769   2.849 -0.0379  0.2360 -0.1940
19461W        W36985  12.917   7.496  13.209 -0.0003 -0.0672 -0.1550
19462W        W36986  12.729   4.738   2.128  0.1116  0.3649 -0.3315
19463W        W36987   1.092  16.434  13.270  0.2682 -0.0613  0.3297
19464W        W36988   4.668  16.204  12.151 -0.0329 -0.1183 -0.0140
19465W        W36989   0.156   1.417  16.979  0.1968 -0.1764 -0.1032
19466W        W36990  12.056  12.302  15.186 -0.1449  0.1167 -0.0586
19467W        W36991   5.749  15.589  15.630 -0.1097  0.0977 -0.0833
19468W        W36992  13.736   1.975  13.790 -0.3020 -0.2468  0.3397
19469W        W36993  17.038   1.025  12.493 -0.2924  0.1891  0.1438
19470W        W36994   2.545   8.419   4.644  0.0206 -0.1700 -0.1775
19471W        W36995   1.462   6.656  17.018 -0.4712  0.1666 -0.3700
19472W        W36996   5.130   6.875   3.331  0.0727  0.2008 -0.1108
19473W        W36997   2.422  13.346   0.209 -0.2450 -0.2400 -0.1967
19474W        W36998   7.644  13.404   2.449  0.0843  0.0060 -0.0629
19475W        W36999   2.390   4.124  16.875  0.0276 -0.3481  0.1258
19476W        W37000   5.326   3.637   4.068  0.0316 -0.1212  0.2239
19477W        W37001   1.506  17.127   3.849 -0.0546 -0.1911 -0.0532
19478W        W37002  11.871  13.387  15.574 -0.1071  0.0308 -0.2674
19479W        W37003  15.175   8.968  17.211  0.1623  0.2099  0.3197
19480W        W37004  12.048  13.055  14.070 -0.2390 -0.0660  0.0326
19481W        W37005  12.406   4.916   3.090  0.0876 -0.3586  0.2428
19482W        W37006   0.181   5.122  16.463  0.1884  0.0610  0.1517
19483W        W37007   4.618   9.345   1.314  0.0232  0.0637 -0.0132
19484W        W37008  13.267   1.474   0.724 -0.1721 -0.1560  0.3636
19485W        W37009  16.123  14.295  17.054  0.2897 -0.0164  0.1756
19486W        W37010  12.365  10.858   5.079 -0.0909  0.3717  0.1527
19487W        W37011   5.608  15.059   0.653 -0.1005  0.1027  0.0046
19488W        W37012   8.765  12.931   3.194  0.1030 -0.1770 -0.3416
19489W        W37013   2.516  12.320  15.322 -0.1630  0.2559  0.0820
19490W        W37014  10.423   4.672  16.937  0.0015  0.0776 -0.1165
19491W        W37015  17.001   7.061   3.644  0.2219 -0.1174 -0.1287
19492W        W37016   8.677   1.113  12.428 -0.1341 -0.2748  0.0089
19493W        W37017   1.816  16.270   3.284 -0.1536  0.1184  0.2782
19494W        W37018  15.418   9.021  12.779  0.0261 -0.3041  0.1115
19495W        W37019  16.048   7.023  15.909  0.0716  0.4072  0.0188
19496W        W37020   9.334  10.485  13.979  0.1388 -0.1205 -0.0200
19497W        W37021  11.226   2.634  14.248 -0.0331 -0.1710  0.0292
19498W        W37022   0.156  10.022   0.186  0.3121  0.2195 -0.0292
19499W        W37023   8.509   7.388  12.378  0.1244  0.4132  0.0604
19500W        W37024  12.233   7.881  14.481  0.2058 -0.3087  0.0413
19501W        W37025   2.410   7.313   4.693 -0.2667  0.3238 -0.0447
19502W        W37026  13.466  15.710  14.444 -0.1564 -0.1780 -0.0127
19503W        W37027  10.882  16.775  17.405 -0.1604 -0.1755 -0.1102
19504W        W37028   1.208   4.044  15.101 -0.0182 -0.2368 -0.1276
19505W        W37029  10.628  12.069  12.934 -0.0217 -0.2130 -0.0621
19506W        W37030   6.191   6.940   2.920  0.1000  0.1664 -0.1787
19507W        W37031  13.729   5.804   3.265  0.0802  0.2449 -0.1649
19508W        W37032  15.630  14.424  13.046 -0.2611  0.1576 -0.1381
19509W        W37033   4.609  10.595   0.645 -0.2027  0.0880 -0.2451
19510W        W37034  13.785   5.844  17.705  0.4448 -0.1832  0.1291
19511W        W37035   3.349   8.363  13.771 -0.3572  0.0669  0.0382
19512W        W37036   0.768  12.274   6.599  0.0590 -0.2039 -0.0102
19513W        W37037   7.813   2.236   3.799 -0.1792 -0.0763 -0.0676
19514W        W37038   8.188  12.777  14.812 -0.0263 -0.0455  0.1725
19515W        W37039   3.377  14.788   2.491 -0.0667 -0.0191 -0.3603
19516W        W37040   8.335   2.290   0.970  0.2432 -0.0546  0.0450
19517W        W37041   1.898   5.670  13.098  0.0555  0.1602  0.0746
19518W        W37042   2.780   2.893  13.878 -0.0482 -0.0521  0.3365
19519W        W37043  16.103   2.655  17.068  0.1089 -0.0937 -0.1816
19520W        W37044  17.100   8.699   3.998 -0.2451 -0.0737 -0.2186
19521W        W37045   1.767   6.864   2.311 -0.0684  0.1088  0.1721
19522W        W37046  14.406   2.148  15.316 -0.2135  0.0811 -0.3205
19523W        W37047   6.813  16.230  17.081  0.1286 -0.1759  0.0273
19524W        W37048  11.530  16.269  14.178 -0.2106 -0.0053  0.0022
19525W        W37049  15.009  12.798   2.006 -0.0477 -0.3075  0.0921
19526W        W37050   6.062   6.279   1.252 -0.1739 -0.2490 -0.3122
19527W        W37051   0.868   8.187   4.604  0.0430 -0.1038 -0.0712
19528W        W37052   6.467  14.005  12.671 -0.2242 -0.1256 -0.3229
19529W        W37053   8.267  10.005   1.478 -0.3670  0.0357 -0.3530
19530W        W37054  14.614  13.205   0.103  0.2174 -0.0636  0.2197
19531W        W37055  13.073   9.079   4.575 -0.4054  0.2236  0.0796
19532W        W37056   5.074  13.089   0.516 -0.0215 -0.1135 -0.1179
19533W        W37057  16.735  14.210   4.332 -0.2134  0.0013  0.2225
19534W        W37058   3.929  12.881  13.541 -0.0384  0.1350  0.1710
19535W        W37059   3.361   7.719   1.444 -0.0264 -0.3620 -0.0365
19536W        W37060  11.731   8.905  13.972  0.0133  0.2101 -0.0127
19537W        W37061  12.738  16.754  17.572  0.2150 -0.2384  0.0825
19538W        W37062  15.730  11.721   2.414  0.2708 -0.2088 -0.2233
19539W        W37063   6.409   8.935   1.149  0.0274 -0.0764  0.0246
19540W        W37064   2.571  11.948  14.991  0.0666  0.0024  0.1333
19541W        W37065  10.278  12.430  13.077 -0.3179  0.1092 -0.1132
19542W        W37066   1.136  12.623  15.215  0.1951  0.0099 -0.2708
19543W        W37067   1.381   0.525   3.644 -0.0900 -0.3248 -0.0303
19544W        W37068   2.278   9.731   1.182 -0.0364  0.0740  0.2162
19545W        W37069  15.810  11.692  15.672 -0.2511 -0.1518 -0.1488
19546W        W37070   6.497  16.534  14.624  0.1074  0.2416 -0.2065
19547W        W37071   3.864  16.821   1.701 -0.1679  0.1688  0.1929
19548W        W37072   2.929   9.921   0.860 -0.0428  0.3472 -0.0421
19549W        W37073  14.056   5.789   2.863  0.4818 -0.1007  0.1407
19550W        W37074  16.191   1.644  15.858  0.1013 -0.1769 -0.1090
19551W        W37075  10.784   3.306   1.735  0.0574 -0.0990  0.0490
19552W        W37076   3.976   3.481   0.940  0.1720 -0.2263  0.1161
19553W        W37077  16.260   5.817  16.887 -0.1673  0.2342  0.0856
19554W        W37078   8.741  16.064   5.598  0.0648 -0.1944  0.0898
19555W        W37079  12.995  10.687  13.219 -0.0988 -0.1138 -0.1777
19556W        W37080   0.161   0.141  15.740  0.0235 -0.0871 -0.2244
19557W        W37081   5.568   7.230   1.469 -0.2544 -0.1550 -0.1088
19558W        W37082  12.649   4.141  15.802 -0.0007 -0.0849  0.0877
19559W        W37083   2.884  14.827   3.917  0.3192 -0.0657 -0.2209
19560W        W37084   3.791   1.466   1.804  0.1528 -0.0904  0.1556
19561W        W37085  15.818  10.445   2.749 -0.0070  0.0239 -0.2429
19562W        W37086   9.963   6.833  15.869 -0.2146 -0.2396 -0.4663
19563W        W37087  17.153   6.992  16.550 -0.3790 -0.1538 -0.0674
19564W        W37088   2.335  10.775   3.565  0.2923  0.1546 -0.1164
19565W        W37089   9.411   3.325  13.358 -0.2734 -0.2950  0.2388
19566W        W37090   7.010   8.301   4.024 -0.0585 -0.1256 -0.0358
19567W        W37091  12.873  12.433  13.446 -0.1950  0.1074 -0.0481
19568W        W37092   0.013   6.152  12.563  0.1300 -0.1030 -0.0718
19569W        W37093   8.566   0.706   4.587  0.2886 -0.1396  0.0928
19570W        W37094  15.786  15.397  16.997  0.2022 -0.1344  0.0505
19571W        W37095   3.953   6.533  12.925  0.2269 -0.2034 -0.0662
19572W        W37096   8.513  15.662  15.156  0.1627 -0.1274  0.1389
19573W        W37097   4.305   8.050  13.594  0.1353  0.1813  0.0039
19574W        W37098   9.888   9.127   3.067 -0.2036 -0.0583 -0.1770
19575W        W37099   1.698   5.459   3.375  0.3386 -0.2467  0.0235
19576W        W37100  11.410  15.629   0.233  0.0234  0.0931  0.0664
19577W        W37101   6.115   2.609  14.984 -0.0001 -0.0031  0.1028
19578W        W37102  13.082   4.575   4.908 -0.0482  0.1454 -0.1722
19579W        W37103  15.527   5.337   2.268  0.2243 -0.0770  0.4045
19580W        W37104   6.972   6.130  15.560 -0.2309 -0.2325  0.1595
19581W        W37105  13.115  10.219  13.252  0.0098 -0.2138  0.0786
19582W        W37106  14.930   4.385   3.626 -0.1621  0.3833 -0.2377
19583W        W37107   1.651   7.188   1.613 -0.1720  0.0006 -0.1934
19584W        W37108   0.448  10.615   3.971  0.1309  0.2036  0.0523
19585W        W37109  11.438   4.487   4.816  0.0289 -0.1603 -0.1118
19586W        W37110   5.890   9.176   5.677  0.0969 -0.0941 -0.0379
19587W        W37111  17.050  15.886   4.433  0.0475 -0.5189 -0.0769
19588W        W37112  12.491  12.673  17.023 -0.1474  0.1213  0.1349
19589W        W37113   6.631   6.153   4.101  0.2456 -0.1662  0.0086
19590W        W37114   4.661   1.941   4.968 -0.0527 -0.3784 -0.0863
19591W        W37115   7.043   4.372  14.076 -0.0364 -0.2530  0.2130
19592W        W37116   3.751   9.338  13.738  0.1007  0.1125 -0.0352
19593W        W37117   6.803   9.953   1.928 -0.0997  0.1227  0.0460
19594W        W37118  15.573  13.524   1.481  0.1306 -0.0287 -0.0472
19595W        W37119   7.601  10.359   2.084  0.1686 -0.2670 -0.5232
19596W        W37120  15.429   6.699   1.560 -0.3094  0.0485 -0.1023
19597W        W37121  11.828   6.775  15.041 -0.2359  0.1015 -0.1447
19598W        W37122   9.908  15.302   1.036 -0.0936 -0.1205  0.0533
19599W        W37123   3.951   4.380   4.191  0.1493 -0.0286 -0.1796
19600W        W37124  11.439  14.894  14.205  0.2402 -0.0221  0.2654
19601W        W37125   3.894   4.947   3.581  0.1111 -0.0042  0.2475
19602W        W37126   2.524   5.796  16.368 -0.1647 -0.5314 -0.1969
19603W        W37127   0.726   5.265  16.361 -0.1389 -0.0229 -0.1970
19604W        W37128   2.789   5.991   2.537 -0.2483  0.3745 -0.2334
19605W        W37129   1.942  17.051   5.561  0.1949 -0.1135  0.0567
19606W        W37130  14.635   0.206   3.721 -0.1523  0.3014 -0.2101
19607W        W37131  10.322   4.830   0.114  0.0245 -0.1059  0.2087
19608W        W37132   3.934   7.054  16.962  0.1488 -0.0380  0.2019
19609W        W37133   4.163   1.205   5.707 -0.2793  0.0677  0.0393
19610W        W37134   1.334   1.182   1.947 -0.1146 -0.0946 -0.1304
19611W        W37135  15.959  10.497   0.004 -0.0695 -0.0891 -0.0033
19612W        W37136   7.869   8.570  14.380  0.0597  0.1057  0.0773
19613W        W37137  12.343  12.529  16.508 -0.0720 -0.3945 -0.2374
19614W        W37138   7.383   0.279   0.082 -0.0167  0.2643  0.0067
19615W        W37139   9.912   6.014  16.701 -0.1929  0.0571 -0.0930
19616W        W37140  13.614  11.799  17.075 -0.2698  0.2413 -0.1593
19617W        W37141  12.075  13.200   2.966 -0.1036 -0.1908 -0.0811
19618W        W37142   2.804  13.263  16.229 -0.0716  0.0163  0.2141
19619W        W37143   3.706  13.991  15.417  0.1868  0.0570 -0.0608
19620W        W37144   1.557   0.406   4.105 -0.6299  0.0807 -0.0566
19621W        W37145   3.359  11.216  15.631  0.4049  0.0064  0.1547
19622W        W37146  14.278   6.744  11.174  0.1938  0.0229 -0.0155
19623W        W37147   7.080  10.469   1.986 -0.2510 -0.1379 -0.3380
19624W        W37148   9.586  12.007  11.985 -0.3156 -0.0162 -0.1870
19625W        W37149   0.230  10.167   3.795 -0.1038 -0.0596 -0.2907
19626W        W37150  14.891  15.742   2.930  0.1953  0.4292  0.3182
19627W        W37151   0.800  16.922   4.346  0.2058  0.3364  0.3625
19628W        W37152  11.734  10.611   4.988  0.1747 -0.0273 -0.1248
19629W        W37153  16.618  14.860   3.449 -0.2082 -0.0447  0.1448
19630W        W37154  10.714  16.007   4.588 -0.1729 -0.1158 -0.1892
19631W        W37155  13.312  16.766   3.009 -0.1522  0.0575  0.2662
19632W        W37156   3.460  15.435  14.872  0.1621  0.0061 -0.0145
19633W        W37157   1.629  15.847  14.427 -0.0973  0.0710  0.1402
19634W        W37158   5.034  10.677   0.275  0.3169  0.0962 -0.1973
19635W        W37159   0.334   2.764  12.711 -0.0679 -0.2426 -0.3231
19636W        W37160   6.122  15.564  17.402  0.0477 -0.3026 -0.1648
19637W        W37161   2.271  13.232   3.850 -0.1431  0.1894  0.1155
19638W        W37162   5.704   4.862  12.538  0.0553  0.3720 -0.0060
19639W        W37163  10.001  12.780  15.698 -0.1091  0.2894 -0.3834
19640W        W37164   0.995  15.767   1.038 -0.1574  0.0281  0.0277
19641W        W37165   4.582   8.749  14.361  0.0390 -0.0449  0.1204
19642W        W37166   3.296  12.383  13.854  0.0136 -0.3090  0.0149
19643W        W37167  12.747  14.124  15.090  0.0962 -0.0742  0.1765
19644W        W37168  11.465  12.905  13.289 -0.0131  0.0241  0.1857
19645W        W37169   7.682  15.916   3.352 -0.2141 -0.0688  0.0235
19646W        W37170   7.410   5.873   0.661 -0.1358  0.0874 -0.0706
19647W        W37171   0.409   2.375  15.019  0.1473  0.1209 -0.0820
19648W        W37172   3.569   6.401  13.906  0.0908  0.2103  0.0313
19649W        W37173   4.301   7.350   1.072 -0.0430  0.1020 -0.1955
19650W        W37174   5.065  10.128  17.447  0.0253  0.0854 -0.1415
19651W        W37175   9.061   4.294   0.733 -0.0689  0.1287  0.1269
19652W        W37176   5.472   8.689  13.366  0.0155 -0.1207  0.2297
19653W        W37177   2.240   7.865  14.655  0.0900 -0.0794  0.0033
19654W        W37178   6.064  13.908  12.444  0.1274 -0.1966 -0.0625
19655W        W37179   2.161   2.681   1.524  0.0218 -0.1788  0.0180
19656W        W37180   2.657   3.278  12.491 -0.0687 -0.2968  0.2534
19657W        W37181   8.928   7.809  13.550 -0.1802  0.5786 -0.1245
19658W        W37182   5.859   9.852   0.815  0.1714 -0.1473 -0.1721
19659W        W37183  12.697   7.036  13.993 -0.1785 -0.3379  0.2533
19660W        W37184  15.242   6.416   3.591  0.0767 -0.0630 -0.0703
19661W        W37185   9.109   0.667   0.517 -0.1943  0.1013 -0.1652
19662W        W37186   6.964  12.330  13.082 -0.2621 -0.0846 -0.1991
19663W        W37187   8.626  12.091   5.071 -0.4882 -0.0784  0.2618
19664W        W37188  14.449   7.784  14.513  0.3804 -0.3104  0.1986
19665W        W37189   2.868  13.715  15.013 -0.1836 -0.0213 -0.0514
19666W        W37190  10.992   3.534   2.316  0.2738 -0.0022 -0.0388
19667W        W37191   5.607  11.054  12.708 -0.2435  0.2006  0.0276
19668W        W37192   1.872   2.525  14.007  0.2378  0.2800  0.4334
19669W        W37193   5.882   8.552   0.418 -0.1222  0.2682  0.0602
19670W        W37194  13.335  11.438  13.830 -0.1455  0.0239 -0.0674
19671W        W37195   1.583  14.620  13.477 -0.1496  0.3460 -0.0936
19672W        W37196   4.428  14.187   5.028 -0.1258 -0.0904 -0.1667
19673W        W37197   6.648   0.626  12.628 -0.0558  0.3721  0.1529
19674W        W37198   4.501   3.146   4.476 -0.1444  0.3133  0.0011
19675W        W37199   5.963   5.543  17.485 -0.0433 -0.1944  0.3284
19676W        W37200   7.134   8.459   1.456 -0.0500 -0.1710 -0.1649
19677W        W37201  13.773  14.583   1.438 -0.1141 -0.1544 -0.0698
19678W        W37202   8.615  17.118   3.446  0.0360  0.3595 -0.1548
19679W        W37203   9.411  12.221  17.668 -0.2471  0.0878  0.0619
19680W        W37204   2.343   8.100   5.287 -0.0434 -0.0976  0.3691
19681W        W37205  14.392  10.516  15.047 -0.2684 -0.1778  0.1166
19682W        W37206  14.435   2.414  14.426 -0.0750  0.2876 -0.2245
19683W        W37207  11.760   4.811   1.974 -0.0734 -0.2924  0.0350
19684W        W37208  15.658   1.325   3.506 -0.2648 -0.0516  0.1514
19685W        W37209  14.819  12.501  16.470 -0.0508  0.2404 -0.2453
19686W        W37210  12.479   1.627   3.598  0.1395 -0.1338  0.0058
19687W        W37211   7.927  14.688   3.447 -0.1805  0.0238  0.1912
19688W        W37212   0.141  16.604   5.415 -0.2027 -0.2462  0.3017
19689W        W37213   5.479   6.687   2.865 -0.0170 -0.0105 -0.1137
19690W        W37214   2.637  14.077  15.908  0.0854 -0.1761  0.2669
19691W        W37215   1.666   6.513  15.004 -0.0153 -0.1697 -0.1251
19692W        W37216   8.878   6.104   3.261 -0.0232  0.0444  0.1649
19693W        W37217  10.208  15.174  11.896 -0.1436  0.1531  0.0020
19694W        W37218  12.933   9.585   3.973 -0.0819  0.1163  0.1237
19695W        W37219   7.466   1.911  14.521 -0.1103  0.1532 -0.0870
19696W        W37220   1.219   4.150  14.145 -0.2360 -0.0429  0.0660
19697W        W37221  11.609  11.314   4.621  0.2360 -0.1164  0.0781
19698W        W37222  10.216   4.516  13.702 -0.1957  0.1479  0.2523
19699W        W37223  10.273  12.076  14.199  0.0816 -0.1079  0.1180
19700W        W37224   7.367   0.257  11.963  0.1190 -0.1257  0.0087
19701W        W37225   1.554   1.682   3.299 -0.0138 -0.0198  0.0165
19702W        W37226  12.270  15.716   1.682  0.3543  0.0513 -0.1503
19703W        W37227   0.054  12.997  13.602 -0.0615 -0.0542 -0.1537
19704W        W37228  14.911  10.148   3.948  0.0643  0.1481  0.2072
19705W        W37229   4.997   2.659  13.334  0.1794  0.1999  0.2295
19706W        W37230  15.333  16.229  14.427 -0.0211 -0.1183 -0.0317
19707W        W37231  14.775   4.798   0.397 -0.0072 -0.1339 -0.1336
19708W        W37232   3.855   1.117  12.654  0.0198 -0.0232  0.1332
19709W        W37233  11.880  14.084   3.623 -0.0832  0.1720 -0.0789
19710W        W37234  16.310  16.699   1.020 -0.0424  0.2056  0.1183
19711W        W37235  14.676   4.366  17.223 -0.0781 -0.0767  0.0950
19712W        W37236  17.128  15.565   0.990 -0.0312  0.0803  0.1655
19713W        W37237   8.658  16.062  15.485  0.0298 -0.0687  0.1067
19714W        W37238   0.836  16.383  17.464 -0.0030 -0.1594 -0.0527
19715W        W37239  14.214  13.672  13.182 -0.0049 -0.1268  0.0782
19716W        W37240  10.801   8.538  11.182  0.1693  0.1455 -0.0670
19717W        W37241   3.420  10.189  12.697  0.0774 -0.2944 -0.1511
19718W        W37242  15.535  10.033  16.748 -0.2208 -0.4611 -0.1069
19719W        W37243   4.272  10.757  15.905 -0.1971 -0.1837 -0.0308
19720W        W37244   5.865  13.354  15.310  0.2183 -0.0696 -0.0934
19721W        W37245  15.495  14.284  17.075 -0.2252  0.0712 -0.2696
19722W        W37246   7.605  13.033   0.632  0.1511 -0.2024  0.2305
19723W        W37247   4.306  15.368  14.395 -0.1788 -0.0632 -0.0422
19724W        W37248   2.345  11.633   4.022  0.1284 -0.1691  0.0317
19725W        W37249  14.369  15.255  12.406 -0.0962  0.2519  0.1236
19726W        W37250   5.779   7.488  17.041  0.1345 -0.1422  0.0736
19727W        W37251  15.288   8.107   4.165  0.0846  0.3241 -0.1181
19728W        W37252   6.532  13.048  16.048 -0.1901  0.1041 -0.2418
19729W        W37253  11.499  11.162  12.291 -0.1712 -0.4254  0.0312
19730W        W37254  15.565  16.786   5.004  0.0664  0.0540 -0.2492
19731W        W37255   0.644  16.648   1.250  0.2964  0.1902 -0.0141
19732W        W37256   9.347   3.189   3.317 -0.0842  0.0384 -0.4062
19733W        W37257   3.448   0.474   0.952  0.0541 -0.0378  0.5127
19734W        W37258  13.894  16.124   1.371  0.2187 -0.0780  0.0304
19735W        W37259  12.618  16.664   2.527  0.0896 -0.1950 -0.1111
19736W        W37260   9.062  14.565   5.303  0.0492  0.0827  0.1053
19737W        W37261   8.022  10.911  15.734 -0.1408  0.2547 -0.1828
19738W        W37262   1.982  15.783  13.505 -0.1155 -0.1185 -0.1784
19739W        W37263   2.659   3.946   1.784 -0.0891  0.3338  0.0220
19740W        W37264   4.924   3.157  14.563 -0.0006  0.0205 -0.3120
19741W        W37265  12.665   2.672  15.310 -0.0421 -0.0938 -0.2047
19742W        W37266  10.183   7.763   3.741 -0.3973 -0.1676  0.0284
19743W        W37267   2.879  12.294   1.996 -0.0078 -0.1924 -0.1047
19744W        W37268   5.667   4.969   4.013  0.1603  0.0541 -0.0409
19745W        W37269   9.438   3.200   3.991 -0.2316  0.0370  0.0533
19746W        W37270   2.719   8.651   2.470 -0.0084  0.1454  0.0032
19747W        W37271   8.391  10.876   4.776  0.0670  0.0963  0.0865
19748W        W37272   5.247  13.832   0.924 -0.0066 -0.1750  0.1480
19749W        W37273  14.358   4.815  12.796 -0.2304 -0.3047 -0.0751
19750W        W37274   1.201   3.320   0.655 -0.1751 -0.1473 -0.2168
19751W        W37275   2.395   3.528  15.437 -0.0010 -0.0177 -0.3314
19752W        W37276  16.086  13.340   5.216 -0.0037 -0.2197  0.2398
19753W        W37277   3.643  13.931  14.893  0.2211 -0.2028  0.0983
19754W        W37278   3.916  15.315  16.820  0.0127 -0.4088 -0.4196
19755W        W37279  15.524  16.309   3.287  0.3208  0.1753 -0.1082
19756W        W37280   5.203   8.805  12.093 -0.1999  0.0174  0.0889
19757W        W37281   6.069  11.629   1.749  0.0521 -0.1066  0.1724
19758W        W37282   9.052  12.305  15.157 -0.2716 -0.0807  0.0020
19759W        W37283   6.556  16.853  12.671  0.2265  0.1359  0.0010
19760W        W37284   3.143   3.226  13.784 -0.0442  0.1427 -0.1537
19761W        W37285  14.935  17.120  12.723  0.0237  0.2650  0.0182
19762W        W37286  10.200   7.506  14.262  0.0025 -0.2798 -0.1108
19763W        W37287   3.103  11.023  13.741 -0.0986  0.1281 -0.2087
19764W        W37288   3.727   3.597  14.589 -0.0941 -0.0968  0.1248
19765W        W37289  15.453  15.667  17.697  0.1531 -0.2827  0.2886
19766W        W37290  14.428   9.421   0.008  0.0106  0.0547  0.0365
19767W        W37291   5.350   2.245  15.650 -0.0486 -0.0754 -0.0412
19768W        W37292  15.643   0.988   0.668 -0.1122  0.2807  0.2585
19769W        W37293   0.273  14.583  14.208  0.1172 -0.0269 -0.1530
19770W        W37294  12.499   0.421   1.659 -0.2956  0.1454 -0.3501
19771W        W37295   9.903  13.757  16.873  0.1277  0.3159 -0.1537
19772W        W37296   8.362   2.790   1.665 -0.0157  0.0609 -0.1117
19773W        W37297   9.946  16.468  14.628 -0.2266 -0.1781  0.0473
19774W        W37298  12.029   0.494   1.752 -0.0612  0.0531  0.1776
19775W        W37299  15.153   0.158   0.204  0.0314 -0.2431 -0.3081
19776W        W37300   7.278  11.921   3.823  0.2032 -0.0115  0.0597
19777W        W37301   7.093   0.893   3.745  0.0129 -0.1042  0.3068
19778W        W37302   5.999  14.516  13.275 -0.0907 -0.0080  0.0496
19779W        W37303   9.237  16.821  16.532  0.0812  0.0810 -0.1527
19780W        W37304  11.238   7.868  17.019  0.0651 -0.3767  0.2978
19781W        W37305   8.914   3.994  16.032 -0.0376 -0.0276 -0.0293
19782W        W37306   2.187  14.125  16.247 -0.0571  0.0833  0.0129
19783W        W37307   1.629   4.164  12.613  0.4311 -0.0816  0.1479
19784W        W37308  16.705   6.619   5.255  0.1255 -0.0665  0.1096
19785W        W37309   0.987   4.120  13.389  0.0868  0.1412 -0.4248
19786W        W37310   5.446   4.667   2.323 -0.0370 -0.2845 -0.4783
19787W        W37311  16.047   8.153   4.820 -0.2563  0.3413  0.1253
19788W        W37312   9.964   8.583  15.223 -0.1184  0.2386  0.0983
19789W        W37313   5.083  14.902   2.404  0.1753  0.1197  0.0850
19790W        W37314   9.401   7.191   2.286  0.2130 -0.0660  0.1207
19791W        W37315  13.870   2.246   0.960  0.0773 -0.1193 -0.0714
19792W        W37316  11.162   0.860   2.869  0.0821 -0.0604  0.0971
19793W        W37317   8.132   9.083  17.012  0.1196 -0.0738  0.2202
19794W        W37318   3.244  11.672   2.461  0.1581  0.1447 -0.1470
19795W        W37319   7.905   4.433  15.110  0.1657 -0.1727  0.1532
19796W        W37320  16.035   5.250  17.038 -0.1793 -0.3272  0.0385
19797W        W37321   5.354  12.085  17.510  0.2254 -0.0667 -0.1367
19798W        W37322  13.198  10.127   0.967 -0.2721 -0.3036  0.2486
19799W        W37323  14.588  12.889  17.397  0.3248  0.0892  0.2868
19800W        W37324   7.143   5.196  13.450  0.0378  0.2563  0.1250
19801W        W37325   9.012  12.750  14.711 -0.3843  0.1042  0.1454
19802W        W37326   1.151   1.975   3.145 -0.1113  0.1285 -0.0387
19803W        W37327   0.719   5.834  11.868  0.1587 -0.3497  0.0158
19804W        W37328   1.752  14.121   0.667 -0.0017 -0.1442 -0.0662
19805W        W37329   8.957   4.390   3.534 -0.1865  0.0164 -0.0077
19806W        W37330  13.704  11.066  13.037 -0.1430  0.1468 -0.2734
19807W        W37331  16.986  11.816   0.209 -0.1195  0.1355 -0.2999
19808W        W37332   6.892   3.165   3.334 -0.1682 -0.0701 -0.1270
19809W        W37333  16.818   1.681   1.789  0.5502 -0.1717  0.1524
19810W        W37334  16.260   2.385  15.260  0.1241  0.1555  0.2685
19811W        W37335  13.603   6.702  13.924 -0.1604  0.1108 -0.0947
19812W        W37336   0.855  15.491   3.307 -0.0145  0.2750 -0.0438
19813W        W37337  14.296   7.945  14.064 -0.1846 -0.1691 -0.1081
19814W        W37338  13.588   0.449  13.696 -0.2341  0.0265 -0.0277
19815W        W37339   4.903   2.574  12.560 -0.0360 -0.0293  0.1826
19816W        W37340   8.493   2.954  13.123 -0.0497 -0.0442  0.0912
19817W        W37341   7.294   5.873  14.112  0.1875  0.0310  0.3219
19818W        W37342   3.617  15.318   3.637  0.0019 -0.1247 -0.1958
19819W        W37343   0.655   0.494  13.793  0.0787  0.0002  0.0787
19820W        W37344   2.720  12.459   2.929 -0.1470  0.2560 -0.2225
19821W        W37345   2.378   1.364  13.159  0.0401  0.1483 -0.1422
19822W        W37346  14.105   0.697   2.452 -0.3773  0.0519  0.1575
19823W        W37347   8.862  13.247  12.582 -0.4732 -0.1379 -0.0539
19824W        W37348   7.803   5.933   0.324 -0.0732 -0.0437  0.2182
19825W        W37349   4.365  16.658   4.995 -0.0690 -0.2121  0.2376
19826W        W37350  15.605  10.099  12.729  0.2775 -0.0166 -0.0577
19827W        W37351  13.384   7.805   4.146  0.1128 -0.0836  0.1587
19828W        W37352  11.839  10.820   4.550  0.0093  0.0730  0.1942
19829W        W37353   2.183   1.480   0.958 -0.0514  0.0869  0.0337
19830W        W37354   2.014   3.042  14.861 -0.1461 -0.0522  0.0816
19831W        W37355  16.735  16.311   2.302  0.2142 -0.1121 -0.2834
19832W        W37356  13.351   4.651   1.335  0.1173  0.0632 -0.3053
19833W        W37357   0.731  14.222   5.487 -0.0318  0.0110  0.0964
19834W        W37358  15.389   6.284   1.823 -0.4027 -0.0907  0.1405
19835W        W37359  12.549   4.709  15.148  0.1793 -0.1964  0.2036
19836W        W37360   4.178   1.167   3.931  0.0537  0.0725 -0.1887
19837W        W37361   8.300  14.590  14.556 -0.0772 -0.1932 -0.0360
19838W        W37362   8.625   8.570   3.906  0.1431 -0.1045 -0.2934
19839W        W37363   8.074   8.116   0.571  0.1516 -0.1086 -0.1292
19840W        W37364   3.686  10.227   1.662 -0.0138  0.3465  0.0690
19841W        W37365   3.688   6.626  16.567  0.2424 -0.1835 -0.0676
19842W        W37366   8.396   3.144  15.112  0.1092  0.0507  0.0435
19843W        W37367   5.711   0.709   1.116  0.2474  0.0117 -0.2260
19844W        W37368   8.508   9.088   0.355 -0.2176  0.1165 -0.0300
19845W        W37369  16.680  11.629   3.641  0.1221  0.0486 -0.1639
19846W        W37370  14.536   8.777  15.541  0.2270 -0.0377  0.0568
19847W        W37371   6.947  16.483   2.048  0.0724 -0.2215  0.0751
19848W        W37372   4.832   6.007   0.572  0.2045  0.0366 -0.0266
19849W        W37373  12.939  16.296   4.992 -0.3086 -0.1538  0.2851
19850W        W37374   6.622  17.068   3.992  0.0405  0.0939 -0.1226
19851W        W37375  11.831  15.418   1.520 -0.0462 -0.1691 -0.0613
19852W        W37376   1.892   1.080   2.593 -0.1186  0.0461  0.2229
19853W        W37377   0.269   8.592   1.901  0.2859 -0.0358  0.0866
19854W        W37378  13.572  14.117   4.657 -0.0231  0.1385 -0.2311
19855W        W37379   8.389   2.742   0.184 -0.3498 -0.0871  0.2235
19856W        W37380  13.929  10.412   1.269  0.2763 -0.1698 -0.2837
19857W        W37381   0.405   3.211   3.774 -0.2304 -0.2757  0.0374
19858W        W37382   4.901  13.544  15.672 -0.0015 -0.2593  0.1278
19859W        W37383   9.648  15.700   0.804 -0.2146  0.0686 -0.1358
19860W        W37384  15.855  13.668  15.108  0.0448 -0.0913  0.1204
19861W        W37385  10.341  15.901  15.346 -0.1583  0.1616 -0.2006
19862W        W37386  10.481   8.291  13.831 -0.1991  0.1066  0.0540
19863W        W37387   6.936   9.711   2.950  0.1029  0.1697  0.0806
19864W        W37388   9.096   9.939   3.096  0.0206 -0.0570  0.1287
19865W        W37389  15.446  12.903   3.629  0.0940 -0.2248  0.0297
19866W        W37390  11.616   5.736   5.310  0.0092 -0.0086 -0.2503
19867W        W37391   0.304  10.652  14.362 -0.1231  0.0198 -0.1365
19868W        W37392  16.331  10.570  13.210 -0.0071 -0.3046  0.2590
19869W        W37393  10.082  10.118   1.494 -0.0716  0.0364 -0.1178
19870W        W37394  13.661  12.487   3.119  0.0282 -0.0735  0.2071
19871W        W37395   5.069   1.853  14.464  0.3944  0.0362 -0.0114
19872W        W37396   9.932   1.882   1.526 -0.0719 -0.2267  0.1472
19873W        W37397   3.374  13.657   5.958 -0.1876 -0.3120 -0.2606
19874W        W37398   8.271   6.260   0.972  0.0453  0.1219 -0.1295
19875W        W37399  11.325   1.969  11.845  0.0190 -0.2969  0.2081
19876W        W37400   6.149   3.319   0.077  0.1429  0.2254 -0.1040
19877W        W37401   6.544  12.137   0.417 -0.0471  0.0573  0.1038
19878W        W37402   5.500   9.601  17.338  0.1093 -0.0990 -0.0360
19879W        W37403  15.233   3.389  16.417  0.0276 -0.2564 -0.0960
19880W        W37404  10.033   6.204  13.961 -0.2975  0.0006 -0.0166
19881W        W37405   1.020  16.275  15.894  0.0158  0.0996 -0.2944
19882W        W37406   1.697   9.090   3.096 -0.3263 -0.1123 -0.2326
19883W        W37407   2.704   3.426   0.824  0.1420  0.2010 -0.2469
19884W        W37408  10.042   1.768   1.027 -0.0889  0.0057  0.0648
19885W        W37409  12.610  16.492   0.617  0.2062 -0.0159 -0.0492
19886W        W37410  15.043   4.146  13.030 -0.0687 -0.2938 -0.0772
19887W        W37411   1.571   4.671  12.618 -0.1222 -0.0649  0.1203
19888W        W37412   7.123  10.475   5.328 -0.2731  0.2696 -0.1090
19889W        W37413   8.344  13.945  11.764 -0.1219 -0.0733  0.1589
19890W        W37414   2.117   1.496  15.630 -0.0209  0.1097 -0.1507
19891W        W37415  11.811   6.058  16.013  0.1547  0.1117  0.1303
19892W        W37416  10.815   3.960   1.299  0.2042 -0.0762  0.2736
19893W        W37417  13.917   2.959  17.017  0.1984  0.1693  0.0345
19894W        W37418  10.303  10.416  17.202 -0.0202 -0.1926 -0.2172
19895W        W37419  15.843   6.878   4.389 -0.0831  0.1567 -0.1427
19896W        W37420   5.917   6.282  12.621 -0.3299 -0.1819 -0.1973
19897W        W37421  16.496  14.440  15.343  0.2577 -0.0277  0.1604
19898W        W37422   1.165  11.597   1.575 -0.0378  0.0973  0.1871
19899W        W37423  12.812   5.718  14.649  0.0634 -0.0260 -0.0099
19900W        W37424  11.002   8.125  16.434  0.2946  0.3206  0.1705
19901W        W37425   7.531  10.634  11.398 -0.0278  0.4841 -0.1843
19902W        W37426  10.848  15.517   6.208  0.2080 -0.0062 -0.2125
19903W        W37427  10.764  10.301  12.846 -0.0331 -0.0515  0.0862
19904W        W37428   6.492   2.262   0.861 -0.0305 -0.0513 -0.1918
19905W        W37429   2.442  10.868  14.398 -0.1456 -0.3347  0.1613
19906W        W37430   9.253  14.397   4.200 -0.0459  0.1326 -0.1839
19907W        W37431   9.983   9.127  15.935 -0.1060 -0.1608  0.1553
19908W        W37432  16.210  16.115   3.634 -0.1415  0.4748 -0.0790
19909W        W37433   3.342   4.371  14.769  0.0547 -0.1754  0.0037
19910W        W37434   4.935  12.717   1.498 -0.0367  0.1515 -0.1416
19911W        W37435   7.595   5.248  14.829  0.0353  0.0698 -0.0350
19912W        W37436  15.632  10.041   4.307 -0.1844 -0.1777  0.0196
19913W        W37437   7.349   1.304   3.785  0.1446  0.1551 -0.0596
19914W        W37438  15.934   6.784   6.221  0.1925  0.1397  0.0122
19915W        W37439   7.425  12.356  12.907  0.1913 -0.1708  0.2453
19916W        W37440   8.139   6.029   2.854 -0.0126  0.1495 -0.3066
19917W        W37441  13.238  10.926  14.640  0.0716  0.1602 -0.2271
19918W        W37442   9.388   9.521   1.815 -0.0288  0.3009  0.0575
19919W        W37443  16.528   4.863   3.031  0.2382 -0.0443 -0.3636
19920W        W37444   2.920  16.292  12.749  0.1370 -0.3478 -0.1855
19921W        W37445   3.065   3.727   0.998  0.1018  0.3126 -0.0782
19922W        W37446   5.632  14.936   4.042 -0.0703  0.2641  0.2006
19923W        W37447  13.411  16.998   0.600  0.0817 -0.0040 -0.1803
19924W        W37448   7.648  14.333   3.076 -0.1887  0.0489 -0.3453
19925W        W37449  13.847  16.262   1.840  0.2218 -0.1299 -0.3236
19926W        W37450   8.857  10.317  17.450 -0.2909  0.0909  0.1590
19927W        W37451   1.652  11.963  13.385 -0.1386  0.2728  0.0606
19928W        W37452   1.580  16.422  12.706 -0.0291 -0.1265 -0.0174
19929W        W37453  13.466  12.290   2.160  0.0075 -0.0901 -0.1705
19930W        W37454  10.715   6.084   1.565 -0.0186  0.2290 -0.1242
19931W        W37455   6.904   1.996  15.035 -0.3846  0.1808  0.0726
19932W        W37456   1.203  13.094   4.501  0.2687  0.0186  0.0344
19933W        W37457  16.098   6.686  12.993 -0.2457  0.0901 -0.2430
19934W        W37458  16.468   5.150  12.992  0.1208  0.0620  0.1094
19935W        W37459  16.962   6.322  13.025  0.2135  0.1935  0.1612
19936W        W37460  10.734   9.994  17.084  0.3099 -0.1741  0.3170
19937W        W37461   8.188   0.996   3.860 -0.1208  0.1142  0.2813
19938W        W37462   9.841  13.842   3.652 -0.1038 -0.1736  0.2255
19939W        W37463   3.307  16.007   1.548  0.0972  0.2638  0.0130
19940W        W37464   2.449   5.290   2.743 -0.4395 -0.0050 -0.0215
19941W        W37465   8.463   3.304  13.467 -0.0541 -0.1827 -0.0145
19942W        W37466   6.318  16.619   4.867 -0.1175  0.2071 -0.0030
19943W        W37467   3.635   7.385  12.469  0.1328 -0.1628  0.0283
19944W        W37468   8.065  12.451  14.006  0.1167  0.0853  0.0967
19945W        W37469   6.422  13.254   0.977 -0.1251  0.2765  0.1399
19946W        W37470   5.190  16.588  13.341  0.0122 -0.1482 -0.0273
19947W        W37471   5.188   9.805  15.259  0.0487 -0.0893  0.1698
19948W        W37472  14.514  16.853  17.142 -0.0702 -0.4173 -0.2709
19949W        W37473   8.241   4.115  13.737  0.5888  0.0470  0.0516
19950W        W37474   0.024   3.813  12.566 -0.2302  0.2721  0.1943
19951W        W37475   6.800  16.755   4.416  0.1277 -0.1797 -0.0058
19952W        W37476   7.707   1.113   1.936  0.0873  0.0376  0.3431
19953W        W37477  12.555   5.165  17.070 -0.0902 -0.0767  0.0358
19954W        W37478  15.583   8.126   3.250  0.1364  0.0208  0.1105
19955W        W37479   0.240   4.948  15.059  0.0823 -0.2052 -0.0062
19956W        W37480   7.918  14.985  14.464 -0.2427 -0.0988  0.1703
19957W        W37481   0.796   6.680   3.739  0.2769  0.0482 -0.1510
19958W        W37482   3.798   7.824   4.752 -0.0455  0.1707  0.0483
19959W        W37483   7.388   2.497   0.892  0.0987 -0.0707 -0.2684
19960W        W37484   7.151   2.679   2.090 -0.0235  0.4686  0.0151
19961W        W37485   3.982   1.304   6.151  0.1301 -0.2576  0.0991
19962W        W37486   5.135   7.095   4.261  0.0168 -0.1536  0.0760
19963W        W37487   0.922   4.763  16.343 -0.0002  0.1740 -0.0146
19964W        W37488   2.570  12.093   0.586  0.1767 -0.2051 -0.1256
19965W        W37489   7.855   3.487   0.189 -0.2878  0.3126  0.2792
19966W        W37490  16.282   1.089   5.003  0.1402 -0.1322  0.3383
19967W        W37491   8.396   6.303  12.210  0.1935 -0.2651 -0.0662
19968W        W37492   4.509  12.916   5.399 -0.3290  0.2737  0.3187
19969W        W37493  16.965   0.364   0.568 -0.3526 -0.0621 -0.1308
19970W        W37494   8.326  16.701  13.047  0.0740  0.2443 -0.2285
19971W        W37495  13.371   1.917  14.521 -0.1528 -0.0779  0.0879
19972W        W37496   4.527   5.784  13.085  0.3560 -0.2008  0.0066
19973W        W37497  13.294  12.297   3.378 -0.1399 -0.2048 -0.0786
19974W        W37498  12.446   8.312   3.869 -0.1439 -0.2668  0.3325
19975W        W37499  10.284   5.871   6.071 -0.2136 -0.0025  0.3511
19976W        W37500  14.889   4.185  15.926  0.2931  0.1895  0.1661
19977W        W37501  16.771   2.987   4.261 -0.2067 -0.3832  0.1304
19978W        W37502   2.042   5.630  16.644 -0.3600  0.2465 -0.1061
19979W        W37503  10.580   3.304  12.113  0.0780  0.1267 -0.2299
19980W        W37504   2.435   9.406  13.111 -0.0097  0.0938 -0.2476
19981W        W37505   2.848  11.507  14.992 -0.0346  0.1875  0.0258
19982W        W37506   1.703  15.647   1.138 -0.3048  0.1919 -0.1198
19983W        W37507   6.463  12.244  13.294 -0.0899  0.2728  0.1522
19984W        W37508  10.579   3.572  13.958  0.3154  0.1040  0.0573
19985W        W37509  16.791   8.540   2.776 -0.1817 -0.0034  0.0852
19986W        W37510  10.393  13.546   0.515  0.4125 -0.1450 -0.0223
19987W        W37511   8.888  12.848  16.597  0.4033  0.0311 -0.0162
19988W        W37512   9.086  11.582   1.561  0.1974  0.1805  0.2083
19989W        W37513   2.894   0.326  15.825 -0.0164 -0.0285  0.0102
19990W        W37514   8.467  13.416  13.858 -0.1978 -0.4899 -0.2103
19991W        W37515   2.256   6.078   2.559  0.0262  0.4089 -0.0298
19992W        W37516  14.526   2.174  13.972  0.2775 -0.2181  0.1207
19993W        W37517   2.966   3.836   2.304 -0.0528  0.0559 -0.1375
19994W        W37518   1.614   0.900   0.687  0.0407  0.1792 -0.0209
19995W        W37519  14.073  12.500   1.821 -0.3085 -0.2971  0.1586
19996W        W37520   1.415   4.673  16.591  0.0717  0.1296 -0.0638
19997W        W37521   7.715   1.562   2.081 -0.1092 -0.1025  0.1181
19998W        W37522  11.539   9.454  15.548 -0.1027 -0.0159  0.1889
19999W        W37523   6.894  14.911  15.436 -0.2968 -0.1343  0.2282
20000W        W37524   2.269  15.746   4.021 -0.2798 -0.1091 -0.1662
20001W        W37525   4.726   8.179   1.290  0.0461 -0.0527 -0.1707
20002W        W37526   3.476   3.874  12.323  0.1668 -0.0342 -0.2407
20003W        W37527   5.559   0.028   2.014  0.2177  0.0980  0.0173
20004W        W37528  11.294  11.739   3.607  0.0292  0.0951  0.0363
20005W        W37529   7.658  12.904   3.818  0.2560 -0.0254  0.0522
20006W        W37530  12.283   5.877  17.504  0.3493  0.2114 -0.0229
20007W        W37531   4.014  14.291  14.728  0.1147  0.0524  0.2568
20008W        W37532   9.087  16.775   1.635 -0.2028 -0.0067  0.0534
20009W        W37533   4.125  12.097   1.597 -0.0017 -0.4020 -0.1514
20010W        W37534  11.845  11.142  13.444  0.1882 -0.0971 -0.0987
20011W        W37535   0.524   6.510   3.359 -0.2768  0.1430  0.2626
20012W        W37536   7.433  10.707  12.691  0.1152  0.2185  0.1514
20013W        W37537   2.937  16.324  17.487 -0.1898 -0.1296  0.0339
20014W        W37538  13.154  10.574  16.445 -0.1719 -0.0741 -0.0033
20015W        W37539   1.907   4.767   5.794 -0.0611 -0.0201 -0.0224
20016W        W37540   0.044   7.787  16.960  0.3599 -0.1782 -0.0259
20017W        W37541   3.851   0.247  16.394 -0.1888 -0.0263 -0.0866
20018W        W37542   4.491   4.482   4.802  0.0327 -0.3156  0.0792
20019W        W37543   5.356   3.098   0.707  0.0852 -0.1112 -0.0993
20020W        W37544  15.821   1.083  13.812  0.1977  0.2269 -0.0720
20021W        W37545   0.786  12.479   3.442 -0.1594  0.1137  0.1219
20022W        W37546  12.654  12.672   2.262 -0.0449 -0.5367 -0.1385
20023W        W37547  14.288   6.780   0.012  0.0164 -0.0460  0.0393
20024W        W37548  12.865  11.497  13.612 -0.2657  0.3155 -0.0564
20025W        W37549  14.438   4.304   2.857  0.1317  0.0846 -0.0020
20026W        W37550   7.832  11.054   0.332  0.2824 -0.0233  0.1305
20027W        W37551   4.313  15.738  12.215 -0.2563 -0.1845 -0.1731
20028W        W37552   5.649   2.116   4.157  0.3179 -0.1694  0.1453
20029W        W37553   7.512   9.470   3.653 -0.2439 -0.0075 -0.2373
20030W        W37554   1.709  16.006  14.884 -0.0396  0.1975 -0.0295
20031W        W37555  14.632   5.433  12.669 -0.2395  0.0296  0.0540
20032W        W37556   9.970   9.905   4.844 -0.1014  0.0293 -0.1683
20033W        W37557  14.272  11.128   2.103  0.3213 -0.0362  0.0442
20034W        W37558   6.423   6.043  14.225 -0.1730  0.2558  0.0524
20035W        W37559   6.406  12.006   5.529  0.2794 -0.1553 -0.0423
20036W        W37560   7.383  14.775  17.551 -0.1089  0.3168  0.0554
20037W        W37561  16.255   1.412   1.005  0.0535 -0.0334  0.0408
20038W        W37562  15.868   5.155  13.999 -0.0682 -0.0874  0.0440
20039W        W37563   7.496   6.504   3.321  0.2079 -0.2688  0.0788
20040W        W37564   5.435  15.959  12.593  0.0922 -0.1749  0.1655
20041W        W37565  15.314   1.386   2.405  0.1919  0.3488 -0.0317
20042W        W37566   2.924   7.142  13.805 -0.1643 -0.3420 -0.1190
20043W        W37567  13.106  13.556  16.195 -0.0447 -0.0071 -0.3206
20044W        W37568  14.069   9.781   2.653  0.0262  0.0363  0.3638
20045W        W37569   9.229   1.024  16.664 -0.0538 -0.1049 -0.0851
20046W        W37570  13.930   3.463  15.859 -0.1340  0.1376 -0.2195
20047W        W37571   9.919  16.896   3.537  0.1405 -0.3053  0.2032
20048W        W37572   0.492   6.053  13.781 -0.1335  0.0103  0.3295
20049W        W37573   5.718  12.024   1.935 -0.0755  0.1485  0.1457
20050W        W37574  12.442  12.887   3.785 -0.2018 -0.1668 -0.1651
20051W        W37575  16.507   4.042   1.432  0.0967 -0.0228 -0.1562
20052W        W37576  13.766  12.041   1.731  0.2809  0.0483 -0.0051
20053W        W37577  10.059   7.785   0.895 -0.2176 -0.1676 -0.1169
20054W        W37578   8.500  11.204   4.089 -0.1680 -0.1914  0.0131
20055W        W37579  10.108  16.230   4.369 -0.1500 -0.1269 -0.1608
20056W        W37580  15.963  16.640   2.440 -0.1806  0.1482  0.0012
20057W        W37581   6.743  15.730   2.279  0.1280 -0.0359  0.2497
20058W        W37582   6.460   0.957   3.500  0.0602  0.2950 -0.0270
20059W        W37583  12.938   5.285   4.535 -0.0327  0.0320 -0.0300
20060W        W37584  16.238  10.116  15.509 -0.2407  0.0965  0.0779
20061W        W37585   1.919  11.338   0.424  0.2476 -0.1359 -0.2040
20062W        W37586   1.475   5.772  17.335  0.1941  0.0356  0.4156
20063W        W37587  16.606   3.122   1.903 -0.1302 -0.1665 -0.1468
20064W        W37588   1.966  10.491   1.453  0.0651  0.2035  0.0335
20065W        W37589   5.851  11.469   0.413  0.1648  0.6035 -0.0710
20066W        W37590  12.119  16.165   1.836  0.2918  0.1193 -0.0654
20067W        W37591   8.285   4.674  16.459 -0.0743 -0.0408 -0.1296
20068W        W37592  11.894  11.735   4.338 -0.0127 -0.0212 -0.1697
20069W        W37593   1.377   5.156   4.439 -0.0459 -0.0693  0.1856
20070W        W37594  11.912   5.879   3.574  0.0042  0.1481  0.1420
20071W        W37595  12.192   4.377   1.480 -0.1472 -0.0705  0.0595
20072W        W37596  16.003   6.157   0.305  0.2010  0.0173  0.4934
20073W        W37597   9.738  12.674   4.043  0.1501 -0.0615  0.1429
20074W        W37598  16.772  13.826   1.676 -0.0449 -0.0128  0.1244
20075W        W37599   7.651  11.591  13.595  0.2396  0.0884 -0.1897
20076W        W37600   3.752   0.307  17.724 -0.1435  0.0518 -0.0743
20077W        W37601  10.537   3.425   0.158  0.1939 -0.0062 -0.3813
20078W        W37602   2.179   8.518  17.044  0.2854 -0.1056  0.0392
20079W        W37603  14.874   4.106   3.161  0.2069  0.0373  0.1940
20080W        W37604  11.809  17.150   1.660 -0.1510 -0.2179  0.1534
20081W        W37605   6.310   1.888  15.773 -0.2063  0.0676  0.2792
20082W        W37606   5.143  11.777   2.980  0.0285 -0.2893 -0.1218
20083W        W37607   0.748   2.606  15.401  0.2968 -0.2033  0.1357
20084W        W37608  11.358   4.140  12.811  0.1727 -0.1919 -0.0886
20085W        W37609   3.825   9.502   3.855 -0.3325  0.3086  0.4063
20086W        W37610  12.958   7.462  14.184  0.2712  0.1286  0.0021
20087W        W37611   1.074   2.273  17.295  0.1830  0.0547 -0.0162
20088W        W37612   4.810   5.822  12.697 -0.0039  0.0554  0.0843
20089W        W37613   3.376  15.326  15.960 -0.0296 -0.0170  0.1573
20090W        W37614   8.294   6.367   1.617 -0.2153 -0.2529 -0.1454
20091W        W37615  15.449   4.422  12.811  0.0996 -0.0376 -0.1009
20092W        W37616   9.327   1.051  11.650  0.1842 -0.0625 -0.1492
20093W        W37617   8.325   9.121   3.338  0.3247 -0.1649 -0.0877
20094W        W37618   6.386   3.750  16.221 -0.3359  0.1680 -0.2273
20095W        W37619  11.150   0.356  17.344  0.0068 -0.1860 -0.2515
20096W        W37620  13.450   8.453   1.309 -0.3095  0.0372  0.2075
20097W        W37621   6.668   8.040  13.705 -0.0357 -0.4646 -0.0279
20098W        W37622   5.629   5.225  15.043  0.1465  0.2801 -0.0268
20099W        W37623   7.801   4.056  16.677  0.0240 -0.0965  0.0266
20100W        W37624  14.956   1.432   3.355 -0.0979  0.1247  0.0435
20101W        W37625  11.273   0.310   0.376  0.1933  0.3446 -0.1549
20102W        W37626  14.027  17.009  16.683 -0.2251 -0.0092 -0.0142
20103W        W37627   7.347   4.088  17.505 -0.0751 -0.2153  0.0835
20104W        W37628   7.049  12.243   2.516 -0.0378  0.2146  0.0595
20105W        W37629   3.614   6.314   2.625 -0.1149 -0.2147 -0.0376
20106W        W37630  14.702  13.351   1.152  0.0610  0.0373  0.0834
20107W        W37631  16.770   4.166   2.571  0.2755  0.2465  0.3072
20108W        W37632   6.894  12.248   1.924  0.1893 -0.0897 -0.0439
20109W        W37633   0.709   8.456   2.779  0.2059 -0.2087  0.1428
20110W        W37634   5.358   4.479  14.322 -0.1392  0.1231  0.1636
20111W        W37635   0.686  11.265   4.482  0.0805  0.0144  0.4021
20112W        W37636   6.049  12.840  16.678 -0.0761  0.0953  0.0764
20113W        W37637  15.195   5.189   0.493 -0.1344  0.0443  0.0354
20114W        W37638   8.131  16.206   4.597  0.1638 -0.2008  0.0163
20115W        W37639   4.797  16.030   1.352  0.1190  0.2285 -0.0351
20116W        W37640   4.256   9.617   1.553 -0.0886 -0.2036 -0.2268
20117W        W37641   9.309   5.972   1.896  0.0184 -0.0119  0.1036
20118W        W37642  13.507  16.983   3.860 -0.1256  0.1056  0.0695
20119W        W37643  12.383   3.132  17.646 -0.1375 -0.3306  0.0304
20120W        W37644   6.636  14.297   1.267  0.1095 -0.0432  0.1134
20121W        W37645   6.887  10.723   3.410  0.0700 -0.2828  0.1868
20122W        W37646   1.622  16.359   5.674 -0.0393 -0.0115 -0.5218
20123W        W37647   3.932   6.739   4.581  0.0341  0.2441  0.0061
20124W        W37648   1.499  15.061  17.670  0.1350 -0.0640 -0.0670
20125W        W37649  14.333   0.888  16.028 -0.2293  0.2003  0.0541
20126W        W37650  10.775   1.224  13.936  0.0499 -0.2697 -0.2206
20127W        W37651   0.679  15.196   4.180  0.4394 -0.0259 -0.0462
20128W        W37652   0.442  13.977   4.304  0.0527  0.3182 -0.0397
20129W        W37653  14.213   5.447   0.052  0.0629 -0.0124 -0.0750
20130W        W37654  16.250   6.215  15.906  0.3782 -0.3555 -0.2098
20131W        W37655   2.368  14.463   0.551  0.2302  0.2390 -0.1270
20132W        W37656  14.602   4.048   5.041 -0.1473  0.1573  0.0903
20133W        W37657   3.129   2.590  16.673  0.0645 -0.0517  0.3142
20134W        W37658   7.249   9.933  13.253  0.1588 -0.3547  0.0015
20135W        W37659  15.896   2.316   4.474 -0.1937 -0.1532  0.0365
20136W        W37660  10.646   0.665  13.399  0.1844 -0.1753 -0.2222
20137W        W37661   2.639   5.027   1.016 -0.1975 -0.0999 -0.0117
20138W        W37662   9.075   5.665  12.078 -0.1499 -0.1348  0.1190
20139W        W37663  12.860   4.841  14.249  0.0280 -0.0228  0.0623
20140W        W37664   7.549   3.861   1.804  0.2534 -0.0016 -0.2039
20141W        W37665  14.713   1.403   2.247 -0.0674  0.2924 -0.1145
20142W        W37666   4.623  11.212   5.465 -0.0301 -0.0643 -0.0081
20143W        W37667   5.495  13.723  15.169 -0.1683 -0.2546 -0.0575
20144W        W37668   2.297   6.066  13.269  0.0280  0.0635 -0.1253
20145W        W37669  11.483  13.317   4.933 -0.1170  0.1415  0.2260
20146W        W37670   5.870   9.909  14.392  0.2950  0.1759 -0.3145
20147W        W37671  15.904   0.914   1.092 -0.1032  0.1647 -0.2660
20148W        W37672   6.094   4.115  12.114  0.0029 -0.0364  0.1793
20149W        W37673   9.945  13.332   0.532  0.0414 -0.2248 -0.0076
20150W        W37674   5.404  13.889  13.526  0.3946  0.0435 -0.1500
20151W        W37675  16.320   5.274   2.879 -0.1419  0.3419  0.4139
20152W        W37676   2.966   6.787  13.433  0.0405 -0.1491  0.2352
20153W        W37677  14.011   0.421  13.328 -0.0962  0.1240  0.1372
20154W        W37678   9.901   4.017   3.691 -0.0129  0.2461  0.0716
20155W        W37679   7.485  10.109   0.875  0.2257  0.1353 -0.1494
20156W        W37680  14.247   7.305  13.786  0.0553  0.2212  0.2061
20157W        W37681   7.528   3.126  12.861 -0.2344  0.1280  0.0461
20158W        W37682   7.405   7.077  14.240  0.3205  0.0957 -0.0438
20159W        W37683  14.209  13.405  15.316 -0.2504  0.1655  0.0258
20160W        W37684  16.747  10.694  12.254 -0.1736 -0.0728  0.0250
20161W        W37685   5.049  15.631  13.299 -0.2653  0.1132 -0.4189
20162W        W37686   2.940  13.193  17.387 -0.1792  0.1078  0.0215
20163W        W37687  12.255  12.161   2.964  0.1874 -0.0127  0.1362
20164W        W37688   2.534  13.665   3.660  0.0476  0.2191 -0.1170
20165W        W37689  13.574  13.106  17.501 -0.0657  0.3033 -0.0298
20166W        W37690  14.672   3.086   3.636  0.1384 -0.1864 -0.0012
20167W        W37691   9.602   4.672  15.813 -0.3755  0.0988 -0.1565
20168W        W37692   4.184  12.792   2.504 -0.0456 -0.2893 -0.0478
20169W        W37693   8.794   6.954  16.496  0.0871  0.0996 -0.1006
20170W        W37694   7.582   6.073  12.272 -0.0121 -0.2534 -0.1675
20171W        W37695   0.788   2.637  13.686 -0.1409  0.0640  0.0969
20172W        W37696   1.065   2.143  15.665  0.1795 -0.1778  0.0783
20173W        W37697   1.399  13.919  16.902 -0.1025  0.0895  0.2292
20174W        W37698   7.858  14.748   4.882  0.0435 -0.0424 -0.0079
20175W        W37699   6.300   0.647   0.202  0.0281 -0.2639 -0.0575
20176W        W37700  12.708  14.846   0.089  0.1167 -0.0656 -0.1822
20177W        W37701   5.313   4.850   5.612  0.0244 -0.0747 -0.1013
20178W        W37702  16.678   6.501  17.543 -0.0269 -0.2667  0.0152
20179W        W37703   4.211   3.254   2.221 -0.2001  0.0881  0.1104
20180W        W37704  10.849   8.109   1.198  0.1246 -0.0571  0.0050
20181W        W37705  14.645  17.127   4.156  0.2178  0.1759  0.0794
20182W        W37706  13.994  15.018  16.676  0.0254  0.1479 -0.2776
20183W        W37707   7.458   7.736  14.570 -0.0114  0.0945 -0.1023
20184W        W37708   3.046  12.552  15.185  0.1482 -0.2822  0.1884
20185W        W37709   2.561   9.636  14.091 -0.0319  0.1934 -0.2295
20186W        W37710  10.016  13.472  15.571  0.1677 -0.2346 -0.1510
20187W        W37711   9.615  14.529   2.707  0.1863  0.0406 -0.0417
20188W        W37712  13.288  15.453  15.528 -0.1877  0.1150  0.2318
20189W        W37713  13.458   1.512   2.091 -0.2142 -0.1711  0.2643
20190W        W37714   1.223  13.714  13.605 -0.1380 -0.0154  0.0274
20191W        W37715   0.846   6.998  14.655 -0.2775  0.1133  0.0727
20192W        W37716   5.926   7.398  13.768  0.2420 -0.0332 -0.0387
20193W        W37717   7.500   5.104  15.330 -0.3290 -0.0605 -0.1834
20194W        W37718   9.505   8.891  11.965 -0.1003 -0.0013  0.0885
20195W        W37719   4.343   7.303  16.153 -0.0197  0.0853 -0.1270
20196W        W37720   1.137   5.720  14.922 -0.1511 -0.0216  0.0734
20197W        W37721   6.525  15.945   4.141 -0.2491  0.1314 -0.2483
20198W        W37722  15.318  15.652  13.205  0.0581 -0.0446  0.1480
20199W        W37723   0.513   1.601   4.765  0.0604  0.1028  0.2407
20200W        W37724  14.157  14.649  13.318  0.1169 -0.0166  0.0780
20201W        W37725   6.671   2.182   0.358 -0.1353 -0.0904  0.0901
20202W        W37726  10.692  11.189  12.781  0.0701 -0.0254  0.1632
20203W        W37727   2.366   8.189   1.328 -0.1636  0.0622  0.1920
20204W        W37728  16.714  12.392   1.622 -0.0214  0.0178 -0.0234
20205W        W37729  11.636  10.076  14.780  0.0735 -0.3751 -0.2593
20206W        W37730  11.367   8.370   0.226  0.0225  0.1314  0.3311
20207W        W37731  12.442  16.540   0.136 -0.0735 -0.1258 -0.0577
20208W        W37732   2.039  12.261   1.404  0.0051  0.2026 -0.4027
20209W        W37733   0.080   4.116   0.073  0.3716  0.0757  0.0721
20210W        W37734  16.756   1.869   0.983 -0.0791 -0.1344 -0.3288
20211W        W37735   4.697  16.487  15.130  0.0274 -0.1694  0.2910
20212W        W37736  11.579  10.152   1.179 -0.1337  0.2136  0.0423
20213W        W37737  11.238   5.488   2.384  0.0373  0.1789 -0.1567
20214W        W37738   0.171  17.095   5.693  0.0360  0.2590  0.1869
20215W        W37739  16.388   3.836  16.022  0.2459  0.3290 -0.0004
20216W        W37740   4.682  16.840  12.587  0.1256  0.0391  0.1189
20217W        W37741   0.080   3.211  16.693 -0.2509 -0.0261 -0.1379
20218W        W37742   7.427  11.689   4.734  0.0424  0.0978  0.1237
20219W        W37743   6.473  15.250  15.042  0.2315 -0.0368 -0.0391
20220W        W37744   7.094  15.315  16.886 -0.1030 -0.0494 -0.0024
20221W        W37745  14.095  16.822   4.211  0.2271 -0.1470  0.0879
20222W        W37746  10.284   2.611   5.592 -0.0309 -0.0978  0.0828
20223W        W37747   7.873   2.516  14.835  0.1751 -0.0586  0.2146
20224W        W37748  17.028   0.347   5.034  0.0221 -0.1824  0.1911
20225W        W37749   9.336   6.507  12.351  0.0093 -0.1154  0.0233
20226W        W37750   7.903   7.600  14.456 -0.0919  0.2539  0.0755
20227W        W37751   4.061   0.662   4.545  0.3422  0.1439 -0.0526
20228W        W37752  11.502  13.756  13.400  0.0545 -0.1445 -0.0163
20229W        W37753   6.631   9.098  16.541 -0.0461  0.0747 -0.3683
20230W        W37754  15.367   6.441   2.860 -0.0709  0.1959  0.1140
20231W        W37755   5.421   0.777  12.506 -0.0728 -0.0914 -0.0466
20232W        W37756   4.703   0.992   2.597 -0.0637  0.1992  0.4287
20233W        W37757  16.545  14.958  12.744  0.2716  0.1633  0.0019
20234W        W37758   3.034   0.392  14.287  0.2320 -0.1105 -0.3725
20235W        W37759  16.120   4.828  13.096  0.1916  0.0968  0.0538
20236W        W37760  10.699   8.599   2.850  0.0346  0.1750 -0.2205
20237W        W37761   9.726   2.565  16.356  0.0100  0.1272 -0.1731
20238W        W37762   7.032   0.307   2.512  0.1768 -0.1056 -0.0502
20239W        W37763   5.648  13.203   2.557 -0.0892 -0.0935  0.0181
20240W        W37764  13.977   2.949   4.213 -0.1160  0.3070 -0.4050
20241W        W37765   3.902   9.379  13.206  0.2307 -0.0186 -0.3366
20242W        W37766   0.149   2.799  17.118 -0.0712 -0.0681  0.1368
20243W        W37767  13.374   1.121  17.160  0.2394 -0.3957  0.1138
20244W        W37768  15.524  16.993   6.792  0.2151  0.3118  0.1150
20245W        W37769   8.615  10.428  14.817 -0.1491 -0.1152 -0.0939
20246W        W37770  12.882   4.005  12.957  0.2013 -0.3106 -0.3507
20247W        W37771   4.707   9.023  14.776 -0.1498 -0.0892  0.0513
20248W        W37772  16.200   3.835   0.042 -0.2529 -0.1036  0.1356
20249W        W37773  12.392   0.480  12.745  0.0066 -0.0691  0.0762
20250W        W37774   2.890  13.105  13.626  0.0533  0.2336  0.0686
20251W        W37775   4.902   5.349  12.893 -0.0849  0.0034 -0.2081
20252W        W37776   0.924  10.012   4.646  0.0199 -0.2441 -0.0752
20253W        W37777   7.214   2.794   3.462  0.1588 -0.5518  0.1412
20254W        W37778   6.994   1.613   0.324  0.2949 -0.0901 -0.0087
20255W        W37779   1.731  14.062  17.668  0.0102  0.0864  0.2348
20256W        W37780   8.676  11.964  15.051 -0.3128 -0.1800  0.0079
20257W        W37781   9.501  12.022  16.746 -0.0877  0.0904  0.1085
20258W        W37782  11.202   5.902   1.654 -0.2532 -0.1893  0.0477
20259W        W37783  11.982   9.778  12.764  0.1117  0.1181  0.0542
20260W        W37784   0.842  12.555   1.727 -0.0864  0.0100  0.1539
20261W        W37785   2.647  12.760  14.938 -0.1114  0.0540  0.0821
20262W        W37786  15.671   5.099   5.365  0.0989 -0.0318  0.1834
20263W        W37787  13.304   0.744  15.676  0.2453 -0.1342 -0.1680
20264W        W37788   0.230   4.426  13.249  0.2051 -0.1085 -0.2064
20265W        W37789  10.375   8.895  13.478  0.0435  0.3533 -0.3196
20266W        W37790   8.721   8.216   4.257  0.1422 -0.3628  0.1435
20267W        W37791   3.694   0.842  14.122 -0.2561  0.1113  0.2639
20268W        W37792  12.498  12.959   1.796 -0.0354 -0.3205 -0.1052
20269W        W37793   2.078   6.594  17.021  0.0748  0.1165  0.2359
20270W        W37794   8.019  13.937  15.507  0.1190 -0.0859 -0.1151
20271W        W37795   0.311   6.328  12.978  0.0435  0.1651 -0.0447
20272W        W37796   1.297  14.650   0.013 -0.0705 -0.0517 -0.0261
20273W        W37797   0.626   5.830   4.353 -0.1021  0.0598  0.0573
20274W        W37798   9.700  11.098   2.218  0.3678 -0.3473  0.3470
20275W        W37799   6.846   7.261  13.449 -0.0362 -0.0464 -0.0605
20276W        W37800  10.053   2.488  12.455  0.2540  0.2557  0.0518
20277W        W37801   5.707   9.120   5.185  0.1207 -0.0390 -0.2577
20278W        W37802  16.630   2.546  13.311 -0.3256  0.1714 -0.1575
20279W        W37803   9.777   2.266  14.192  0.4373 -0.0609  0.6000
20280W        W37804   4.577   6.296  12.521  0.4510  0.0126  0.0178
20281W        W37805  16.373  13.559   0.797  0.0503  0.0036 -0.0840
20282W        W37806   0.083   0.701   0.212 -0.2136 -0.2107 -0.1837
20283W        W37807  16.460   1.617  12.939 -0.0733 -0.0989 -0.1687
20284W        W37808   2.410  11.671  17.522 -0.2954  0.1929 -0.3434
20285W        W37809  13.896   1.941  16.889 -0.0403 -0.1425 -0.1420
20286W        W37810  13.590  15.561   0.585 -0.0286 -0.0442  0.2674
20287W        W37811   2.736  14.862  12.692  0.1399 -0.0020 -0.2618
20288W        W37812   1.636   0.034   1.723  0.1236 -0.0570  0.0537
20289W        W37813   8.184   0.215  14.425  0.0897 -0.2180 -0.0839
20290W        W37814   6.088   5.448  15.961 -0.0377  0.0649 -0.1729
20291W        W37815  11.660  14.915  15.875 -0.1707  0.1149 -0.1257
20292W        W37816   9.407   9.059  16.531 -0.1422 -0.0381 -0.0446
20293W        W37817   1.386   4.489  17.048  0.0310  0.1030 -0.1099
20294W        W37818  12.440   2.858   3.840  0.2499 -0.0830 -0.2012
20295W        W37819   0.006   5.764  13.898 -0.1544  0.4091  0.0325
20296W        W37820   6.981   8.214  17.510 -0.0629  0.1294 -0.2277
20297W        W37821   7.756   3.061  15.337 -0.1173  0.0473 -0.1527
20298W        W37822  12.490   8.531   2.250 -0.1213  0.0398  0.0590
20299W        W37823   4.490   2.727  13.440  0.0150  0.0569 -0.1427
20300W        W37824   1.897   9.563  14.147  0.3192 -0.2123 -0.0887
20301W        W37825   6.617   4.823   0.225  0.3843  0.1961  0.2654
20302W        W37826   2.392  16.784  13.234 -0.0437  0.2180  0.0422
20303W        W37827  16.662   3.572  13.491 -0.0633 -0.1508  0.0494
20304W        W37828   2.167   4.892  16.947 -0.1459 -0.1478  0.2235
20305W        W37829   6.120   8.576   3.127 -0.1292  0.4748 -0.2039
20306W        W37830   6.463   1.960   3.596  0.1769  0.1486  0.2302
20307W        W37831   4.434   4.531   0.066  0.2467 -0.0481  0.1437
20308W        W37832   1.235  16.585  14.943  0.0453 -0.1072 -0.1458
20309W        W37833  14.484   7.373  16.915 -0.1813 -0.0325  0.0418
20310W        W37834   2.325   6.439  16.473 -0.1343 -0.0432 -0.1071
20311W        W37835   7.164   5.060  17.297  0.2382  0.0145 -0.1012
20312W        W37836   4.335  11.161  12.809 -0.0052 -0.1035  0.0730
20313W        W37837   2.119   8.529  15.527 -0.1428  0.0367  0.0655
20314W        W37838   4.813   2.211  13.574  0.0784  0.2709  0.3392
20315W        W37839   7.023   9.173  15.374 -0.1667 -0.0349 -0.2894
20316W        W37840   6.178  16.408   2.517  0.0396 -0.1007 -0.0618
20317W        W37841   9.958   7.871  13.209 -0.1222  0.0644  0.0807
20318W        W37842  10.231   7.538   3.289 -0.2266  0.0202 -0.0607
20319W        W37843  10.802  16.222   0.098 -0.3522 -0.1466  0.0144
20320W        W37844  13.544   5.220  14.401 -0.1270 -0.0287 -0.0500
20321W        W37845  11.986  16.125   4.387 -0.0988 -0.3385  0.0215
20322W        W37846   9.905   4.770   4.603 -0.0181 -0.3195  0.2013
20323W        W37847  15.912   8.715   4.442  0.2002  0.0282  0.1893
20324W        W37848  14.346   3.344  13.422  0.1979 -0.2010 -0.1404
20325W        W37849  16.531  11.108  14.502  0.3039  0.0116  0.0338
20326W        W37850   2.670   7.307  17.068  0.0749 -0.1839 -0.3239
20327W        W37851   8.659  12.257   0.289  0.0145 -0.0796 -0.2903
20328W        W37852  12.096   2.638  13.100 -0.0880  0.0176 -0.0248
20329W        W37853  11.262   1.899   4.314 -0.4416 -0.2072 -0.1296
20330W        W37854   2.935   2.844   5.641 -0.0516  0.1714 -0.0168
20331W        W37855   8.643   4.668   1.417  0.1239  0.2603 -0.0066
20332W        W37856   0.280  16.211  16.603 -0.2458  0.3075 -0.2908
20333W        W37857   7.452  13.075  14.743  0.2218  0.0443  0.3057
20334W        W37858   0.469   7.498   1.002  0.2212 -0.0661  0.0886
20335W        W37859   7.166   0.443   3.964 -0.0200 -0.0100 -0.0652
20336W        W37860   7.851  10.531  16.071 -0.3762  0.2500  0.2720
20337W        W37861  15.545  11.205  17.432  0.0668  0.0411  0.0945
20338W        W37862   3.307   8.548   4.355  0.4144 -0.0076  0.0256
20339W        W37863  12.608  13.704  15.312 -0.2036 -0.1297 -0.0894
20340W        W37864  12.392   4.507  16.252  0.1296 -0.0729  0.0125
20341W        W37865   3.621   3.989   1.061 -0.0607  0.1832  0.0980
20342W        W37866   7.616   2.790  16.156  0.0302  0.2173 -0.3124
20343W        W37867   5.386  12.380  16.163  0.0676  0.0900  0.1296
20344W        W37868  12.868   7.667  16.613  0.0907  0.1762 -0.1198
20345W        W37869  15.116  14.387  13.312  0.0361 -0.3299 -0.3443
20346W        W37870   0.531   5.174  15.416 -0.1214  0.0262  0.0281
20347W        W37871   9.076   6.448  13.986 -0.0821 -0.0269  0.1721
20348W        W37872  16.394  15.217   2.087  0.0849  0.1052  0.0476
20349W        W37873   9.960   9.628   1.857  0.1104 -0.1349  0.2151
20350W        W37874   3.181   3.811   0.458  0.2514  0.0950  0.0581
20351W        W37875   7.432   4.772  15.023  0.1394 -0.0800  0.0646
20352W        W37876  13.019  16.698   0.274 -0.3147 -0.2020  0.0319
20353W        W37877   9.261   3.305   2.824 -0.0641 -0.2213  0.0300
20354W        W37878   7.413  16.715   1.293 -0.2685  0.0181 -0.1124
20355W        W37879  14.132   9.452  13.202  0.1894 -0.0031  0.1381
20356W        W37880  15.829   3.623  11.792  0.2339  0.2655  0.4423
20357W        W37881  11.699   8.668   5.811 -0.3022 -0.0972 -0.1324
20358W        W37882  15.283  15.108   0.060 -0.0226 -0.1680 -0.1021
20359W        W37883   7.490  15.268  16.301  0.2113 -0.1266 -0.0693
20360W        W37884   9.651   4.586   0.595  0.0859 -0.0921 -0.0569
20361W        W37885  14.237  14.876   0.746 -0.1819  0.1933  0.2213
20362W        W37886   9.368   4.893   0.194 -0.3577  0.0795 -0.0499
20363W        W37887   6.968  15.496  15.428 -0.0554 -0.3352  0.2551
20364W        W37888  10.078   8.480   4.237  0.2232 -0.2158 -0.3708
20365W        W37889  16.646   4.883   0.984 -0.0574 -0.0531  0.1878
20366W        W37890   6.231   3.418  15.419 -0.0849  0.1128 -0.1054
20367W        W37891   3.490   6.355  17.457  0.2778 -0.0308  0.2252
20368W        W37892   7.481   7.573  15.916  0.1241 -0.0647 -0.0964
20369W        W37893  15.015   3.714  14.702  0.0085 -0.1649  0.3862
20370W        W37894  11.498  13.383  13.898 -0.0352  0.0204 -0.2026
20371W        W37895  15.571   9.454   0.318 -0.0639 -0.0877 -0.3613
20372W        W37896   5.381  16.459  15.679 -0.1133  0.2174 -0.1197
20373W        W37897   8.460   1.276   5.083  0.1979  0.0804 -0.0844
20374W        W37898  14.233   3.851  13.439  0.1919  0.0011  0.1249
20375W        W37899  11.457  10.778  16.428 -0.0728 -0.1253  0.0066
20376W        W37900  16.156   2.764   5.907 -0.3206 -0.2926 -0.2710
20377W        W37901   0.635   0.054  13.511 -0.0476 -0.0131  0.2585
20378W        W37902  16.360   2.018  16.197 -0.0688 -0.0488  0.0371
20379W        W37903  13.129  16.715  12.294 -0.1730  0.1326 -0.1282
20380W        W37904   6.929  11.877   0.160 -0.0337  0.2742 -0.1968
20381W        W37905  12.109  16.579  16.981  0.0527 -0.1413  0.4048
20382W        W37906   5.199  10.945  12.335 -0.2042 -0.2590 -0.0519
20383W        W37907   5.358  13.618   4.417  0.1801 -0.1120  0.2913
20384W        W37908   6.552   0.011   1.052  0.1354 -0.2687  0.3123
20385W        W37909  13.038  14.023   2.888 -0.0525  0.0990  0.0363
20386W        W37910   4.747   2.417   1.067 -0.4502  0.0854  0.1921
20387W        W37911   9.478  10.457  14.535 -0.0820  0.1375 -0.0105
20388W        W37912   3.192  13.605   3.546 -0.0529 -0.1240 -0.0888
20389W        W37913  14.636   1.890   1.847 -0.3598  0.0661 -0.1079
20390W        W37914   8.219   0.875  12.504 -0.1784 -0.1858  0.0969
20391W        W37915  11.883  15.895  16.289  0.2817 -0.0143  0.2180
20392W        W37916   2.722  17.006  15.822 -0.1333 -0.1718  0.0234
20393W        W37917   6.428  12.173   4.782 -0.0511  0.0430  0.0258
20394W        W37918   3.672  12.767  16.446  0.3382  0.0773 -0.1209
20395W        W37919  12.699  12.050   4.591 -0.0575  0.0251 -0.0230
20396W        W37920  10.570  10.039  14.987  0.2137  0.0333  0.0701
20397W        W37921   5.352  11.197   1.382 -0.1400 -0.3660 -0.4154
20398W        W37922  11.205   1.797  15.913  0.0152  0.0908 -0.2912
20399W        W37923   5.655  15.122  14.172  0.0595 -0.0323  0.0495
20400W        W37924   2.995   9.828  13.638 -0.0186 -0.0198  0.0655
20401W        W37925   5.326   6.566  12.870 -0.2982  0.1175  0.1198
20402W        W37926  13.906   6.196   4.320 -0.0067  0.0199 -0.2603
20403W        W37927  10.860   6.111  16.978  0.1049  0.1264  0.1257
20404W        W37928   0.358  11.233  14.415 -0.1742 -0.2009  0.0876
20405W        W37929   3.057   6.884   5.558  0.0956 -0.1700  0.0772
20406W        W37930  13.890  14.402   4.997  0.1102 -0.0204 -0.4024
20407W        W37931  16.000  11.001  17.588  0.0850 -0.1627 -0.2365
20408W        W37932   5.763  11.528   1.417  0.2352 -0.1455 -0.2032
20409W        W37933   7.953  11.822   0.286  0.0434  0.2449 -0.0886
20410W        W37934  17.075   9.543   0.153  0.0195  0.0734 -0.0315
20411W        W37935  15.328   0.044   5.305  0.1778 -0.2365  0.1881
20412W        W37936  16.480   0.534   4.225 -0.0487  0.1715  0.2331
20413W        W37937  13.283  14.657  17.071  0.0872 -0.0844 -0.1272
20414W        W37938   8.435   8.542  13.364  0.0502  0.0287  0.2694
20415W        W37939  11.421   8.852  15.583  0.1492 -0.1571 -0.5268
20416W        W37940   3.504   8.396   0.438 -0.1608 -0.1678  0.0188
20417W        W37941  15.315   9.377  14.002  0.1327 -0.1672  0.1746
20418W        W37942   7.009   4.780  15.362  0.1302  0.0382  0.0657
20419W        W37943   7.685   3.216   3.849 -0.0281 -0.0553 -0.2461
20420W        W37944   5.098  11.046   3.470 -0.1150  0.2777  0.4577
20421W        W37945   7.138   1.967  13.679 -0.1305  0.0289  0.1642
20422W        W37946  11.113   1.590   1.220  0.1284 -0.1146 -0.0993
20423W        W37947   9.137  14.743  17.072  0.1657 -0.0998  0.2026
20424W        W37948   3.072  14.172  15.766  0.1300  0.3459 -0.1879
20425W        W37949  11.839  16.336  14.585 -0.3252 -0.0561  0.0272
20426W        W37950  16.020   7.745  14.349 -0.2807 -0.0895  0.0151
20427W        W37951  12.834   2.125  13.468 -0.1896  0.1199  0.3288
20428W        W37952   8.836   1.837  15.201  0.5095  0.1761  0.2509
20429W        W37953   1.135   0.693  16.637 -0.2426  0.1522  0.1493
20430W        W37954  14.972   8.015   3.668  0.1500  0.1416  0.1869
20431W        W37955   3.159   7.827  14.916  0.0239  0.0541  0.0242
20432W        W37956   4.529   0.985   1.709  0.1075  0.0847  0.0414
20433W        W37957   8.039   9.545   3.999 -0.0082  0.1056 -0.1602
20434W        W37958  10.113   7.237  16.157  0.1776 -0.2010 -0.0092
20435W        W37959   0.312   6.561   3.844 -0.0285 -0.0897 -0.0737
20436W        W37960  13.860  15.495  17.046 -0.2216 -0.0544  0.1078
20437W        W37961   6.681  14.486  14.767 -0.2645  0.0324  0.3356
20438W        W37962  15.132   7.654   4.461  0.0314 -0.1282 -0.0018
20439W        W37963   8.979   0.062  16.539 -0.1042 -0.1008 -0.0457
20440W        W37964   3.171   2.357   1.223 -0.2021  0.0994 -0.2032
20441W        W37965   6.592   2.704   0.599 -0.1126 -0.0260 -0.1275
20442W        W37966   4.544  13.846  17.167  0.0710 -0.0942 -0.0652
20443W        W37967   4.208   5.048   0.819 -0.0573 -0.2367  0.2295
20444W        W37968   8.567  15.587   3.553 -0.1358  0.2402 -0.1201
20445W        W37969   8.862  16.082  16.904  0.1625 -0.2741  0.3499
20446W        W37970   2.131   2.679   0.332 -0.0662 -0.0477  0.1940
20447W        W37971  13.081   1.593   2.677  0.1160 -0.1597  0.1801
20448W        W37972   3.016   4.586   1.242 -0.0624  0.1060  0.1465
20449W        W37973  13.820  16.369  12.702 -0.1611 -0.2369 -0.1383
20450W        W37974   5.175  15.782  17.417  0.1221  0.2001 -0.4116
20451W        W37975  15.421  15.414   0.444 -0.2564  0.0966  0.0273
20452W        W37976  10.719  12.442   6.428 -0.0407  0.1402 -0.2318
20453W        W37977   8.729   9.732   3.903  0.3002  0.2649  0.5331
20454W        W37978   4.289  15.549  11.769 -0.2185 -0.1208  0.0753
20455W        W37979   7.631   0.314  16.228 -0.2037  0.2036  0.0308
20456W        W37980   1.548  16.004   1.664 -0.0422 -0.3873  0.0888
20457W        W37981   8.371   3.759  17.260 -0.1919  0.2332  0.4079
20458W        W37982  10.138   6.504  15.513  0.1360 -0.0170 -0.1317
20459W        W37983   7.682  11.683   4.112 -0.1287 -0.2216 -0.4233
20460W        W37984   7.856   8.948   4.761 -0.3318  0.1290  0.0041
20461W        W37985   4.366   4.806  14.207 -0.1684  0.0914  0.0751
20462W        W37986  12.297   6.745   2.499  0.2182  0.2013  0.0819
20463W        W37987  13.615   8.730  14.575  0.2018  0.1504  0.1220
20464W        W37988  17.026  16.942   2.752 -0.1846  0.0823  0.1290
20465W        W37989   4.819  13.531   2.580 -0.0945  0.0082 -0.1664
20466W        W37990   3.657   9.678  12.571 -0.0075 -0.0584  0.1221
20467W        W37991   2.934  11.957  17.065 -0.3342  0.3007  0.1533
20468W        W37992   0.762   5.243  14.239  0.0614 -0.1019  0.3553
20469W        W37993   0.758  16.554  15.178 -0.0814 -0.0217 -0.1450
20470W        W37994  10.011  10.163  13.624  0.0015  0.1231  0.1715
20471W        W37995   4.592   1.957   0.851  0.1421 -0.2109  0.1655
20472W        W37996  16.719   9.500  17.134 -0.3169  0.1979 -0.1393
20473W        W37997   2.299  15.833  12.291  0.0398  0.0672  0.0620
20474W        W37998  10.228   8.643   0.838 -0.1428  0.0538 -0.0455
20475W        W37999   8.899  12.616   2.241  0.0795  0.0361  0.3329
20476W        W38000   9.550   1.441  16.593 -0.0010  0.1644  0.0816
20477W        W38001   3.107  15.530  16.314  0.1329  0.2615 -0.0079
20478W        W38002   6.550  16.271   5.228  0.1524 -0.2026 -0.0032
20479W        W38003   6.470  15.137   2.902 -0.1305  0.0505 -0.1722
20480W        W38004   1.787   1.751  14.327 -0.2050 -0.0121 -0.0152
20481W        W38005  14.419   6.538   3.249 -0.0382 -0.1508  0.0381
20482W        W38006  13.400   6.366   2.292 -0.1626 -0.1158 -0.0472
20483W        W38007  13.805   7.368  12.825 -0.0988  0.0575 -0.1194
20484W        W38008   9.419  13.425   1.645  0.1987  0.1720 -0.0449
20485W        W38009  14.591   3.712   2.959  0.0252 -0.3084 -0.0105
20486W        W38010   9.737   4.438   6.455 -0.3539  0.1408  0.2924
20487W        W38011   5.080   8.983   2.520 -0.1335  0.0119 -0.2272
20488W        W38012   6.926   0.721   2.201  0.1075 -0.1806 -0.0693
20489W        W38013   8.184   5.376  12.431  0.0008  0.0363 -0.1184
20490W        W38014  16.794   9.695   3.311 -0.0603 -0.0096  0.4210
20491W        W38015   0.558   1.429   2.881 -0.1286  0.0697 -0.2571
20492W        W38016  10.678  16.081   1.078 -0.0621  0.2429 -0.3345
20493W        W38017  11.340   4.212   2.661 -0.1941  0.1075  0.1344
20494W        W38018  14.259   1.977  17.563 -0.1458  0.3439 -0.1872
20495W        W38019   9.651   8.322  15.613  0.4577  0.0113 -0.3179
20496W        W38020   2.922  11.758   1.939 -0.1273 -0.1270 -0.1743
20497W        W38021   9.427   1.634  15.607  0.2997 -0.2238 -0.0537
20498W        W38022  11.495  12.500  12.860  0.1529  0.0102 -0.1922
20499W        W38023  11.505  12.981  15.401 -0.0543 -0.1803  0.1225
20500W        W38024   1.307  15.375   0.933 -0.2673 -0.1595  0.1487
20501W        W38025  13.879  11.393   3.030  0.2890 -0.0754  0.3802
20502W        W38026   3.440   2.771  15.478 -0.2467 -0.3875  0.1235
20503W        W38027   5.377   8.241  12.658  0.1169 -0.1100 -0.2670
20504W        W38028  13.237  10.992  14.043  0.1585  0.0648  0.0213
20505W        W38029   7.014  10.854  15.263  0.1879 -0.0464  0.0942
20506W        W38030  14.137   5.792   3.621  0.0189  0.1214 -0.1167
20507W        W38031   5.954   6.767   2.515  0.1381  0.1554  0.1169
20508W        W38032   8.251  13.346  17.221 -0.0126  0.1084 -0.0181
20509W        W38033   2.872   6.663   4.381 -0.0678 -0.1499  0.2007
20510W        W38034  14.943  10.185   0.165  0.2680  0.2408  0.0702
20511W        W38035   3.169   4.560  12.702  0.0303 -0.1292 -0.0952
20512W        W38036   2.175  10.247  15.006 -0.1911 -0.1008 -0.2140
20513W        W38037   2.398  11.129  15.224  0.1052  0.2280 -0.2722
20514W        W38038  11.905   4.243  15.181  0.2918 -0.1653  0.1792
20515W        W38039  12.029  10.719  13.606  0.0419 -0.0630 -0.2918
20516W        W38040   8.425   5.804  15.934  0.0852  0.2924  0.1078
20517W        W38041   0.453   2.480  14.533 -0.1088 -0.1679  0.3634
20518W        W38042   6.040   2.748  13.590  0.0169 -0.0221 -0.0898
20519W        W38043   4.134  14.446   6.395 -0.1285  0.0304  0.2203
20520W        W38044   5.133  12.201   1.388  0.0546 -0.0081  0.0686
20521W        W38045   2.808   5.668   0.693  0.0251 -0.2619  0.1977
20522W        W38046   7.877   9.088   4.143  0.1337  0.3896  0.0272
20523W        W38047   1.236   7.326   4.804  0.0606  0.1775  0.1542
20524W        W38048   7.992  16.366  16.637  0.2099 -0.3041  0.2888
20525W        W38049   6.132   2.571  13.013  0.3612  0.1193 -0.1521
20526W        W38050   3.905  11.825   5.107 -0.2399 -0.2980  0.1905
20527W        W38051   4.846  15.950  14.818 -0.0922  0.2203 -0.0828
20528W        W38052   7.410  13.163  13.269 -0.0800  0.1125  0.3705
20529W        W38053   6.379   8.999   3.928  0.3158 -0.0190 -0.1738
20530W        W38054  14.985   0.692   4.670 -0.0477 -0.0572 -0.0155
20531W        W38055  16.220   9.866  13.807  0.1176  0.0119 -0.0198
20532W        W38056  10.747   5.012   3.537 -0.2459  0.1194  0.0483
20533W        W38057   2.052  14.644  13.531  0.0190 -0.2189  0.0001
20534W        W38058  10.017  15.539   3.494  0.2928  0.3325 -0.0171
20535W        W38059  10.789   9.710   5.275  0.2264  0.0675  0.0019
20536W        W38060   0.591   2.702   2.998  0.2266  0.0511 -0.0972
20537W        W38061  11.771  11.500   3.417 -0.0149  0.0260 -0.3296
20538W        W38062  13.036   7.016  13.430 -0.2269  0.1393 -0.0103
20539W        W38063   9.829  15.542  17.601 -0.1545  0.1125 -0.0345
20540W        W38064  15.221   5.095  13.326  0.0056  0.1185 -0.0062
20541W        W38065  11.157  15.931   4.721  0.1509  0.2293  0.1182
20542W        W38066  12.518   0.201  14.565  0.0412  0.0541  0.0758
20543W        W38067   1.252  13.969   4.100 -0.1746  0.0838 -0.1280
20544W        W38068   7.767  14.034  16.936  0.3174  0.0475 -0.0354
20545W        W38069  16.672  10.718  15.892 -0.0170 -0.0947  0.1393
20546W        W38070  13.241   1.607  15.409 -0.1343  0.2684 -0.0508
20547W        W38071   8.508   2.674  15.382 -0.0090 -0.0637 -0.0533
20548W        W38072   2.775   8.585  14.804  0.2144 -0.2157 -0.1750
20549W        W38073   7.299  11.757   0.915  0.0889 -0.2464 -0.0335
20550W        W38074   7.682  12.008   1.297 -0.0231 -0.2242  0.0379
20551W        W38075  15.786   2.163   1.204  0.0707 -0.3789 -0.1757
20552W        W38076   9.253  13.361   1.103 -0.3128  0.1613 -0.1290
20553W        W38077   5.318   4.798  17.526 -0.1768 -0.2587  0.0614
20554W        W38078   6.750  13.663  12.918 -0.0272  0.3698  0.0320
20555W        W38079  10.803   2.205  14.782 -0.3474  0.1856  0.2098
20556W        W38080  14.261  10.329   1.607 -0.2367  0.1728  0.1799
20557W        W38081   8.255  12.544   5.285 -0.0821 -0.2102 -0.2065
20558W        W38082   4.399   6.036  13.934 -0.0994 -0.1020 -0.2373
20559W        W38083   1.819   3.296  12.079 -0.2824 -0.0537 -0.3008
20560W        W38084   9.377   8.780   1.257  0.0835 -0.2375  0.3975
20561W        W38085   2.334   9.678   5.004 -0.0979 -0.2790  0.1746
20562W        W38086   9.237   7.254  12.854  0.1140  0.0219  0.1787
20563W        W38087   0.183  15.370   3.972 -0.1526  0.0837  0.0007
20564W        W38088   6.962   9.573  14.863  0.2461 -0.2375 -0.0128
20565W        W38089  13.181   6.931  13.899 -0.0980  0.0291  0.0729
20566W        W38090  11.770  12.220   4.236 -0.0234  0.1109 -0.2183
20567W        W38091   4.320  10.756  16.435 -0.0290 -0.0467 -0.0470
20568W        W38092  15.737  15.993  15.300  0.1026  0.2387  0.5933
20569W        W38093  12.081  12.552  12.725  0.1282 -0.0164  0.1501
20570W        W38094  12.230   5.128   6.411  0.1510 -0.4752 -0.0092
20571W        W38095  12.502   9.652  15.131 -0.1007  0.0949  0.3281
20572W        W38096   4.422  14.569   5.430 -0.1729 -0.0264  0.1604
20573W        W38097   5.963  16.492  14.395 -0.2572  0.2818  0.0428
20574W        W38098  12.248  12.680   4.203 -0.1858  0.2781  0.1145
20575W        W38099   8.064  14.157   3.464 -0.0514  0.3323 -0.0769
20576W        W38100   1.000  12.763   0.368  0.4280  0.0822  0.1414
20577W        W38101   1.846   6.157  12.783 -0.0373  0.0207  0.0886
20578W        W38102   1.555  16.915  15.202 -0.1643  0.0181  0.1275
20579W        W38103   1.691  10.453   0.641 -0.0253  0.0326  0.0466
20580W        W38104   6.198   5.660  12.576 -0.2747 -0.0930  0.0651
20581W        W38105   2.721   8.324   5.554 -0.1600 -0.0152 -0.1078
20582W        W38106   7.984   4.779   1.931 -0.1673  0.5062  0.2949
20583W        W38107   2.179  12.980  14.154  0.1017 -0.2915  0.2265
20584W        W38108  10.642   6.658   2.819  0.0224  0.0738 -0.0192
20585W        W38109   5.541   7.368  12.689  0.2243  0.1416  0.0666
20586W        W38110   2.161   9.065   3.972  0.3671  0.1284 -0.0280
20587W        W38111   2.811   0.882  12.823  0.3924  0.0955  0.0626
20588W        W38112  10.213  16.786  14.336  0.0602 -0.2081 -0.0764
20589W        W38113  10.083  16.453  13.215 -0.1142 -0.0171  0.1785
20590W        W38114  11.849   0.112  12.376  0.2331 -0.1045  0.0796
20591W        W38115   0.136   2.883  14.431  0.2683 -0.1539  0.0951
20592W        W38116   1.213  11.566  15.394 -0.1116  0.2618  0.0901
20593W        W38117   9.601   9.682   3.918  0.1840  0.0718  0.1436
20594W        W38118   9.162  17.056   2.203 -0.0687  0.0551  0.2249
20595W        W38119   4.919   3.056   0.156  0.1702 -0.0446 -0.3081
20596W        W38120  15.986  11.145  12.041 -0.1581  0.1172  0.1324
20597W        W38121  15.698   1.519  15.052 -0.1641 -0.0420 -0.0140
20598W        W38122  14.640  14.659   4.274  0.0867  0.3739 -0.1002
20599W        W38123   9.835   0.025  12.641  0.3143  0.0517 -0.2672
20600W        W38124   1.790   3.999   4.969 -0.0724  0.0865  0.1533
20601W        W38125   4.801  14.121  11.534  0.2026  0.1763 -0.0810
20602W        W38126   4.050   9.854   5.628  0.0777 -0.2432 -0.0158
20603W        W38127  14.477   5.569  16.603 -0.2659 -0.0346 -0.2169
20604W        W38128  12.722  15.305  12.661 -0.4094  0.2209  0.0382
20605W        W38129  12.249  10.359   2.901 -0.0816 -0.2860 -0.1659
20606W        W38130   2.483   3.633  16.785 -0.0295 -0.2534  0.0676
20607W        W38131  15.017  14.784   5.278  0.2162 -0.1220 -0.0222
20608W        W38132   3.583   0.421  14.895  0.0122 -0.0521  0.3232
20609W        W38133   6.019  13.070  16.216 -0.0901 -0.0607 -0.0995
20610W        W38134  16.375  15.102  14.835 -0.2655 -0.3523  0.1666
20611W        W38135   5.401  16.102  14.543  0.0842 -0.1949 -0.0167
20612W        W38136   3.494   9.768   4.178  0.0839  0.2364 -0.1049
20613W        W38137   6.351  15.065   4.443  0.3246  0.0911 -0.0544
20614W        W38138   7.488  10.374  15.333 -0.1836 -0.2415 -0.2908
20615W        W38139  14.524  15.173  13.436 -0.1451 -0.1814  0.0729
20616W        W38140   9.877   8.634   2.935  0.2182 -0.1789  0.1736
20617W        W38141   2.356   2.013   2.696  0.0800 -0.0324 -0.1912
20618W        W38142   8.965   1.161   1.935 -0.0451 -0.1667  0.0050
20619W        W38143  14.730  12.810  13.866  0.0479 -0.1511  0.3298
20620W        W38144   8.670   6.828  13.826  0.3347  0.1268 -0.3061
20621W        W38145  13.869  12.973   1.936  0.0022 -0.1277  0.1995
20622W        W38146  17.038  15.916  13.648  0.4106 -0.2400  0.0965
20623W        W38147  12.508   8.507  12.768 -0.2521  0.0555 -0.0638
20624W        W38148   7.186  12.044   2.981  0.1765 -0.1443  0.1276
20625W        W38149   2.520   2.806  14.819 -0.0113  0.0700  0.1024
20626W        W38150   9.870  13.835  15.937 -0.0272 -0.2686  0.1945
20627W        W38151  11.550   4.422  16.662  0.1555  0.1716  0.0820
20628W        W38152  12.477   8.251  11.882  0.1525 -0.2037  0.1497
20629W        W38153   1.477  12.525  12.467 -0.0809  0.0916  0.2456
20630W        W38154   3.669   8.169  14.315  0.0586 -0.2020 -0.2033
20631W        W38155   5.569   0.214  16.411 -0.1606 -0.0505 -0.2187
20632W        W38156   3.664   7.137   2.009  0.0205 -0.1091 -0.0960
20633W        W38157   6.214   1.893   0.580 -0.0468 -0.1500 -0.0764
20634W        W38158   8.737   9.459  17.366 -0.3452  0.0422  0.1569
20635W        W38159   1.389  13.021   3.107  0.1906 -0.1952 -0.1193
20636W        W38160  12.224   6.552   0.296 -0.0584  0.0374  0.1115
20637W        W38161   3.636   3.772   1.868 -0.0404 -0.1759  0.1607
20638W        W38162   9.444   4.216  14.055 -0.1600  0.1633  0.0356
20639W        W38163  11.450   3.331   1.071 -0.2957  0.0139 -0.1792
20640W        W38164   8.689  10.009   3.490  0.1516  0.2452 -0.1575
20641W        W38165  10.081  10.733  16.853  0.0845  0.0060  0.2260
20642W        W38166   5.067   0.199   5.180 -0.0452  0.0644 -0.1892
20643W        W38167  14.772   8.732   3.276 -0.0545  0.1136  0.2079
20644W        W38168   3.811  15.481   1.294  0.2232  0.4650  0.0232
20645W        W38169  15.493   1.125  14.824  0.0260 -0.0251  0.1285
20646W        W38170  17.098  12.390  16.571  0.1529 -0.0858 -0.1070
20647W        W38171  16.210   0.960  15.648  0.0242  0.0804 -0.0163
20648W        W38172   0.519  15.380  13.849  0.0444  0.4076 -0.1628
20649W        W38173   0.307   0.129  13.924 -0.3327 -0.1274 -0.0472
20650W        W38174   4.965   8.583   0.062  0.1535 -0.5035  0.1845
20651W        W38175  15.703  16.765   3.193 -0.0008 -0.2177 -0.0703
20652W        W38176  11.460   5.570   1.941  0.0754 -0.2096 -0.1189
20653W        W38177   0.206   2.022  15.878 -0.0756 -0.1753 -0.0371
20654W        W38178   1.565   3.273  15.287 -0.1391 -0.1575  0.0575
20655W        W38179   3.160   0.013   3.175 -0.4078 -0.0613 -0.0973
20656W        W38180   4.021   7.512  16.452 -0.1125 -0.0644  0.1841
20657W        W38181   3.132  12.951  15.458 -0.1309  0.0008  0.0778
20658W        W38182  12.551  17.142   2.425  0.0779  0.2139  0.2264
20659W        W38183   7.079  14.035  16.005 -0.1078 -0.0440 -0.1541
20660W        W38184  15.422   2.117  13.536  0.1276  0.0706  0.1110
20661W        W38185   2.185   5.496   2.258  0.3232 -0.0064  0.0079
20662W        W38186   4.095  13.521   4.276  0.0849 -0.0624 -0.0819
20663W        W38187  16.431  14.660   1.974 -0.0571 -0.0869 -0.2273
20664W        W38188  12.596   2.104   4.168  0.3348  0.0142  0.0024
20665W        W38189   7.271  15.159  15.179 -0.0112 -0.1816 -0.0452
20666W        W38190   9.788   9.272   3.548 -0.0266  0.0229  0.0501
20667W        W38191  10.316   6.098  16.411 -0.1095  0.0069 -0.2955
20668W        W38192   0.149   2.993   3.021 -0.0825 -0.0920  0.3142
20669W        W38193   7.851   3.806  15.065  0.2907 -0.0409 -0.3720
20670W        W38194  15.148  15.152   2.529 -0.0959  0.1263 -0.0214
20671W        W38195   7.905   5.181  14.484  0.1015 -0.2992 -0.0829
20672W        W38196   6.770   1.115  12.627 -0.2548  0.0333  0.3736
20673W        W38197   8.117  14.524   4.458  0.4036  0.0771  0.0812
20674W        W38198  13.499  16.125   0.136 -0.1247 -0.0555  0.0056
20675W        W38199  13.123  13.150  17.498 -0.0456 -0.1118 -0.1506
20676W        W38200   0.828  11.815  12.871  0.0485 -0.1790 -0.1350
20677W        W38201   0.609  11.819   2.022  0.0706  0.1120  0.1990
20678W        W38202   9.929  15.988  17.332 -0.3254 -0.0023  0.1972
20679W        W38203   2.717   7.341   4.191  0.0671  0.0827 -0.0351
20680W        W38204   8.765   7.419  16.562  0.2889  0.0419  0.1918
20681W        W38205   8.040   5.166   3.232  0.2888 -0.0681 -0.0151
20682W        W38206  13.119  14.713  13.033  0.0956  0.1885 -0.2934
20683W        W38207   3.522   7.556   2.979 -0.1531 -0.0073 -0.1236
20684W        W38208  16.264   6.864  14.062  0.3300  0.1088  0.0087
20685W        W38209  12.011  13.144   1.916 -0.3216  0.1236  0.2526
20686W        W38210   6.105   2.099  14.705 -0.0614  0.0175 -0.1931
20687W        W38211  11.503   6.877  12.107 -0.0778 -0.1382 -0.3221
20688W        W38212   2.254  12.650  16.477  0.0319 -0.1705  0.2371
20689W        W38213   7.179   1.038  16.838 -0.2061  0.2100 -0.2178
20690W        W38214  10.199   4.699   5.243 -0.0248  0.0769 -0.1436
20691W        W38215   3.053   4.576  17.537 -0.1447 -0.0249  0.0046
20692W        W38216   0.842  16.761  14.638 -0.3819 -0.0274 -0.1304
20693W        W38217  13.717  10.620  16.286 -0.0784  0.2886  0.0978
20694W        W38218   9.940  17.012  14.861  0.0772 -0.0160 -0.1757
20695W        W38219   6.381   8.641   2.651 -0.3563 -0.4715  0.0199
20696W        W38220   3.623   6.732   1.244 -0.0340  0.1341  0.0671
20697W        W38221  16.337   5.757   0.279  0.1492 -0.1863 -0.1884
20698W        W38222   6.457  16.146  16.073  0.0677  0.1949  0.0259
20699W        W38223   5.787  17.041   5.501  0.1995  0.2789 -0.3327
20700W        W38224  13.013  11.281   5.333  0.0459  0.0527  0.2141
20701W        W38225   9.990   4.225  15.909  0.1072  0.0274 -0.4123
20702W        W38226  15.598  10.060   4.772 -0.1124  0.2993  0.1725
20703W        W38227  11.512   7.642  14.449  0.1040 -0.0026  0.2872
20704W        W38228   5.604  13.112  16.816  0.0182  0.2755 -0.2647
20705W        W38229  14.479   5.942  15.958  0.1106  0.0031  0.1596
20706W        W38230  10.670  11.316  17.506  0.1127  0.0102 -0.1974
20707W        W38231   9.098   6.623  15.993  0.2828  0.2444  0.1171
20708W        W38232  14.576   8.939  15.061  0.1754  0.1570  0.0853
20709W        W38233   0.278   9.062   3.950  0.2022  0.0796 -0.1864
20710W        W38234  14.506   3.105  13.824  0.2596 -0.0474  0.1914
20711W        W38235  16.677   5.999   1.917  0.0147 -0.0155  0.4726
20712W        W38236   6.551   8.865  16.081  0.3690 -0.1744  0.1680
20713W        W38237  10.024  17.005  13.914  0.2119  0.1502  0.0576
20714W        W38238   9.490   6.630   5.119  0.0437 -0.0091 -0.3065
20715W        W38239   7.052   9.946   0.412 -0.0415 -0.1449  0.1207
20716W        W38240  11.873   4.880   3.615  0.0687 -0.2068  0.1785
20717W        W38241  16.772   4.929   5.100 -0.1061 -0.0873  0.3131
20718W        W38242  10.194  11.244   2.162 -0.0074 -0.3093  0.2080
20719W        W38243  14.979  11.580   3.554 -0.1694  0.1130  0.1333
20720W        W38244  12.139  10.696  12.637  0.1361  0.2349 -0.0707
20721W        W38245   1.581   0.164  13.714  0.3437  0.1138 -0.1200
20722W        W38246  16.490   6.842  16.101  0.0960 -0.2141  0.1255
20723W        W38247   1.755   7.164  16.831 -0.1269  0.0226  0.3169
20724W        W38248  12.387   0.964  13.007  0.3070  0.1099 -0.2427
20725W        W38249   5.103  16.496   2.170 -0.0123  0.0643 -0.0216
20726W        W38250   3.610   7.771   3.464 -0.0551  0.1807 -0.1191
20727W        W38251   6.765  12.751  15.348  0.1557 -0.1309 -0.3463
20728W        W38252  13.768   7.714  13.653 -0.1136 -0.0357 -0.1417
20729W        W38253   8.769  13.832   2.786 -0.0107 -0.0733 -0.1723
20730W        W38254   3.675   2.626   2.844  0.1659 -0.0492  0.0947
20731W        W38255   4.323  10.904  12.334  0.1652 -0.4337 -0.0792
20732W        W38256   6.181  12.231  12.792 -0.2212  0.1808 -0.1239
20733W        W38257   0.184  11.471   3.166  0.2478 -0.0536 -0.2767
20734W        W38258  14.972  12.917  15.795  0.2155  0.1423  0.1768
20735W        W38259  10.253   6.232  15.900  0.1392 -0.0799  0.3578
20736W        W38260  10.535   8.647   5.136 -0.0536 -0.0118 -0.0170
20737W        W38261  12.344  13.382   3.670  0.1921 -0.1341 -0.1703
20738W        W38262   8.830   4.321   1.752  0.2110 -0.0006 -0.1857
20739W        W38263  12.014   2.195   3.314  0.0238  0.1223 -0.1181
20740W        W38264   5.931   4.583  13.363  0.0742  0.0174 -0.0848
20741W        W38265  16.020  10.001  16.823  0.0365 -0.2359 -0.1463
20742W        W38266   1.880   4.935  15.717 -0.1862 -0.0083  0.1601
20743W        W38267   8.188   7.206   1.059  0.0571  0.1710  0.0457
20744W        W38268  14.544  10.421   2.687 -0.0047 -0.2404  0.0985
20745W        W38269   9.092  14.196   3.286  0.0158  0.0161 -0.0325
20746W        W38270   9.767  17.009   0.524  0.1076 -0.2088 -0.2258
20747W        W38271  14.684  10.224  15.492  0.2424 -0.0154 -0.1070
20748W        W38272   1.137   1.731  15.023 -0.1165  0.0118  0.0016
20749W        W38273  16.436   4.088   2.924 -0.2279 -0.0341 -0.1007
20750W        W38274   2.241  12.112  14.164 -0.2481  0.0508  0.1177
20751W        W38275  15.828  17.062  13.017  0.1006 -0.1677  0.1376
20752W        W38276   7.975  11.130   2.410 -0.0936  0.2206 -0.0305
20753W        W38277   6.038   3.075   4.896 -0.1216  0.0233  0.0086
20754W        W38278   3.642   3.541   4.042 -0.2454  0.2495  0.0991
20755W        W38279  11.392  11.105   0.355  0.1664 -0.1935 -0.0385
20756W        W38280   0.701   3.468  14.238 -0.0875 -0.0503 -0.2547
20757W        W38281   9.535   5.921   2.996 -0.1460  0.1418 -0.1013
20758W        W38282   7.256  17.015   3.296  0.1167  0.2277  0.1175
20759W        W38283   8.181   6.369  17.082  0.0216 -0.2115 -0.2463
20760W        W38284   9.038  15.851  12.200  0.0979 -0.0791  0.0005
20761W        W38285  15.692   7.350  16.143 -0.0378  0.1543 -0.2624
20762W        W38286   0.242   9.044  14.433  0.1159  0.4157  0.1063
20763W        W38287   7.196  16.352  13.666 -0.0424 -0.0384  0.2612
20764W        W38288   3.572  12.867   0.962  0.1168 -0.1102  0.1554
20765W        W38289   9.661  15.355  17.133  0.0616 -0.0648  0.2870
20766W        W38290   2.870  14.759   2.304 -0.1386 -0.2107 -0.0262
20767W        W38291  11.807  12.633  14.955  0.0921  0.2273  0.0928
20768W        W38292  11.488  16.585  12.888  0.2645 -0.2653 -0.0209
20769W        W38293   9.308  11.460   2.285 -0.2423  0.3364 -0.0493
20770W        W38294   8.712   5.175   5.403 -0.1838 -0.1186 -0.2083
20771W        W38295   1.116   4.919  13.679 -0.1817  0.3775  0.1030
20772W        W38296   2.545  10.325  16.339 -0.0689  0.0008  0.2894
20773W        W38297   9.940  12.199  16.632  0.3041  0.1529 -0.0060
20774W        W38298  14.677   2.083  12.827 -0.2045 -0.0169 -0.0028
20775W        W38299   1.971   0.533  12.487 -0.0322  0.0063 -0.1033
20776W        W38300   7.309   5.784   4.482  0.2111 -0.1320  0.0741
20777W        W38301   4.600   7.191   2.514 -0.0544  0.0042  0.2820
20778W        W38302   2.313   3.402   3.993  0.1954 -0.0599  0.1118
20779W        W38303   4.859   2.791   4.281 -0.1325 -0.0519  0.3399
20780W        W38304  11.018   4.206  15.887  0.1502 -0.2956 -0.0068
20781W        W38305   3.315   5.442   2.410 -0.0803 -0.1117  0.0090
20782W        W38306   1.158  12.205  13.611 -0.0622  0.0654  0.0755
20783W        W38307   9.029  11.127  14.011 -0.1342 -0.0473  0.5919
20784W        W38308   4.162  17.071  12.000  0.2340  0.2975  0.0988
20785W        W38309  16.645   1.996  13.897 -0.0960 -0.2191 -0.1095
20786W        W38310   4.694   7.571   1.533  0.2038 -0.2221 -0.1187
20787W        W38311   3.490  10.284  14.758 -0.1363  0.1264  0.2632
20788W        W38312   2.846   2.351   3.800 -0.1933  0.1446  0.1423
20789W        W38313  16.186   3.983   4.983 -0.2302  0.2188 -0.2595
20790W        W38314   8.438  15.803  17.240  0.0353 -0.3725  0.0508
20791W        W38315   9.857  12.230  13.304  0.1135 -0.0922 -0.0083
20792W        W38316  10.219   2.437   0.542 -0.2642 -0.0219  0.2203
20793W        W38317  15.500  13.494   0.854  0.0315 -0.0313 -0.0036
20794W        W38318  10.422  11.814   3.087  0.0772 -0.2647  0.0736
20795W        W38319   3.349   6.093   4.939  0.0862  0.0428 -0.1858
20796W        W38320  16.570  12.703   1.040  0.0409 -0.3458  0.2364
20797W        W38321   7.373  13.965  17.263  0.0031  0.1861 -0.2058
20798W        W38322  17.094   0.273   2.834 -0.1981 -0.0310  0.1062
20799W        W38323  16.624   5.024   1.541 -0.2855 -0.0668  0.0957
20800W        W38324   2.075  16.426  13.049  0.2570  0.2404  0.1585
20801W        W38325  10.044  11.031  14.652  0.0641 -0.0874  0.0343
20802W        W38326   3.295  12.018  12.111  0.0334  0.1624 -0.3598
20803W        W38327   2.171   1.618  12.718 -0.0191 -0.0578  0.1119
20804W        W38328  11.608   7.482   3.494 -0.0921  0.0110  0.0276
20805W        W38329  14.851   9.119   5.186 -0.1106  0.0099 -0.3016
20806W        W38330   2.988   8.581  12.406  0.1143 -0.2034 -0.2099
20807W        W38331   3.801   1.504   5.433  0.0103  0.3154  0.0035
20808W        W38332   4.491   4.715  15.563 -0.1742  0.4241  0.1167
20809W        W38333  12.692   3.225   5.654  0.0433 -0.2583 -0.4360
20810W        W38334   9.506   1.889   2.816  0.2315  0.1093  0.3160
20811W        W38335  13.466   8.778   3.965 -0.2979  0.3862  0.1371
20812W        W38336   1.579  16.912  12.531 -0.1283 -0.1858 -0.2688
20813W        W38337   5.014   9.526  16.685 -0.1477  0.1441  0.2478
20814W        W38338  15.822  15.182  13.766  0.1289  0.0673 -0.0659
20815W        W38339   0.487  15.385  11.704 -0.1279  0.2707 -0.1205
20816W        W38340   8.094  12.375  14.536 -0.1492  0.1862 -0.2191
20817W        W38341  13.628   5.868   4.528 -0.1597  0.2806 -0.0422
20818W        W38342   0.211  13.494  16.713 -0.2308 -0.3284  0.3174
20819W        W38343   6.256  10.934  14.581 -0.0175  0.2698 -0.0639
20820W        W38344   4.703   2.386   5.224  0.1885  0.2491 -0.0589
20821W        W38345   7.337  14.390  16.260 -0.0504 -0.0549  0.0248
20822W        W38346   9.799   1.542   4.939  0.1729 -0.2334  0.2677
20823W        W38347   2.574   5.140   4.195 -0.0352 -0.0029 -0.1380
20824W        W38348  12.841  11.582   4.498  0.0918  0.0180 -0.0334
20825W        W38349  16.575  15.846   2.090 -0.0811  0.0162  0.0328
20826W        W38350  17.018   6.188  17.369  0.1961  0.0559  0.0591
20827W        W38351   6.869  13.536   5.558  0.1830 -0.0215  0.1067
20828W        W38352   9.333   1.913   3.321  0.0494  0.0070  0.1339
20829W        W38353   5.786  16.137  15.687  0.2289  0.1842 -0.0339
20830W        W38354  13.481  11.488   2.730 -0.0072 -0.1907 -0.0402
20831W        W38355   1.815   9.647  16.239  0.2310 -0.0625  0.0809
20832W        W38356   8.779   0.385   4.919  0.0086  0.1298 -0.1547
20833W        W38357   5.001   5.684   1.048  0.0987 -0.0348  0.1312
20834W        W38358   3.336  11.552  16.543 -0.0591  0.1431  0.0311
20835W        W38359   4.929  14.083  13.486 -0.1868  0.0204  0.0997
20836W        W38360  16.677   7.647  12.846 -0.0233 -0.2448 -0.0631
20837W        W38361  14.524  14.763   1.894  0.0255  0.0356  0.0295
20838W        W38362   7.964   1.488  16.493  0.0203 -0.2838 -0.2348
20839W        W38363   1.734  11.281   4.771  0.1056  0.4274 -0.0916
20840W        W38364  15.156   9.535  16.714 -0.0530 -0.0914  0.0617
20841W        W38365   7.473   2.861   5.630 -0.1799  0.2381 -0.0795
20842W        W38366  12.804   5.736   1.440  0.1070  0.6095  0.0551
20843W        W38367   9.426   5.448  14.227  0.0729 -0.0167 -0.0591
20844W        W38368  16.685   9.522   3.804 -0.0101  0.3728 -0.2196
20845W        W38369   1.216   4.705   4.599  0.1391 -0.1842  0.0355
20846W        W38370   2.384   9.881   3.504 -0.0106  0.0555 -0.0500
20847W        W38371  12.230   5.769   1.230 -0.1627 -0.0852  0.0059
20848W        W38372  11.874   5.308   0.513  0.1237  0.0100  0.2878
20849W        W38373   6.460   6.570   1.213 -0.2023  0.0498  0.3593
20850W        W38374   4.304   8.829  12.514  0.2887 -0.0962 -0.0671
20851W        W38375  12.654  10.565   3.202  0.1269  0.2479  0.5094
20852W        W38376   9.366  16.270  16.561 -0.0450 -0.2008  0.0538
20853W        W38377   8.764   8.273  16.758  0.1666 -0.0023 -0.0460
20854W        W38378  13.602   6.032  16.356 -0.1187  0.0379  0.0772
20855W        W38379  15.934   3.051   5.569  0.2268 -0.0935 -0.0761
20856W        W38380  16.432   8.941   4.792  0.1564  0.0086  0.1735
20857W        W38381  15.982  12.202  15.957  0.1239  0.1433  0.1391
20858W        W38382  15.282  14.121  11.199 -0.0648 -0.0990  0.0398
20859W        W38383   3.985   5.121  13.378  0.1452  0.1030  0.1210
20860W        W38384  10.406   4.826   0.960 -0.0596 -0.2760  0.3430
20861W        W38385  16.204   3.485   1.224  0.0551  0.0623  0.0756
20862W        W38386  10.314   5.505  17.365 -0.0086  0.0132  0.1287
20863W        W38387  14.394   1.322   0.306  0.0974  0.1458 -0.0016
20864W        W38388   6.084  13.396  13.893 -0.0096  0.1020 -0.0855
20865W        W38389  12.318  14.926   2.267  0.0049  0.1278  0.0143
20866W        W38390   1.454   1.241   5.179  0.1834 -0.0223  0.0103
20867W        W38391   5.115  10.866   3.906  0.2994 -0.0296  0.2530
20868W        W38392   5.764   8.913  16.731  0.0715 -0.0792 -0.0575
20869W        W38393   3.699   6.367  16.017 -0.1703 -0.0454 -0.2553
20870W        W38394  12.158   6.839  13.452 -0.2222  0.2449 -0.1004
20871W        W38395   8.454  15.900   2.262 -0.2257  0.2888 -0.2132
20872W        W38396   9.594   2.949  16.815 -0.2189 -0.1901 -0.0816
20873W        W38397  11.074  15.904  13.599  0.0360  0.2290  0.0058
20874W        W38398  15.242   6.610  16.771 -0.0269 -0.0154  0.1052
20875W        W38399  10.279   4.645  16.110 -0.0093 -0.1631  0.0704
20876W        W38400   6.724   3.223  17.673  0.1811  0.0958 -0.0120
20877W        W38401   6.221  14.403  16.481  0.1084  0.2188  0.3485
20878W        W38402  16.670   9.960  12.485 -0.0619 -0.2271 -0.2645
20879W        W38403  11.108  16.846  15.554  0.0399  0.1952  0.4338
20880W        W38404  10.901   3.861   1.780 -0.1217  0.1170 -0.0852
20881W        W38405   1.224   1.259  15.117 -0.0395  0.1528  0.0409
20882W        W38406  13.022   8.038   2.341 -0.0108 -0.1602 -0.3319
20883W        W38407  10.118   6.813  12.114 -0.2061  0.0021 -0.0235
20884W        W38408  11.348   3.165   4.343  0.0027  0.0013  0.1211
20885W        W38409   6.952  13.307  16.139  0.2530  0.0090 -0.1417
20886W        W38410   9.285   0.663  15.671  0.4340  0.0961  0.0219
20887W        W38411  12.006   7.393   1.763 -0.0288  0.3802 -0.1626
20888W        W38412   2.658  10.349   0.927  0.1149  0.1594 -0.0636
20889W        W38413  15.873  14.142   3.914  0.2225  0.0396  0.1359
20890W        W38414  10.113   1.525  16.569 -0.2127 -0.1898 -0.0380
20891W        W38415  10.050   9.841   4.366 -0.3731 -0.1727  0.0971
20892W        W38416  14.578   7.583  14.957  0.1427  0.1356 -0.0193
20893W        W38417  10.499   1.458   3.534  0.4004  0.2050 -0.0758
20894W        W38418   6.819   7.712  13.338 -0.2324  0.2364  0.1606
20895W        W38419  17.103   1.936  15.493  0.0847 -0.0877 -0.0636
20896W        W38420  15.348   1.415   1.421 -0.1215 -0.1545  0.0723
20897W        W38421   3.885  12.097   4.246  0.1463  0.0802  0.0292
20898W        W38422  16.874  10.827   0.135  0.2394 -0.2290 -0.0496
20899W        W38423   0.469  13.271   0.848 -0.0324  0.0769 -0.0267
20900W        W38424   0.864   6.164   3.509 -0.2529  0.0338  0.1521
20901W        W38425  10.364   2.083  12.304 -0.1711  0.0831  0.0373
20902W        W38426   2.407   6.734  12.635  0.0722  0.4313 -0.2352
20903W        W38427  13.343  10.391   0.398 -0.1170 -0.2299 -0.1062
20904W        W38428   9.442   6.664  15.108 -0.1143 -0.2798 -0.0594
20905W        W38429   6.805   6.103   5.517 -0.2088  0.1408  0.1849
20906W        W38430   0.912  11.463   1.067  0.0991 -0.2924 -0.0687
20907W        W38431   6.873   9.169   3.099  0.1115  0.0165  0.0937
20908W        W38432  13.921   6.302  16.063 -0.2327 -0.0067  0.0127
20909W        W38433  13.894   9.414  17.494  0.0910  0.2267  0.3376
20910W        W38434   0.729   0.185  14.262  0.0782 -0.0945 -0.1179
20911W        W38435   2.156  13.148   1.497 -0.2536  0.2396  0.0956
20912W        W38436  13.132   5.957   1.805  0.1095 -0.0842  0.1031
20913W        W38437   2.757   4.254  12.600  0.1340 -0.0711  0.2298
20914W        W38438  10.527  11.158   3.033  0.1106 -0.0708 -0.2963
20915W        W38439  13.171   0.623   2.875 -0.0633 -0.4605  0.0509
20916W        W38440  15.362  16.546   1.219  0.4159  0.1009 -0.0201
20917W        W38441   1.154   2.837   1.527 -0.1625 -0.1586  0.2177
20918W        W38442   4.205  12.612  16.332  0.0455 -0.1607 -0.3885
20919W        W38443   6.356  10.741   0.467  0.2100  0.0283 -0.0580
20920W        W38444  16.069  10.743   3.109 -0.1708  0.2280 -0.2411
20921W        W38445  13.566   9.567  15.082 -0.3849  0.1381 -0.0215
20922W        W38446   0.534   3.334   1.115 -0.2916  0.0713  0.0971
20923W        W38447  13.427   3.602  15.734 -0.1282 -0.1633  0.0053
20924W        W38448   8.756  13.637  14.819  0.1485  0.0416 -0.2920
20925W        W38449  10.854   7.781   2.034 -0.1351  0.1852 -0.0817
20926W        W38450   0.273  14.988  15.897 -0.0065  0.3272  0.3538
20927W        W38451  12.913   6.982   1.176 -0.1857 -0.1993  0.0864
20928W        W38452   6.517  10.368   3.459  0.0697  0.1663  0.2123
20929W        W38453  14.637   6.156   5.688 -0.1302  0.2243  0.2876
20930W        W38454   0.392  10.850   4.484  0.3916  0.1766  0.2152
20931W        W38455   3.603   7.576  13.418  0.1071  0.1501 -0.1341
20932W        W38456   7.606   9.765  14.752  0.2701 -0.0836  0.2472
20933W        W38457   1.368  12.921   1.674 -0.2143  0.1501  0.0653
20934W        W38458   3.615   7.494   4.432 -0.1288  0.4352 -0.2326
20935W        W38459   1.811   1.236   2.121 -0.0330 -0.0828 -0.2169
20936W        W38460  16.096   0.959  16.603 -0.0002 -0.2447  0.2567
20937W        W38461   6.412  10.745   4.284 -0.4003  0.1630 -0.1137
20938W        W38462   2.213   0.802   4.664  0.0476 -0.1646  0.0436
20939W        W38463  13.510   9.848   1.978 -0.1304  0.2418  0.2579
20940W        W38464   6.126  12.398   0.649 -0.2260  0.0356  0.0915
20941W        W38465  16.622   6.244  12.613 -0.1289 -0.2919 -0.0296
20942W        W38466  16.473  11.787  17.203  0.2846  0.0448 -0.1313
20943W        W38467   8.054   6.994  13.052 -0.0392  0.0011 -0.1211
20944W        W38468  14.044  10.772  15.972  0.1603  0.3441 -0.2210
20945W        W38469   9.213   9.988  15.400 -0.0345 -0.0929  0.1006
20946W        W38470   3.963  15.439  17.385  0.2371  0.1370 -0.3027
20947W        W38471  13.853  14.953  14.734 -0.0640 -0.2439 -0.0126
20948W        W38472  16.868  11.197   2.270  0.0180  0.0197 -0.2137
20949W        W38473   2.144   2.365   2.972  0.1583 -0.0125 -0.0744
20950W        W38474  10.665  15.649  16.478 -0.2012 -0.0390  0.0252
20951W        W38475   5.458  16.730  16.074 -0.0773 -0.0807 -0.0162
20952W        W38476  13.047   7.214  17.599 -0.1618 -0.0806  0.1127
20953W        W38477   6.682  16.161  13.861  0.2049  0.1957 -0.0815
20954W        W38478  16.811   3.273   3.884 -0.0555 -0.1301  0.0192
20955W        W38479  16.594   9.297  13.119  0.0217  0.0640  0.3043
20956W        W38480  10.580   5.929  17.353  0.2285 -0.0086  0.0994
20957W        W38481  10.145  14.103  14.296  0.1931  0.2142 -0.3034
20958W        W38482   3.000  12.740  17.162  0.1168  0.0107  0.1150
20959W        W38483  12.141   7.265  13.932 -0.2053  0.0857 -0.0991
20960W        W38484  12.851   0.396  12.443 -0.1294 -0.1985  0.0792
20961W        W38485  10.495   4.193  16.043 -0.1089  0.0605 -0.1856
20962W        W38486  13.657   2.408   6.714 -0.0183  0.3796 -0.3581
20963W        W38487   5.675  13.115  12.511  0.3135  0.1993  0.3579
20964W        W38488   0.796  11.696  15.130 -0.0689 -0.1587 -0.0511
20965W        W38489  16.124   0.538   3.305 -0.3195 -0.1190 -0.0907
20966W        W38490   3.527  13.783  17.275 -0.0131  0.0961 -0.1422
20967W        W38491   3.048   6.333  14.172  0.1591  0.0063  0.0988
20968W        W38492  15.359  12.249   0.358  0.4332 -0.1203 -0.0160
20969W        W38493   0.316   3.581   1.473  0.0442 -0.2529  0.1593
20970W        W38494   8.505   5.209  17.584 -0.0483 -0.0202  0.1444
20971W        W38495   7.904  11.798  15.083 -0.1224 -0.2609 -0.2421
20972W        W38496  13.221   5.216   0.475 -0.0327  0.0066 -0.1796
20973W        W38497   8.143   3.502  14.816 -0.2611  0.2523  0.0824
20974W        W38498   8.069   0.671   0.641  0.4319 -0.1775 -0.1840
20975W        W38499   0.354  10.461   2.738 -0.0675 -0.1223 -0.0504
20976W        W38500   3.217  14.924   4.826 -0.0728  0.1160 -0.0226
20977W        W38501   9.482   8.959  17.732  0.0164  0.0889 -0.1669
20978W        W38502   9.337   8.542   0.511 -0.0340 -0.0016  0.0836
20979W        W38503  10.007   7.839  12.664 -0.0739  0.0785 -0.3675
20980W        W38504  13.127   6.735   4.580  0.1297 -0.3308  0.0297
20981W        W38505   4.818  13.182  15.311 -0.0545  0.0235 -0.0018
20982W        W38506   6.846   6.430   1.598 -0.4982 -0.1331 -0.0497
20983W        W38507   7.118  13.626  13.257 -0.1816 -0.0841 -0.3168
20984W        W38508   3.314  12.371  17.716  0.5636  0.4015 -0.2229
20985W        W38509  12.628  12.027   5.340 -0.0738  0.0878  0.1434
20986W        W38510   1.324  12.694  17.176 -0.1619  0.0830  0.0626
20987W        W38511  13.469  16.371  16.444  0.1367  0.1539  0.2931
20988W        W38512  10.808  16.542   1.922 -0.1598 -0.0439  0.3399
20989W        W38513   3.347  13.613  14.645 -0.1066  0.1992  0.0252
20990W        W38514   6.705   9.045  17.026 -0.0942 -0.2422 -0.1917
20991W        W38515  14.984   2.147  15.346  0.1793 -0.1474 -0.1599
20992W        W38516   6.846   3.817  12.586  0.3698  0.0527  0.1766
20993W        W38517  14.767   6.802  17.632  0.1699 -0.1522  0.0206
20994W        W38518   3.744   6.327  14.703  0.1908  0.1376  0.2950
20995W        W38519   3.289   5.632   5.139 -0.0450  0.5344  0.1978
20996W        W38520   9.737  14.276  16.278 -0.2188  0.3487  0.0754
20997W        W38521   5.407  13.471  14.139  0.1030  0.2047  0.0424
20998W        W38522   6.273   7.627  14.108 -0.1615  0.1764  0.4642
20999W        W38523  14.157  13.046   0.386 -0.1485 -0.1125 -0.1233
21000W        W38524  15.097   0.198  17.027  0.1012 -0.4290 -0.1377
21001W        W38525  16.901   8.197  17.103 -0.2933  0.2155  0.0898
21002W        W38526   8.988  11.067   1.138  0.1867  0.1015  0.0919
21003W        W38527  14.157  13.404  12.588  0.3670  0.2027 -0.0537
21004W        W38528   4.049   2.913  17.398 -0.1919  0.5011  0.1335
21005W        W38529  10.339   8.774   4.599  0.0823  0.0411 -0.0039
21006W        W38530  14.806  15.247   4.377 -0.2215  0.1638 -0.2033
21007W        W38531   7.436   5.361  12.892  0.0834  0.1609 -0.0532
21008W        W38532  11.093  12.446   0.080 -0.0104  0.1636  0.0232
21009W        W38533   5.729   7.403  12.090  0.1369 -0.2646  0.1766
21010W        W38534   2.573  11.735   1.263  0.0641  0.0049 -0.3358
21011W        W38535  13.527  12.616   1.804  0.0734  0.1442 -0.1989
21012W        W38536   4.374  15.577   3.068  0.0231  0.4003  0.1805
21013W        W38537  10.371  10.338  15.884 -0.4255  0.1783  0.1604
21014W        W38538   8.945   5.146   4.373  0.0950  0.3413  0.0184
21015W        W38539  10.329   5.907  15.540  0.3692 -0.2256  0.2015
21016W        W38540  13.704  12.617  11.506 -0.2388  0.0613  0.0409
21017W        W38541   1.347   5.471   0.023  0.0997  0.2328 -0.2895
21018W        W38542   0.354  15.129  13.178  0.0366  0.0445  0.5302
21019W        W38543  11.965  11.083   3.677  0.1393  0.0416  0.1865
21020W        W38544   5.198   9.580  13.662 -0.1983  0.1309 -0.2300
21021W        W38545   9.485  14.123   0.486 -0.0138  0.4059  0.2443
21022W        W38546   5.149  11.301   0.959  0.0178  0.0367  0.0231
21023W        W38547   5.811   1.305   2.128 -0.1481  0.3172  0.3058
21024W        W38548  14.846   4.706   6.007  0.1695 -0.4373  0.1619
21025W        W38549   2.055   3.213   5.829 -0.3016 -0.1791 -0.0233
21026W        W38550   2.842  13.662  13.790  0.0482  0.0488  0.1719
21027W        W38551   9.466   9.298  13.527  0.0094 -0.1366 -0.1621
21028W        W38552   0.267  10.892  15.843  0.3473  0.0564 -0.0267
21029W        W38553   9.272   5.687   4.468  0.0444  0.0607 -0.1938
21030W        W38554   6.694  15.607   1.762  0.2736 -0.0058  0.0638
21031W        W38555   0.896   2.504  12.628 -0.2222 -0.1940  0.2305
21032W        W38556   1.998   3.231   0.167  0.0078 -0.3511 -0.0312
21033W        W38557   5.065   6.826   1.897 -0.0577  0.0673 -0.1434
21034W        W38558  13.778  16.179  13.616 -0.0774 -0.2752 -0.1587
21035W        W38559   9.771  15.093  11.051  0.2700 -0.1081 -0.1485
21036W        W38560  10.836   8.677   3.803  0.1979 -0.0793  0.5182
21037W        W38561  13.654  14.101  12.311 -0.3951  0.0053 -0.0972
21038W        W38562  10.328  11.554  14.105  0.1886  0.1935  0.1660
21039W        W38563   2.495   9.923  15.488  0.0774  0.2074  0.1213
21040W        W38564   4.588  16.094  17.610 -0.0753 -0.0770 -0.1610
21041W        W38565   5.014   5.635   5.160  0.0768  0.1763  0.1482
21042W        W38566  12.829   3.644  17.712 -0.0505 -0.0399 -0.3067
21043W        W38567   6.594   2.743  15.273  0.2913  0.1664 -0.0189
21044W        W38568  11.069   8.005   4.502  0.0493  0.0613 -0.1817
21045W        W38569  10.874  16.037  14.931  0.2594 -0.0237 -0.1462
21046W        W38570   5.999  12.979   2.216  0.0574 -0.0213  0.3327
21047W        W38571   2.554   5.284   1.962  0.0422  0.0888  0.0590
21048W        W38572  13.688   1.467   1.102 -0.1982  0.0720 -0.0737
21049W        W38573  12.819  13.500  16.732  0.0339  0.4188  0.0278
21050W        W38574   6.298  15.845  13.837 -0.1875 -0.2812  0.0977
21051W        W38575   4.184   7.341   1.660 -0.1581  0.1273 -0.0898
21052W        W38576   8.522   2.971  17.495  0.2454  0.2049  0.2547
21053W        W38577   5.311  15.328   2.282 -0.1316 -0.1581 -0.0851
21054W        W38578   1.687   2.456   6.139 -0.1270 -0.2533 -0.2100
21055W        W38579   3.800   0.849   4.023 -0.0723  0.2470 -0.2528
21056W        W38580   7.167  12.289  14.146  0.3165  0.3823  0.2706
21057W        W38581   3.402  15.283   0.865  0.0188 -0.2609 -0.0603
21058W        W38582  17.154   7.899   4.964 -0.1294  0.1537  0.0998
21059W        W38583   3.263   7.024   5.141  0.1168  0.1890 -0.1985
21060W        W38584   3.776  13.367  12.377  0.1910  0.2114  0.1077
21061W        W38585   8.311   7.499   0.316 -0.1938 -0.0912 -0.1768
21062W        W38586   5.005  11.092  17.171 -0.1432 -0.0384 -0.1006
21063W        W38587   6.622   7.429   3.914 -0.4390 -0.0014 -0.0911
21064W        W38588   3.172   0.138   1.780  0.5948 -0.1563  0.1164
21065W        W38589   3.449   2.890   5.777  0.1406  0.2224 -0.1091
21066W        W38590   9.916   8.360  12.509  0.2300 -0.1120  0.2208
21067W        W38591   4.302  12.953  13.050  0.2900 -0.2771  0.1803
21068W        W38592  10.262   0.690  13.726 -0.0217  0.1675 -0.1347
21069W        W38593  10.678   9.044   3.432 -0.2230  0.1920 -0.0770
21070W        W38594  11.955  12.516   4.711 -0.0846  0.2984  0.2763
21071W        W38595   3.152   4.912  13.587 -0.1024 -0.1495  0.1587
21072W        W38596  17.121   9.898  14.814  0.3381 -0.2521 -0.0274
21073W        W38597   1.727   2.178   5.273  0.0820 -0.1517 -0.2823
21074W        W38598  13.660  13.283   0.588  0.0313 -0.0282 -0.0027
21075W        W38599  11.994   1.128  12.093  0.0994 -0.0501 -0.3650
21076W        W38600  14.106  10.995   4.841  0.1086  0.1838  0.1571
21077W        W38601   6.718  11.312  13.033 -0.0438 -0.0790 -0.2943
21078W        W38602   4.391  17.068   4.689 -0.2654  0.0578  0.1680
21079W        W38603  13.144   9.903   0.289  0.2821  0.1028 -0.0936
21080W        W38604   0.845   2.662  16.980  0.1086  0.1367 -0.2432
21081W        W38605   2.937   2.869  12.553  0.1655  0.4110  0.2308
21082W        W38606  16.074   6.038  13.946 -0.1237  0.2466  0.1330
21083W        W38607  10.023   1.379   1.510 -0.0869  0.1067  0.2023
21084W        W38608   7.602  16.315   2.589 -0.1557 -0.0886 -0.0794
21085W        W38609  12.431   0.216   4.731 -0.0690  0.1890  0.2130
21086W        W38610   0.978   3.899  16.650 -0.1822 -0.0601  0.0098
21087W        W38611   3.764   8.404   2.567 -0.1012  0.1125 -0.1587
21088W        W38612   5.949  10.160   2.732 -0.1896 -0.0735  0.0666
21089W        W38613  12.826   0.651   0.652  0.2139 -0.1662 -0.1111
21090W        W38614   0.971   8.060  15.898  0.0493  0.0182  0.0891
21091W        W38615  15.983   6.352   5.572  0.0679  0.3124  0.2008
21092W        W38616   5.359  14.279  13.244  0.0102  0.0048  0.0405
21093W        W38617   7.114  16.345   0.504 -0.1528 -0.2058 -0.1184
21094W        W38618   4.835  16.174  17.149  0.1895 -0.1465 -0.0757
21095W        W38619   2.347   3.445  17.629  0.0782 -0.0482  0.0045
21096W        W38620  10.800  12.220   5.460  0.1866 -0.1313  0.0182
21097W        W38621   8.238   6.076   3.741 -0.0529 -0.0522  0.0241
21098W        W38622   1.392   0.036  15.575 -0.1278 -0.0813  0.0418
21099W        W38623  14.531   2.782  13.147 -0.0744  0.0038 -0.0973
21100W        W38624   9.379   6.978   0.411 -0.0998  0.1269  0.2011
21101W        W38625   1.837   6.713   1.239  0.0337  0.0319  0.0938
21102W        W38626   0.217   5.203   3.269 -0.0378  0.1804 -0.0136
21103W        W38627  13.397  16.811   4.341  0.4699  0.0410 -0.0362
21104W        W38628   7.783   8.873  14.017 -0.0579 -0.2338 -0.2678
21105W        W38629   0.948   2.923   1.016 -0.0348  0.0078  0.0524
21106W        W38630   5.205   5.870   2.994  0.2402 -0.0506  0.1334
21107W        W38631  13.293   2.428  16.603 -0.0477 -0.2706  0.0690
21108W        W38632  10.711  12.197   2.167  0.1196 -0.0804 -0.0031
21109W        W38633   6.098   9.939  12.579 -0.1712 -0.1123 -0.1063
21110W        W38634   7.419  10.944   1.189  0.1066 -0.0430  0.3742
21111W        W38635  11.860   5.283  15.416 -0.2202  0.1940 -0.0945
21112W        W38636  13.265   3.739  13.117 -0.1732  0.1491 -0.1126
21113W        W38637  16.971  12.667  14.886  0.0761 -0.1747 -0.1117
21114W        W38638   3.102   7.011  14.268 -0.1613  0.3891 -0.1975
21115W        W38639   0.640  13.841  15.714 -0.0839 -0.2978 -0.0754
21116W        W38640   8.101   4.353   0.268  0.0896 -0.0948 -0.1429
21117W        W38641   5.268  11.914   5.586  0.0610  0.3338 -0.1053
21118W        W38642   6.373   0.501  16.541  0.0277  0.1253  0.1090
21119W        W38643  12.521  14.390  16.517 -0.0959  0.0755  0.0580
21120W        W38644  14.749   9.148  16.917  0.0804  0.0390 -0.3669
21121W        W38645   9.545  16.884  13.958  0.3917 -0.3850 -0.2169
21122W        W38646   6.376   5.038   4.048  0.1244  0.0854 -0.0029
21123W        W38647  10.643   7.840   4.705 -0.1353  0.1293  0.0547
21124W        W38648   6.151   0.399  13.921 -0.1767  0.0363 -0.0798
21125W        W38649   2.332   4.194   5.309 -0.2088  0.1999 -0.1253
21126W        W38650   8.093   2.523  17.496  0.2630 -0.0664  0.0836
21127W        W38651   1.477   2.945  15.637  0.1340  0.0198  0.0749
21128W        W38652   6.931   9.979  17.268  0.0733  0.0061  0.2416
21129W        W38653   9.125   9.319  13.054  0.1386  0.2375 -0.1854
21130W        W38654   4.530   1.505   0.663  0.0545 -0.2412 -0.0334
21131W        W38655  11.756  17.099  15.039  0.1735  0.2535  0.0111
21132W        W38656   9.776   4.158  14.436 -0.0017 -0.0856  0.1165
21133W        W38657  10.871   7.643  13.123 -0.3580 -0.1066 -0.2454
21134W        W38658  17.100  15.293  15.611  0.0164  0.1176 -0.1347
21135W        W38659   4.226  12.311  13.573  0.0296 -0.2109  0.1013
21136W        W38660   2.128  11.603   4.866  0.2373  0.1474 -0.0712
21137W        W38661  17.091  17.033  14.324  0.4053  0.0444  0.0441
21138W        W38662  12.731  15.809  16.370  0.1233 -0.2387 -0.0445
21139W        W38663   0.549  16.851   3.150 -0.0702 -0.2958 -0.1259
21140W        W38664  17.136  13.467   1.004 -0.2702 -0.4122  0.2894
21141W        W38665   9.374  12.283   1.453 -0.1604  0.1397 -0.1973
21142W        W38666  17.105  16.081   1.352 -0.0143  0.1831 -0.0031
21143W        W38667   3.443  13.878   1.394  0.1822  0.1837  0.2606
21144W        W38668  12.657   1.880   1.151 -0.3431  0.0596 -0.0668
21145W        W38669  15.313   5.854  15.095  0.1169 -0.0922 -0.1171
21146W        W38670  10.861  14.211  12.942  0.0845  0.0202 -0.2396
21147W        W38671  12.821   1.405   1.048  0.0741 -0.3156  0.0129
21148W        W38672   9.864  14.296  15.697 -0.1860 -0.0869  0.0444
21149W        W38673  12.896   8.074   5.276  0.2810  0.1415  0.1777
21150W        W38674   6.224  16.549   0.137  0.0101 -0.0544 -0.4828
21151W        W38675   2.073   5.799   4.806 -0.1291  0.0786  0.1852
21152W        W38676   0.313   1.875   5.686  0.1333  0.0756  0.1826
21153W        W38677   6.963  14.789   2.245 -0.4358  0.2599  0.0611
21154W        W38678   8.777  14.486  16.337  0.1853  0.1278 -0.1229
21155W        W38679  15.013   5.345   1.356  0.0510  0.0926 -0.0164
21156W        W38680   4.936  12.695   3.786  0.1662 -0.1884  0.2341
21157W        W38681   5.523  13.955   1.409  0.3554 -0.1026 -0.2580
21158W        W38682   1.962   8.310  14.915 -0.2362  0.0310  0.1124
21159W        W38683   8.496   0.242  16.279  0.0301 -0.1143 -0.3974
21160W        W38684  12.681   8.815  16.416  0.3387  0.0634 -0.1034
21161W        W38685  10.997   1.437   1.725 -0.0612 -0.0888  0.0320
21162W        W38686  12.513   3.273   3.619  0.1410  0.0771  0.4305
21163W        W38687  10.197   6.875   2.726  0.0245 -0.0455  0.0261
21164W        W38688   3.155  16.810   3.608 -0.1311 -0.2884  0.1851
21165W        W38689  15.567   4.386  15.055  0.2266  0.1566 -0.1290
21166W        W38690   8.447  16.067   1.146  0.1861  0.1857 -0.1617
21167W        W38691  12.680  10.187  16.817 -0.0766  0.0683 -0.0496
21168W        W38692  13.993   0.671  16.332  0.0552 -0.0425 -0.1967
21169W        W38693   6.841   0.186   0.179 -0.0772  0.3183 -0.1613
21170W        W38694   0.281  10.492   1.314 -0.0297 -0.2446 -0.0494
21171W        W38695   4.270  14.872  14.126  0.3732 -0.0470 -0.0073
21172W        W38696  10.972   7.059  12.169 -0.1536 -0.0926  0.0581
21173W        W38697  16.462   8.606  12.306  0.1506 -0.0962 -0.2444
21174W        W38698   3.141   3.773   4.512  0.0289 -0.1677  0.1078
21175W        W38699   2.509  14.657  16.822 -0.0502  0.1526 -0.0708
21176W        W38700  12.061   4.492   2.239 -0.1657 -0.1385  0.0959
21177W        W38701  16.691   6.118   3.196  0.0489  0.0235 -0.2566
21178W        W38702  14.806   3.525  13.695  0.0515  0.0012  0.1527
21179W        W38703  16.388  13.472  13.369  0.0011  0.0403 -0.0415
21180W        W38704  15.673   5.639  16.203  0.0071 -0.0790 -0.1533
21181W        W38705   4.435   7.568  12.982 -0.0967 -0.0115  0.3154
21182W        W38706  13.530   0.370   4.014 -0.1437  0.2317 -0.2461
21183W        W38707   3.349   9.752  16.156 -0.0332 -0.1120  0.0457
21184W        W38708  16.690  12.160   2.827  0.1303 -0.3093  0.0437
21185W        W38709  14.451  16.528  17.580  0.1844 -0.1309  0.0410
21186W        W38710  11.655   0.036  14.241 -0.4133  0.0461 -0.0570
21187W        W38711  10.614  13.490  15.536 -0.0787 -0.3636 -0.0115
21188W        W38712  14.563   8.400  14.004 -0.5745 -0.2934 -0.0845
21189W        W38713   4.298   8.417   4.312  0.2508 -0.0028 -0.0638
21190W        W38714   2.675   6.462  17.593  0.0502  0.0311  0.1669
21191W        W38715  16.781   2.362   5.879  0.0486 -0.3094 -0.3047
21192W        W38716  11.391   1.245   0.997  0.0991 -0.0191 -0.0691
21193W        W38717   7.171  16.508  17.727  0.1309 -0.0116  0.0110
21194W        W38718   9.917  12.335   3.690 -0.0814 -0.0168  0.2142
21195W        W38719   2.243   4.282  13.962 -0.1008 -0.0175  0.0208
21196W        W38720   5.649   9.051   4.569  0.0390 -0.0541  0.1326
21197W        W38721   8.722  10.877  12.225 -0.0890  0.1894 -0.1711
21198W        W38722  16.004  11.236  14.776 -0.0881  0.2118  0.0002
21199W        W38723  14.799  17.056   3.307  0.0355  0.2613  0.0785
21200W        W38724   8.473  14.749   2.851  0.0370  0.2390  0.0837
21201W        W38725   5.536  15.427  17.262 -0.3432  0.0950  0.1292
21202W        W38726   3.156  10.013   4.839  0.1580  0.0058 -0.0278
21203W        W38727   2.967  13.209  12.277  0.2622  0.1677  0.1150
21204W        W38728   1.073   7.799  16.358  0.1926  0.1009  0.0143
21205W        W38729  15.966   6.331   3.727  0.1175 -0.1023 -0.0869
21206W        W38730   9.076  14.400   0.563  0.0023 -0.1875 -0.0277
21207W        W38731   1.202  16.812  12.895  0.0108  0.2619 -0.4285
21208W        W38732  14.377   1.656   0.744 -0.0314  0.1004  0.2257
21209W        W38733   3.885   0.134  12.813  0.0454 -0.1412  0.0705
21210W        W38734  15.891   2.533  15.636  0.4935  0.1889  0.1328
21211W        W38735  13.827   5.254  11.554  0.2396 -0.3883 -0.1020
21212W        W38736  13.371  10.204  14.034 -0.0424  0.4881 -0.1796
21213W        W38737  14.469   9.535  16.133 -0.0999  0.0838 -0.1010
21214W        W38738  11.224   8.963   1.580 -0.0425  0.0394 -0.1598
21215W        W38739  14.017  10.596  16.894  0.1350 -0.0027 -0.0921
21216W        W38740   7.479   0.597  17.428 -0.0953  0.2877 -0.0723
21217W        W38741   3.107   5.372   1.138  0.1267 -0.3732  0.0536
21218W        W38742   3.661   0.609  15.327  0.3181 -0.0387 -0.2761
21219W        W38743   7.375  11.095  13.555  0.3697 -0.0957 -0.2509
21220W        W38744   4.550  12.971   3.575  0.0707 -0.2949 -0.0467
21221W        W38745   6.008   5.883  13.496  0.0825  0.1442 -0.1512
21222W        W38746   6.804  14.388  13.952  0.1141 -0.0145  0.0373
21223W        W38747   9.021   8.973  17.548 -0.2256 -0.1095 -0.0225
21224W        W38748  10.990  15.011  14.621 -0.1040 -0.0046  0.2531
21225W        W38749   9.622  10.597  15.738 -0.0681  0.0816  0.2248
21226W        W38750  13.946   6.285  12.923 -0.0331 -0.1419 -0.0187
21227W        W38751  11.538   5.811  14.843  0.0460  0.1087  0.0784
21228W        W38752  12.880  10.854   5.182 -0.2775 -0.0955  0.1202
21229W        W38753  17.024   5.153   1.823 -0.1768  0.2725  0.0879
21230W        W38754   5.910  15.957  13.520 -0.0742  0.0588  0.0535
21231W        W38755  16.172   2.178   1.626 -0.1003  0.0247 -0.3588
21232W        W38756   6.505   4.203   1.876 -0.2271 -0.0420 -0.2659
21233W        W38757  16.446   6.431  13.199 -0.1593  0.0439  0.1709
21234W        W38758  12.267   2.852  16.129  0.0194 -0.0010  0.1420
21235W        W38759  11.543  16.447  11.376 -0.1418 -0.3646 -0.3296
21236W        W38760   8.299   0.669   3.051 -0.0574 -0.0957  0.0056
21237W        W38761   2.700  11.425   2.783  0.1233 -0.4127 -0.0871
21238W        W38762  11.108   4.438   5.215  0.0237  0.1752  0.1975
21239W        W38763  14.477   5.439   1.591  0.0382 -0.0184  0.3456
21240W        W38764   8.507   0.868  14.918  0.1443 -0.0680  0.2483
21241W        W38765  12.572  14.913   5.157  0.1001 -0.0790  0.1255
21242W        W38766   5.601  11.878   4.605 -0.0854 -0.2521  0.1909
21243W        W38767  13.965   4.289   5.671 -0.2998  0.1504  0.0372
21244W        W38768  14.710  16.634  15.845  0.0980 -0.4346  0.2396
21245W        W38769  15.023  14.656   3.941 -0.1363 -0.3866  0.0411
21246W        W38770   3.303  14.753  16.724 -0.0407  0.2394  0.0266
21247W        W38771   3.648  16.835   6.629 -0.1007 -0.2679  0.1049
21248W        W38772   4.058   3.840   4.200  0.2713  0.0012 -0.2182
21249W        W38773   7.121   3.610   3.150 -0.0531  0.2231 -0.2669
21250W        W38774   2.157   3.188  12.435 -0.0109  0.1544  0.1986
21251W        W38775  13.490  12.965  16.283  0.0418  0.0794 -0.1070
21252W        W38776   0.240   4.235  16.937  0.1110 -0.0587  0.1908
21253W        W38777  11.711   3.046  11.473 -0.1474 -0.1091 -0.3395
21254W        W38778   7.285  11.890  12.843 -0.1598 -0.1937  0.0381
21255W        W38779  14.478  14.738   0.349  0.1515 -0.0333 -0.0594
21256W        W38780  14.403   1.610   2.646  0.0220 -0.3078 -0.0943
21257W        W38781  11.788   2.818  11.907  0.1687 -0.1518  0.3027
21258W        W38782   4.757  14.273  13.054  0.0575  0.0473  0.2525
21259W        W38783  14.139   0.600   5.202  0.0880  0.0902  0.0344
21260W        W38784   9.482   7.796   0.833 -0.1280 -0.2243  0.0877
21261W        W38785  17.114   5.838   3.220 -0.0187  0.2104 -0.0927
21262W        W38786  12.322   8.698  15.434  0.2808  0.1716 -0.1011
21263W        W38787   8.769   4.352  14.680 -0.0295  0.3146 -0.4517
21264W        W38788  12.303   0.049  13.593 -0.1230 -0.0540  0.0961
21265W        W38789  11.172   0.063  14.423 -0.0450 -0.1536  0.0107
21266W        W38790   9.436   0.339  16.039 -0.2329 -0.1408 -0.1297
21267W        W38791   6.065  14.444  15.596 -0.1891  0.0769 -0.2876
21268W        W38792   6.015  12.957   3.215 -0.1792 -0.1940 -0.2431
21269W        W38793   6.362  17.047  16.755  0.1525  0.1014 -0.1712
21270W        W38794   3.969   5.076  17.710 -0.0626  0.1188 -0.0849
21271W        W38795  12.551  15.210  17.567 -0.1082 -0.1162  0.0616
21272W        W38796  13.777  12.341   5.937  0.0999  0.1902 -0.4289
21273W        W38797   5.465  12.434   1.719  0.4087  0.0936  0.1458
21274W        W38798  15.611  14.766  16.083 -0.0020 -0.0014  0.0082
21275W        W38799   3.853   3.640   1.409  0.0149  0.0888  0.1898
21276W        W38800  11.080  17.090   0.087 -0.1773 -0.1312 -0.1821
21277W        W38801   5.938   0.108  15.543 -0.2113 -0.1660 -0.1251
21278W        W38802   5.884   5.255  14.177 -0.2571  0.2000 -0.0423
21279W        W38803   6.757  16.088   0.785  0.2552 -0.2303 -0.2806
21280W        W38804   7.394   9.532   3.175  0.2554  0.0518 -0.2280
21281W        W38805  14.581   4.509  13.921 -0.3192  0.2410 -0.0005
21282W        W38806  16.077   7.668   2.680  0.0011  0.0184  0.1707
21283W        W38807  10.662   2.533  13.896  0.1310  0.0684  0.0366
21284W        W38808   7.317   8.941   1.488 -0.1275 -0.1087 -0.2840
21285W        W38809  10.585   3.807   4.149  0.4844  0.0480 -0.0063
21286W        W38810  16.853   2.023  16.037 -0.1932 -0.0780 -0.2169
21287W        W38811  11.682  13.902  13.933  0.0117 -0.1451  0.1815
21288W        W38812   4.516  16.812  14.551  0.0087  0.3102  0.1397
21289W        W38813  10.453   0.136  14.821  0.3378  0.0841 -0.0324
21290W        W38814   7.565   5.701  13.242 -0.2359 -0.0557  0.1681
21291W        W38815   0.698  11.677  15.624  0.2611  0.0855 -0.1481
21292W        W38816   1.839   1.784  13.561  0.0598 -0.2227 -0.4700
21293W        W38817  13.447   0.143   1.292 -0.0550  0.1448  0.0876
21294W        W38818   9.604  16.711   0.921  0.1699  0.1136  0.1718
21295W        W38819  12.495  16.934  17.004 -0.0334  0.0116 -0.0476
21296W        W38820   3.378  15.272  13.404  0.1918 -0.0478  0.1970
21297W        W38821   7.501   4.981   0.588 -0.1971 -0.1747  0.2617
21298W        W38822  10.086   9.042   2.073  0.0774  0.0694  0.2660
21299W        W38823  15.752  13.992  14.735 -0.0387  0.1614 -0.1458
21300W        W38824  15.302   7.867   1.220  0.1658  0.3042 -0.4375
21301W        W38825   2.054   1.301  13.870 -0.1982 -0.2156 -0.1768
21302W        W38826   6.005   3.273  13.814  0.1695 -0.0072  0.2226
21303W        W38827  13.566   6.098  12.545  0.1542 -0.3019 -0.1378
21304W        W38828   6.311   3.046  14.959 -0.2848  0.1191 -0.2271
21305W        W38829  16.186   3.726   3.242 -0.1620 -0.1901 -0.1587
21306W        W38830  11.961   0.254  15.445  0.1944 -0.0342  0.3540
21307W        W38831   5.164   9.205  14.720  0.2559  0.1722  0.2151
21308W        W38832  11.808  13.396   0.592  0.2310 -0.0924 -0.0428
21309W        W38833   2.684   9.427  13.600 -0.1734 -0.2566 -0.1592
21310W        W38834   8.672   7.159   2.947  0.1792 -0.1731 -0.3863
21311W        W38835   0.047   2.605   2.220  0.1365 -0.0287 -0.1484
21312W        W38836   9.639   6.886  14.540  0.1029  0.2096 -0.2624
21313W        W38837   3.988  15.707   3.355  0.2184 -0.1292 -0.0710
21314W        W38838  12.960  11.087   4.359 -0.0021  0.2629  0.0822
21315W        W38839   4.972   9.982  13.943  0.1501  0.0266  0.0643
21316W        W38840   0.498   1.899  13.062 -0.2159  0.1522  0.0393
21317W        W38841  11.579  14.541   3.229  0.0457  0.0536  0.1453
21318W        W38842   1.867  16.185   6.134 -0.0544 -0.4425 -0.1887
21319W        W38843   2.742   6.271   4.786  0.1292 -0.1397  0.0124
21320W        W38844   4.606   3.108   4.983  0.0823  0.2560  0.0791
21321W        W38845   6.524   4.892   0.777 -0.0048 -0.3478 -0.2050
21322W        W38846   0.504   2.258   3.758 -0.2387 -0.1625 -0.0556
21323W        W38847  16.164   1.123   2.387  0.1716  0.2339 -0.0637
21324W        W38848   2.688   8.967  16.206 -0.0959 -0.0050 -0.0845
21325W        W38849  13.192   1.184  14.958 -0.1063 -0.0210 -0.2531
21326W        W38850   0.914  13.095   1.792  0.1429  0.3102 -0.1511
21327W        W38851  15.243  13.390   3.741  0.1106  0.1399  0.0873
21328W        W38852   8.584  14.077  13.473 -0.0067 -0.1580 -0.0246
21329W        W38853  10.021  16.371   3.887  0.1027 -0.0942 -0.2384
21330W        W38854   7.058   7.203  14.655  0.1071 -0.3058 -0.0623
21331W        W38855  14.648  12.348   5.449  0.1335 -0.0966  0.0977
21332W        W38856  11.865   6.392  14.140  0.0065  0.1323 -0.1410
21333W        W38857   1.022  11.195  17.716  0.1465  0.2294  0.3173
21334W        W38858   6.765   6.594   0.743 -0.1983 -0.0195 -0.2878
21335W        W38859  13.102  15.867   1.425 -0.1945  0.1224 -0.2632
21336W        W38860   3.029   6.567   1.904  0.0144 -0.0380  0.1270
21337W        W38861   1.262   0.112  16.060  0.0184 -0.0325  0.0826
21338W        W38862   5.724   2.072   2.467  0.1343  0.0767 -0.0644
21339W        W38863  12.920   5.253  13.317  0.1733  0.3880  0.0132
21340W        W38864  10.380   3.553  14.879 -0.1769 -0.1982  0.1060
21341W        W38865   7.202  16.200  17.354 -0.3077 -0.0722  0.0848
21342W        W38866  11.087   9.451   4.196 -0.2745 -0.1532  0.0696
21343W        W38867   7.586   2.715   2.673  0.3916  0.0361  0.1627
21344W        W38868  13.044  16.417  15.821 -0.2541 -0.0957  0.1479
21345W        W38869  11.667   2.337   5.596 -0.0132  0.2342  0.0676
21346W        W38870  13.091  16.844  13.345  0.1694 -0.2566  0.1362
21347W        W38871   3.880   7.302   3.267 -0.3352  0.1508 -0.0668
21348W        W38872  11.484  16.734   3.863  0.0013 -0.1324  0.0526
21349W        W38873  16.820  14.513   3.768 -0.1083 -0.3299 -0.1537
21350W        W38874  14.377   1.536   5.121 -0.0871 -0.0887  0.1954
21351W        W38875   7.488  10.710  14.896 -0.2300 -0.0012 -0.2200
21352W        W38876   7.892   9.383  14.235 -0.1543 -0.2619 -0.1378
21353W        W38877  16.303   2.916   4.385 -0.1942  0.0666  0.0079
21354W        W38878   8.843   9.991  14.025 -0.0586 -0.0453  0.0016
21355W        W38879   8.779   8.597  17.269 -0.0706 -0.3191  0.1555
21356W        W38880  15.841  16.299   4.912 -0.1352  0.4149 -0.0637
21357W        W38881   7.574   7.098  16.127 -0.1187 -0.2190  0.1335
21358W        W38882   7.619   8.339   3.910  0.0711  0.1848 -0.0014
21359W        W38883  13.356   0.333  16.793 -0.1183 -0.1509 -0.2095
21360W        W38884   9.937   7.194   2.422  0.0310  0.0689 -0.0196
21361W        W38885  16.062  15.050   1.632 -0.1536 -0.1818 -0.0582
21362W        W38886   3.527   6.310   1.869  0.2822  0.1135 -0.0892
21363W        W38887   6.130  13.879   5.517 -0.0515  0.1802 -0.2220
21364W        W38888   9.852   7.466   4.091 -0.1350  0.0531  0.0608
21365W        W38889   9.366   2.147  14.451  0.1019  0.1862 -0.1315
21366W        W38890   2.721   7.195  12.783 -0.0089 -0.0619 -0.1158
21367W        W38891  12.154   8.890  16.224 -0.0773  0.2912  0.0512
21368W        W38892  11.970   8.283  11.971  0.1026 -0.1279  0.0048
21369W        W38893  16.396  13.614  16.441 -0.0473 -0.1501  0.1093
21370W        W38894   5.223   5.258  15.430 -0.1295 -0.0067 -0.0607
21371W        W38895  16.558  12.863  12.335  0.0651 -0.1151 -0.1090
21372W        W38896   0.871   5.961   5.969 -0.0787 -0.0885 -0.1552
21373W        W38897  16.172   0.553  12.836 -0.1852  0.3962 -0.2146
21374W        W38898  13.740   6.767   4.595  0.0183 -0.3048 -0.0535
21375W        W38899  14.895   3.351  14.238  0.1463 -0.0412 -0.0314
21376W        W38900   0.547  15.409  14.975 -0.2516  0.0153 -0.1112
21377W        W38901  12.376   8.174   1.410  0.0511  0.1225 -0.0699
21378W        W38902  11.065  12.599  17.269  0.1987 -0.1376 -0.1338
21379W        W38903   1.671   7.415  12.954 -0.0297 -0.0174 -0.3031
21380W        W38904   0.025  16.595   0.578  0.2390 -0.1005  0.1421
21381W        W38905   0.428  12.353   5.188  0.2225  0.2740  0.0147
21382W        W38906   7.016  16.751  15.075  0.2393 -0.1079 -0.1295
21383W        W38907  10.126  15.523  17.040  0.0221 -0.0127 -0.2100
21384W        W38908  15.273   4.149  14.734 -0.0320 -0.0021 -0.3284
21385W        W38909  14.455   8.457  15.048  0.0036 -0.1307 -0.0027
21386W        W38910   3.576  16.852   5.122 -0.0852  0.1322 -0.3530
21387W        W38911   8.775  15.447   1.886  0.0382 -0.0009 -0.3409
21388W        W38912  10.191  13.691  14.629 -0.0777  0.0378  0.0347
21389W        W38913  10.302   1.223  12.127  0.0675  0.2132  0.3475
21390W        W38914   0.737   1.902  13.758 -0.0781 -0.1423  0.1620
21391W        W38915  11.566   6.587  13.445  0.0155 -0.0338  0.1156
21392W        W38916   5.056  11.553   4.619  0.0022 -0.0361 -0.0753
21393W        W38917   3.195   7.975   4.804 -0.0678  0.2221 -0.2964
21394W        W38918  14.429   0.502   4.038  0.1955  0.1438  0.0294
21395W        W38919  15.216   2.641  13.538 -0.0813  0.3934  0.2425
21396W        W38920  12.915  13.614   3.478  0.3655  0.0181  0.0322
21397W        W38921   5.075  13.021  13.794 -0.1340  0.1638  0.1131
21398W        W38922   9.770  15.614   1.912 -0.0412 -0.3823 -0.0346
21399W        W38923   2.631   1.527  16.243  0.0481 -0.0315  0.2126
21400W        W38924   3.258   4.074  15.936 -0.3480  0.2297  0.1597
21401W        W38925  14.531   6.171  16.413  0.1910 -0.1632 -0.1766
21402W        W38926  14.658  16.068  17.229 -0.0741  0.0445  0.0297
21403W        W38927   6.519  15.797   5.264 -0.4064 -0.0121 -0.2765
21404W        W38928  12.993   7.067   0.641 -0.0706 -0.2728 -0.3056
21405W        W38929   3.467   2.414   0.706  0.1355  0.1915 -0.1560
21406W        W38930   9.998  14.213  16.698  0.0299  0.2931  0.0364
21407W        W38931   5.262   8.650   1.842 -0.1617  0.4171  0.1640
21408W        W38932  10.270  17.106  15.265 -0.0190  0.1422 -0.0999
21409W        W38933   1.025  15.967   3.437  0.3072 -0.0631  0.4763
21410W        W38934   4.487  11.603  14.040  0.0008  0.0829 -0.2034
21411W        W38935  14.130   7.762  16.954 -0.1811 -0.0252 -0.0804
21412W        W38936   4.165   9.916   2.904  0.0928 -0.2930 -0.0767
21413W        W38937   7.764  10.710  13.625  0.3607  0.1690  0.2721
21414W        W38938  14.669   2.145   0.693 -0.1721  0.0821 -0.0932
21415W        W38939  13.111   9.354   3.503 -0.0555 -0.1726 -0.1576
21416W        W38940  12.739  11.463   3.500 -0.0515 -0.1804  0.3687
21417W        W38941  16.006   6.321   2.393 -0.1707  0.1445  0.2406
21418W        W38942  15.750   1.386   0.971 -0.0001  0.1810  0.2446
21419W        W38943   4.662   2.684  16.278  0.1822 -0.1372 -0.3049
21420W        W38944   9.900   6.821   4.750  0.0927  0.0150 -0.0004
21421W        W38945   6.451  10.308   2.206 -0.0460 -0.2170  0.0644
21422W        W38946   1.641  15.325   4.991 -0.1894 -0.3907 -0.2344
21423W        W38947  11.929  12.954   2.535 -0.0602 -0.1437  0.1471
21424W        W38948   5.395  11.472   2.730  0.0882  0.4423 -0.0322
21425W        W38949   0.085   4.600  12.692 -0.1311  0.1618 -0.1229
21426W        W38950   8.385   3.457  12.156 -0.1020 -0.3611 -0.1534
21427W        W38951  15.847  16.961   1.163 -0.1177 -0.0256  0.1597
21428W        W38952  14.120   4.520  15.058 -0.1426 -0.0369 -0.1414
21429W        W38953  11.712   8.771   0.788 -0.0797  0.0226  0.0365
21430W        W38954  16.247   9.346   4.035 -0.1466 -0.4568  0.2871
21431W        W38955  14.489   0.196   5.412 -0.0028  0.0278  0.1107
21432W        W38956   9.056   9.155  15.668 -0.2370 -0.1294  0.0396
21433W        W38957   6.216   0.776  16.985 -0.0035 -0.0329 -0.2189
21434W        W38958   0.087   2.425  15.515  0.1225  0.0250 -0.2800
21435W        W38959  13.777  10.182   3.994 -0.0901 -0.1693  0.4404
21436W        W38960  11.672   8.869  16.017  0.0573 -0.1805 -0.1638
21437W        W38961   4.924   5.974   1.949 -0.0109  0.2024  0.2918
21438W        W38962   4.924   6.412   1.688  0.0128  0.0296 -0.1210
21439W        W38963   0.233  14.678  13.322 -0.3208  0.0967 -0.1887
21440W        W38964   8.988  13.439  13.041 -0.0124  0.0528 -0.0099
21441W        W38965   2.898   7.126   4.601  0.1007  0.1941 -0.1621
21442W        W38966  11.753   5.596   2.528 -0.2873 -0.0026 -0.0171
21443W        W38967   6.364   7.744  14.551 -0.0957  0.1627  0.0072
21444W        W38968  14.109   2.192  16.168 -0.0622 -0.3372  0.0561
21445W        W38969   9.096   8.675  16.880 -0.1520  0.0325  0.0590
21446W        W38970   5.163   3.729  12.153  0.5208 -0.1814 -0.2353
21447W        W38971   3.322  12.074   4.985  0.0146  0.1335 -0.1075
21448W        W38972   5.208  11.657  14.753  0.0955 -0.0066  0.2383
21449W        W38973   8.433   1.118  13.935  0.0930  0.0635 -0.0675
21450W        W38974  10.569   0.167   1.744  0.0060 -0.0783 -0.2249
21451W        W38975  12.158   7.307  13.220 -0.0701  0.1469 -0.4420
21452W        W38976   5.270   8.124   1.085 -0.0115 -0.0108 -0.3481
21453W        W38977   4.136  13.942   0.960  0.2054 -0.0179  0.1646
21454W        W38978   2.853  11.707  14.490 -0.2075  0.1597 -0.1731
21455W        W38979  12.236  11.769   5.596  0.0636 -0.0737  0.2214
21456W        W38980   6.896  15.594   4.959  0.2281  0.0966 -0.0726
21457W        W38981   4.783  16.948  13.164 -0.0359 -0.0446 -0.2921
21458W        W38982   3.140  10.690  13.206  0.1768 -0.0282  0.1157
21459W        W38983   7.927   9.527  15.749  0.3692 -0.0625 -0.1735
21460W        W38984  15.584  16.082   5.310  0.1130 -0.1582 -0.3790
21461W        W38985   3.591   0.439   1.514 -0.1617  0.1894 -0.2593
21462W        W38986  11.670   3.861  12.550 -0.0060  0.0914  0.1606
21463W        W38987   0.571  11.072   1.316  0.0184 -0.1239 -0.2566
21464W        W38988  16.800   5.287   3.787  0.1799  0.2800 -0.1933
21465W        W38989   1.818  14.298   4.893 -0.0234 -0.0823  0.0149
21466W        W38990   7.486  12.662  16.191  0.2079  0.1283  0.2590
21467W        W38991  15.093  17.057   4.294 -0.2499  0.0791  0.0042
21468W        W38992  14.612  14.621  17.544 -0.0377 -0.0865 -0.3224
21469W        W38993   2.220   8.843  14.888 -0.0376  0.3475  0.2433
21470W        W38994  10.928   1.094  13.190  0.2239  0.0527 -0.0245
21471W        W38995   0.478  13.174  16.131 -0.3479 -0.1165  0.0261
21472W        W38996   4.534   0.459   1.934  0.0724 -0.0779 -0.2016
21473W        W38997   1.361  16.088   1.171 -0.0964  0.0362 -0.0115
21474W        W38998  16.018   5.530   4.467  0.0503 -0.2159 -0.1406
21475W        W38999   6.720   8.517  12.174 -0.0880  0.1004 -0.0081
21476W        W39000   5.634   6.123  13.126 -0.1829 -0.2369  0.0457
21477W        W39001  15.951  10.831  15.171 -0.2576  0.1319 -0.1463
21478W        W39002   5.575  14.929   2.148 -0.0834 -0.2214  0.1016
21479W        W39003   0.408   6.745   4.967  0.0132 -0.1775  0.1767
21480W        W39004   8.529   6.361   2.990 -0.1482  0.0484  0.1815
21481W        W39005   4.790  12.375  16.241 -0.3096 -0.3419  0.1562
21482W        W39006   9.929  10.265  15.443 -0.1056  0.3896  0.0199
21483W        W39007   3.348   4.606   0.497  0.0617  0.0053  0.1172
21484W        W39008   3.138   8.977  16.031  0.0755  0.0407 -0.3036
21485W        W39009   2.438   5.885   3.057  0.2689 -0.0552  0.0255
21486W        W39010  14.967   5.372  16.632 -0.0917  0.0347  0.0835
21487W        W39011   5.587   2.955  13.860 -0.3730  0.0846  0.1330
21488W        W39012   2.118  15.208   2.828  0.1158  0.1606  0.0651
21489W        W39013   3.897  13.692   5.701  0.3339  0.1268  0.2588
21490W        W39014   9.584   1.717  14.217  0.1116  0.0357 -0.4226
21491W        W39015   1.704  11.295  14.178 -0.0320 -0.0720 -0.2184
21492W        W39016   1.233  13.086   5.250 -0.2844 -0.1369  0.1004
21493W        W39017   7.613   1.993  13.511  0.1937 -0.0846  0.1523
21494W        W39018   0.563   9.155  16.354 -0.4445  0.0721  0.1059
21495W        W39019  12.655   7.861  15.684 -0.3280  0.1328 -0.0427
21496W        W39020   8.393   7.472  14.406  0.1803  0.2898  0.2316
21497W        W39021  16.018  12.821  12.672  0.0135 -0.3863  0.0599
21498W        W39022   5.129  14.772   1.906  0.0487 -0.1795  0.0522
21499W        W39023   3.593   6.829  16.137  0.3087 -0.3274  0.2211
21500W        W39024  15.757  10.511   2.121 -0.3334 -0.0336 -0.2582
21501W        W39025  14.839   2.732  12.764 -0.3914 -0.1502 -0.2196
21502W        W39026   2.884   2.678  15.792 -0.1869 -0.0840  0.1889
21503W        W39027  16.255   0.709  15.177  0.0565  0.0983  0.2480
21504W        W39028  13.294  14.390   1.547  0.2011 -0.0111  0.0969
21505W        W39029  14.620   7.765   0.644  0.4238  0.0113  0.0184
21506W        W39030  11.884   3.334   4.681  0.2785 -0.0523 -0.0858
21507W        W39031   2.552   2.697   1.978  0.2055  0.0614  0.1681
21508W        W39032   8.447   3.524   3.463 -0.2877  0.1818 -0.0273
21509W        W39033  13.806   2.178   0.124  0.1577 -0.0082 -0.0629
21510W        W39034  10.434   3.751  16.320  0.3013  0.0638 -0.1600
21511W        W39035   7.013   9.331   2.618  0.1281 -0.1826  0.0869
21512W        W39036  14.913  11.763   0.998  0.0052 -0.2095 -0.1121
21513W        W39037  14.674   8.263  15.610 -0.0557  0.1388  0.0443
21514W        W39038  16.232   8.550  11.365 -0.1909 -0.0026  0.0703
21515W        W39039  11.198   7.460   0.586 -0.0428 -0.1337 -0.1619
21516W        W39040   3.073  15.676  16.830  0.0914  0.0266  0.0615
21517W        W39041   8.155   7.346   4.175  0.0121  0.1477  0.4197
21518W        W39042   4.317   6.757  15.333  0.0334 -0.2063  0.2567
21519W        W39043  12.312  16.713  13.794  0.1203  0.0049 -0.0019
21520W        W39044   0.916  14.439  15.245  0.0527  0.2379  0.2207
21521W        W39045  12.369   9.515   3.865  0.0996 -0.0826 -0.1565
21522W        W39046  13.096   7.754   4.907 -0.0396 -0.1363 -0.1147
21523W        W39047  16.489   7.375  15.951 -0.0004  0.3687 -0.4457
21524W        W39048   1.677  16.394  15.145  0.2414 -0.2019 -0.0480
21525W        W39049   4.689  14.794  13.143 -0.0629 -0.0393 -0.2020
21526W        W39050  15.004  12.741   3.346  0.1960  0.0517 -0.0388
21527W        W39051   7.136   6.065  13.412 -0.0293 -0.1998  0.0664
21528W        W39052   8.838  10.345   5.480 -0.0466  0.0733 -0.1316
21529W        W39053   0.024   3.847  14.820 -0.0564  0.4947  0.0943
21530W        W39054  11.958   2.180   2.402  0.2301 -0.1672 -0.0481
21531W        W39055   4.206   1.854   4.091 -0.0481  0.0116 -0.0845
21532W        W39056   4.919  10.472   2.738  0.1245 -0.0672  0.1350
21533W        W39057   0.063   4.339   2.566 -0.1249 -0.1335 -0.1231
21534W        W39058   6.751   9.061  13.764  0.0984 -0.1102 -0.1279
21535W        W39059  10.091   9.461  15.080  0.2242  0.0040  0.0892
21536W        W39060   1.241   7.046  16.139  0.1623 -0.2618 -0.0835
21537W        W39061   7.978  13.768   2.431  0.0494 -0.3265 -0.2604
21538W        W39062  15.826  14.341  17.470 -0.1954 -0.1023 -0.2966
21539W        W39063   3.529   3.535   0.716 -0.1898  0.0183  0.2512
21540W        W39064  16.686   6.865   2.539 -0.1802 -0.1621 -0.1281
21541W        W39065  11.968   0.566  16.772 -0.0484 -0.3031  0.1126
21542W        W39066   4.249  10.015  14.288  0.0684 -0.1204  0.3527
21543W        W39067  10.738   5.201  11.999  0.0731  0.0902  0.1224
21544W        W39068  15.983   1.265   5.412 -0.2969  0.0015  0.0707
21545W        W39069   8.096  11.302  17.023  0.4563  0.2431  0.1116
21546W        W39070  13.428   8.715   2.883 -0.3650 -0.1908 -0.3110
21547W        W39071  16.078  11.759  12.440 -0.0093 -0.0022  0.1640
21548W        W39072  12.028   6.204  13.467 -0.0420 -0.1478 -0.0981
21549W        W39073   7.386   3.198   5.281 -0.2382 -0.0402 -0.3026
21550W        W39074   6.409   3.593  14.899  0.1650 -0.2379  0.0061
21551W        W39075   5.844   0.803  14.906  0.0587 -0.1820 -0.1582
21552W        W39076  12.457  13.209   5.413  0.1991 -0.1619 -0.0984
21553W        W39077   1.840   6.644   0.695  0.1151  0.2799  0.1917
21554W        W39078   6.065  11.446  14.793  0.2839  0.1330  0.0706
21555W        W39079   2.910  17.082   1.452  0.0328  0.1358  0.3159
21556W        W39080   7.555   2.323  17.030 -0.1627 -0.2639  0.3299
21557W        W39081  15.249   0.545   5.152  0.0383 -0.2156  0.0154
21558W        W39082   5.940   8.894   2.539 -0.0390  0.0792  0.1109
21559W        W39083   4.207   7.148  13.031  0.0130  0.0260 -0.0590
21560W        W39084  15.560  13.110   0.273  0.0672 -0.2602  0.2143
21561W        W39085   0.403  15.487  15.795  0.0020 -0.3212 -0.1322
21562W        W39086  11.331  14.723   5.249 -0.0323  0.1192  0.0263
21563W        W39087   4.502  15.769  15.632 -0.1946 -0.0436  0.1081
21564W        W39088   3.803  16.708   2.153 -0.2569 -0.0416  0.1925
21565W        W39089  10.031  15.820  13.860 -0.1123  0.0872  0.0385
21566W        W39090  14.321  13.932  15.358 -0.0514 -0.0147 -0.1627
21567W        W39091  14.271   1.449  17.603  0.1631  0.1730  0.0546
21568W        W39092  14.651   3.226   5.757  0.0264 -0.0900 -0.0782
21569W        W39093  13.635   0.403  12.773  0.3662  0.0588  0.4000
21570W        W39094   3.951   2.274  17.442 -0.1564 -0.0348 -0.1021
21571W        W39095  14.697  12.029   4.558  0.3943 -0.1574  0.2703
21572W        W39096  16.410  13.394   3.846  0.1679 -0.3367  0.0050
21573W        W39097  15.677  14.998  16.547 -0.0638  0.1452 -0.1304
21574W        W39098   7.972   7.701   4.573 -0.0863 -0.0337  0.0176
21575W        W39099   4.002   0.068  15.064 -0.0779  0.0234 -0.1435
21576W        W39100   7.876  17.139  12.691 -0.1466 -0.1701  0.1076
21577W        W39101  10.358   6.668   2.272  0.0681 -0.0912  0.2113
21578W        W39102   7.837   9.958  12.589 -0.0519  0.2625 -0.1913
21579W        W39103  14.835  12.108   2.680  0.1718 -0.4199  0.0838
21580W        W39104  15.413   2.796   3.202  0.3523 -0.0620  0.0931
21581W        W39105  11.610   1.491   1.947 -0.0641 -0.1360 -0.0299
21582W        W39106  12.705   0.794  16.579  0.0009  0.0160  0.0071
21583W        W39107  10.250   0.273  12.330 -0.1757 -0.0739 -0.0145
21584W        W39108  11.525  16.632  15.798  0.0433 -0.1060  0.0943
21585W        W39109   4.250   1.392   1.662 -0.0999  0.2725  0.1207
21586W        W39110   1.423   7.747   5.090 -0.1080 -0.1136  0.0935
21587W        W39111  16.541  15.871  12.943 -0.0694  0.1900 -0.1471
21588W        W39112   8.309   6.528  16.555  0.1537 -0.1147  0.0261
21589W        W39113   2.680  12.143  14.499 -0.0563 -0.1400 -0.1349
21590W        W39114   3.882  16.377   4.405 -0.0950  0.2575 -0.1358
21591W        W39115   7.911   3.706  11.805  0.1925 -0.3444  0.0684
21592W        W39116  15.740   0.397  13.058 -0.0074  0.0060 -0.1964
21593W        W39117  11.251   7.160  14.543 -0.2595 -0.0684  0.0298
21594W        W39118  13.965  10.648  12.262 -0.0854  0.1891 -0.1889
21595W        W39119   9.684   7.111   1.306  0.1328 -0.0698  0.0652
21596W        W39120   8.910   0.246  15.557  0.1583  0.1393 -0.0293
21597W        W39121  15.401   2.381   0.156 -0.2546  0.1891 -0.0637
21598W        W39122  15.885   5.342  15.674  0.1177 -0.0253 -0.1222
21599W        W39123  16.589  17.084   5.009 -0.0400  0.0592  0.0566
21600W        W39124   0.947   6.640   1.171 -0.2356  0.1725 -0.1623
21601W        W39125  16.731   2.872   5.156  0.0838  0.1696 -0.1389
21602W        W39126   2.494   5.731  14.961  0.4169 -0.0132 -0.0397
21603W        W39127  12.800   0.635   5.044 -0.5116 -0.2938 -0.2497
21604W        W39128   4.598   6.222   2.375  0.5682  0.0534  0.0116
21605W        W39129   3.733   4.684   1.473 -0.2879 -0.1562  0.0082
21606W        W39130   6.568  15.606  16.123  0.1345 -0.4558  0.1741
21607W        W39131  11.813  10.739   2.862 -0.0056  0.2845 -0.0002
21608W        W39132   9.662  12.747  14.054 -0.0958  0.2830  0.0589
21609W        W39133  12.591  12.053   0.543  0.4634 -0.1432  0.1344
21610W        W39134   9.399   1.065  12.594 -0.0310 -0.2334  0.1254
21611W        W39135   8.312   9.637  16.281  0.0360  0.0560 -0.0716
21612W        W39136   1.102  14.215  12.952 -0.4951  0.1511  0.2624
21613W        W39137  12.161  12.027  13.180  0.1328  0.1760  0.2674
21614W        W39138   1.296  16.393   3.076 -0.2265  0.3480  0.0649
21615W        W39139  13.839  13.370   5.137  0.4121 -0.2164 -0.0196
21616W        W39140  12.011   0.813   4.572 -0.1892  0.0588  0.2453
21617W        W39141   6.725  10.994   4.038 -0.0299  0.0487  0.0573
21618W        W39142  15.479   0.578  14.126  0.2805  0.0806 -0.1090
21619W        W39143  11.615  11.690  17.446  0.1694 -0.0695  0.4002
21620W        W39144  12.929   5.532   3.439 -0.0475  0.1319  0.1120
21621W        W39145  15.239   8.652   0.853  0.1387  0.2373 -0.0552
21622W        W39146   5.387   6.799   0.395 -0.1853  0.2599 -0.3254
21623W        W39147   0.212   7.754  14.826  0.0051 -0.2832 -0.1540
21624W        W39148   8.735  10.192  15.595  0.3039  0.1170 -0.0785
21625W        W39149  16.887   7.927   3.402  0.1405 -0.1234  0.1176
21626W        W39150  15.137  10.334  12.837 -0.0526 -0.0348 -0.2953
21627W        W39151  13.273  12.434  16.274 -0.1183 -0.2249  0.1745
21628W        W39152   2.885  15.877   1.690  0.1137 -0.2281 -0.0944
21629W        W39153  13.436   5.981  13.133  0.0213 -0.0997 -0.0761
21630W        W39154  14.264  14.570   4.666  0.0965 -0.1235 -0.0594
21631W        W39155   4.417   0.889  16.628  0.1887 -0.0567 -0.0300
21632W        W39156  16.085  12.332   5.966  0.2952 -0.0578  0.0654
21633W        W39157   9.370  11.513  13.891  0.2287  0.0735  0.1436
21634W        W39158   6.015   5.548   2.619 -0.1155 -0.2390  0.2402
21635W        W39159   5.602  14.662   0.998  0.2327  0.0416  0.3451
21636W        W39160   8.893  11.588  15.271 -0.0336  0.2819 -0.3392
21637W        W39161   7.140   6.693  13.864 -0.0672 -0.1493 -0.0101
21638W        W39162   8.051  13.269   0.621  0.0173  0.1043 -0.0723
21639W        W39163   6.621  10.866  14.885  0.0358  0.1245 -0.2025
21640W        W39164  12.990  16.794   5.102 -0.1215  0.1727 -0.0501
21641W        W39165   0.159   8.350  16.073 -0.2889  0.0900  0.1939
21642W        W39166   7.369  13.808   1.187 -0.1434 -0.1383  0.2771
21643W        W39167   7.444  16.649   1.880  0.1224 -0.3739 -0.1508
21644W        W39168   6.568  11.647  17.575  0.0251 -0.1057  0.0556
21645W        W39169  10.970  10.930  16.130 -0.2049 -0.1674  0.0439
21646W        W39170   3.476   8.559   1.919  0.0125 -0.3304  0.0858
21647W        W39171  15.908   1.522   2.417  0.3653 -0.0877 -0.1683
21648W        W39172   4.154   6.587  16.778  0.0104  0.0055 -0.0687
21649W        W39173   2.578   2.408  13.981  0.1374  0.0739 -0.2017
21650W        W39174  14.827   8.695   1.502  0.1741  0.1316 -0.3846
21651W        W39175  15.998   5.380   3.717  0.0567  0.1529  0.2348
21652W        W39176   3.597   5.326  12.895  0.0644 -0.3389 -0.0389
21653W        W39177   7.350   9.350  14.687  0.0636  0.2311  0.3633
21654W        W39178  14.648  15.260  17.331 -0.0011  0.1925 -0.1120
21655W        W39179  15.931   7.042   0.703  0.0927 -0.2736  0.1857
21656W        W39180   3.304   3.936   4.023 -0.0324 -0.0585 -0.1316
21657W        W39181   7.667  14.580   0.449  0.2453  0.0244  0.0153
21658W        W39182  16.897   2.026   5.424  0.0419 -0.3280  0.0247
21659W        W39183   7.298   4.591  17.314  0.0885  0.2503  0.2712
21660W        W39184   7.185   3.955   4.660 -0.0928  0.0685 -0.0770
21661W        W39185   8.213  14.169  13.078 -0.0547 -0.0416 -0.1152
21662W        W39186   1.517   4.823  17.689 -0.3520  0.0038  0.4820
21663W        W39187  15.279   8.728  13.380 -0.0291 -0.0277 -0.2924
21664W        W39188  11.641  11.848  14.294  0.0931 -0.0889 -0.1419
21665W        W39189  14.406  12.286  13.371 -0.1552 -0.1398 -0.1645
21666W        W39190   9.858   1.246  16.995  0.0023 -0.2272 -0.0951
21667W        W39191  11.980   0.796  13.500  0.2056  0.0703  0.0467
21668W        W39192   9.155   3.039  14.199  0.2622 -0.0815  0.2984
21669W        W39193  14.348  16.911   3.669  0.0176 -0.4178  0.3259
21670W        W39194  12.584   3.361   0.324 -0.1804 -0.1138 -0.0285
21671W        W39195   8.182   3.558  13.781  0.1102  0.3217 -0.1684
21672W        W39196  14.333   4.060  15.048 -0.1926  0.0288 -0.3014
21673W        W39197   8.456   0.306  15.782  0.3807  0.0655  0.0335
21674W        W39198  14.763   2.558   1.006 -0.0912  0.0174  0.3196
21675W        W39199  14.939   0.174   0.951 -0.1277 -0.1721  0.1374
21676W        W39200  10.463   1.142  15.641  0.1658  0.1540 -0.3285
21677W        W39201   9.638   6.428   3.942 -0.3137  0.2816 -0.0247
21678W        W39202   6.439   8.446  12.568  0.0457  0.1657 -0.3962
21679W        W39203   3.790   4.068   3.872  0.1660  0.3271 -0.0485
21680W        W39204  13.691   0.883  14.513  0.0691  0.2667 -0.1803
21681W        W39205  16.595  11.443  12.509 -0.0720  0.1249 -0.1518
21682W        W39206   7.195  15.869  13.662  0.3342 -0.0465  0.3103
21683W        W39207  12.693   6.471   2.554  0.2173  0.1814 -0.2527
21684W        W39208   5.652   1.014  13.483 -0.2312  0.0725 -0.0318
21685W        W39209   8.591  15.192   0.206 -0.0259  0.1656 -0.0432
21686W        W39210  11.754  15.107  13.381  0.0124  0.1055 -0.0186
21687W        W39211   6.261   8.808   1.615  0.0683 -0.0714 -0.3271
21688W        W39212   9.847  16.089  15.414 -0.2508 -0.0549  0.0016
21689W        W39213  12.204  12.823   3.327 -0.2375 -0.2558 -0.1356
21690W        W39214   3.381  15.002  14.520 -0.2014 -0.1975  0.1957
21691W        W39215  16.738  14.651  13.624 -0.1934  0.3068  0.1501
21692W        W39216  14.492  10.119  12.402 -0.0551 -0.1211 -0.1252
21693W        W39217   2.714  16.451  13.650 -0.0267  0.1169 -0.0591
21694W        W39218  10.649  15.782  17.091 -0.2198 -0.0047  0.0994
21695W        W39219  14.815   6.230  14.503 -0.3395  0.0429  0.0288
21696W        W39220   9.612   1.296   5.945  0.0133 -0.0881 -0.0666
21697W        W39221   8.507   3.075  14.629  0.1024 -0.0790 -0.3038
21698W        W39222   6.411  15.055  17.263  0.1424  0.0067  0.1163
21699W        W39223  16.262   1.022   5.766 -0.1288  0.0914  0.1849
21700W        W39224   9.506   1.269  12.081  0.2253  0.1985  0.0996
21701W        W39225  13.642  12.621  12.037  0.2157 -0.0319  0.1605
21702W        W39226  14.088   3.652  16.261  0.0733  0.2208 -0.3813
21703W        W39227  10.513  14.862  14.078  0.0339 -0.3195  0.0945
21704W        W39228   5.009   7.676   2.220  0.0058  0.0182  0.0204
21705W        W39229  12.555   0.291  16.822 -0.4119 -0.2555 -0.0080
21706W        W39230   5.728  17.049  12.711  0.2909 -0.2092 -0.0348
21707W        W39231  10.858   8.745  13.575  0.1065  0.1504  0.0742
21708W        W39232  16.630   2.959  15.928  0.0007 -0.1764 -0.0469
21709W        W39233   9.255   5.737   5.028  0.0599 -0.1627  0.0429
21710W        W39234  11.462  13.416  17.462  0.1188  0.0802  0.2050
21711W        W39235   1.598  12.871  15.443 -0.0915 -0.0408  0.4443
21712W        W39236   6.181  15.342  13.043  0.1542  0.4653 -0.0608
21713W        W39237  12.178  12.102  12.473 -0.3386 -0.2134 -0.0265
21714W        W39238   0.918   7.711  12.324 -0.3066  0.3569 -0.0761
21715W        W39239  11.845  11.502   2.439  0.4522 -0.2919  0.1294
21716W        W39240   1.072   1.907   4.687 -0.4197  0.2296 -0.0391
21717W        W39241  12.264   9.834   2.961 -0.1746  0.2125  0.2550
21718W        W39242   3.907  11.108  12.479  0.1052  0.3223 -0.2170
21719W        W39243  15.027   2.100  16.429  0.0435  0.0020 -0.0165
21720W        W39244   8.026  15.439  14.234 -0.0945  0.0511  0.0346
21721W        W39245   4.405  11.754  12.679 -0.0550 -0.0135 -0.1319
21722W        W39246   5.102  14.522   0.118 -0.0048  0.0957  0.0735
21723W        W39247   0.850   3.006  16.306 -0.0213  0.0886  0.1902
21724W        W39248   7.047  14.350   3.194  0.2224  0.0593 -0.1062
21725W        W39249  15.560   3.268   6.051 -0.0445 -0.1344  0.2010
21726W        W39250  11.531  12.053   1.699  0.0825 -0.0244  0.1433
21727W        W39251   2.337   8.676   1.001  0.1209  0.2099 -0.0967
21728W        W39252  16.868  15.051   2.097  0.1080 -0.4077  0.1459
21729W        W39253  11.962   0.667  16.151  0.0924 -0.0508 -0.1647
21730W        W39254   0.205   3.289   5.101  0.1342 -0.0894 -0.1068
21731W        W39255  13.658   4.956   1.510 -0.1163  0.1158 -0.0653
21732W        W39256   4.422   8.104   2.831  0.0871  0.1941  0.3775
21733W        W39257   8.789   3.066   4.292  0.1717  0.0015 -0.0056
21734W        W39258   7.165  15.546  14.197 -0.0340 -0.0320  0.0307
21735W        W39259  12.694   2.727  13.894  0.3227  0.2448 -0.2272
21736W        W39260   6.803   3.958  15.718  0.0541 -0.1717  0.0260
21737W        W39261  12.351   9.603  15.650 -0.1616 -0.3473  0.0803
21738W        W39262  13.858  16.738  15.774 -0.1103 -0.0102 -0.1207
21739W        W39263   1.955  13.098   1.044  0.2172  0.0363 -0.3645
21740W        W39264   1.371   0.345  15.178  0.1909 -0.0590  0.0028
21741W        W39265   1.860  17.016   2.709  0.0801  0.0169 -0.0046
21742W        W39266   3.760  14.411   4.539 -0.1518  0.2867  0.1887
21743W        W39267  10.919  12.692   3.950 -0.0433  0.0213  0.1390
21744W        W39268   7.179   1.504  15.935  0.0909  0.1197  0.0598
21745W        W39269   5.558   7.613   1.934 -0.3442 -0.0624 -0.1885
21746W        W39270  16.143  12.700   4.426  0.0508 -0.0197 -0.0240
21747W        W39271  11.768  14.609  13.202  0.1518 -0.2187 -0.3854
21748W        W39272   7.630   1.518  15.627 -0.2676 -0.2063  0.1376
21749W        W39273  14.987   8.484  14.347  0.0327 -0.0269 -0.1185
21750W        W39274   7.682  13.824  17.630 -0.0647  0.0615  0.0758
21751W        W39275  14.476  10.185   3.412  0.0188 -0.1494  0.2382
21752W        W39276   7.222   7.583  13.600  0.3094 -0.1785  0.0968
21753W        W39277   4.769   4.768   3.797  0.2583  0.0885 -0.1329
21754W        W39278  14.311   4.590  14.374  0.1218  0.1475 -0.2478
21755W        W39279   5.696  11.927   2.516 -0.1407  0.0434  0.0013
21756W        W39280  11.716   3.634   1.422 -0.0678 -0.4719  0.2251
21757W        W39281   6.716   4.585  14.534  0.0558  0.0037 -0.0303
21758W        W39282   6.313  10.622  14.121  0.0375  0.1713 -0.0246
21759W        W39283   4.339   5.064  14.911 -0.0688  0.1385 -0.1924
21760W        W39284   5.094  11.082   4.335  0.2675 -0.0158 -0.2847
21761W        W39285   6.551   6.942   2.503  0.1708 -0.1474 -0.1680
21762W        W39286   9.860   9.207  17.347 -0.0783 -0.3376  0.0098
21763W        W39287  15.369   7.654   3.584 -0.0862 -0.2321 -0.0454
21764W        W39288   2.384   3.870   4.254  0.1055 -0.0273 -0.2569
21765W        W39289  15.092   7.281  17.664 -0.2803  0.2406 -0.1370
21766W        W39290  12.152   2.833   0.383 -0.2772  0.0643  0.0635
21767W        W39291   4.920  14.152   5.115  0.0348  0.0051  0.0101
21768W        W39292   5.634  12.391   4.274 -0.0358 -0.2689 -0.1996
21769W        W39293   1.634  17.138   4.430  0.2417 -0.1336 -0.0289
21770W        W39294   8.026   0.370   2.330 -0.0430 -0.0387 -0.2217
21771W        W39295  10.376  15.100  13.240 -0.2016 -0.0824 -0.1602
21772W        W39296  12.797   5.100   0.732  0.0499  0.1641 -0.0199
21773W        W39297  12.449  11.649   1.273  0.0450  0.0672  0.3402
21774W        W39298  16.088   8.528  17.696  0.1084 -0.2301 -0.3127
21775W        W39299  10.163   9.006  14.966 -0.4248  0.1253  0.1520
21776W        W39300   4.156  16.120  12.992  0.0175 -0.0776 -0.0361
21777W        W39301   9.588  16.270  17.727  0.1347 -0.0702 -0.0190
21778W        W39302  13.622  16.993  17.200 -0.0395  0.0365 -0.2768
21779W        W39303   4.007  13.552  15.461 -0.1050  0.0510 -0.1313
21780W        W39304   1.687  11.033   3.233 -0.2400 -0.0612  0.1053
21781W        W39305  13.619  17.035   4.893 -0.0044  0.0884 -0.0431
21782W        W39306  10.496   1.122   0.639  0.0573 -0.2019 -0.0718
21783W        W39307   1.407   5.716  12.871  0.1745 -0.2038 -0.3128
21784W        W39308  12.253  14.508   5.229  0.5085  0.0145 -0.0335
21785W        W39309  11.234  10.623   3.304  0.0492  0.2275 -0.2634
21786W        W39310  17.142  14.535  16.188  0.3555  0.0140 -0.0859
21787W        W39311   6.999  13.993   0.900 -0.2683 -0.1597  0.0487
21788W        W39312   9.785   5.612  12.235  0.2434  0.0320 -0.1543
21789W        W39313  16.069   4.343   1.599 -0.1964 -0.1038  0.0029
21790W        W39314  15.455   3.033   4.814  0.1651  0.1081 -0.0681
21791W        W39315   5.530  10.740  17.291  0.1330  0.1596 -0.3218
21792W        W39316   4.364   7.486   2.859  0.0694  0.0421 -0.0561
21793W        W39317  11.810   9.038   1.776  0.2935  0.0592 -0.0890
21794W        W39318   8.621   2.390  14.007  0.0196 -0.0237  0.0513
21795W        W39319   9.339   4.304   0.318 -0.2652  0.0131 -0.0703
21796W        W39320   3.132   2.340  16.170  0.0413 -0.2155  0.1098
21797W        W39321   9.825  10.740   0.078  0.0025  0.3033 -0.2075
21798W        W39322  12.083   9.745   2.112 -0.1296 -0.0337  0.0190
21799W        W39323  13.941   4.536   1.452 -0.1170 -0.1493  0.0376
21800W        W39324   5.950  10.433  13.461 -0.2184 -0.2670  0.1339
21801W        W39325   4.526  10.437  15.043  0.0185 -0.0301 -0.6759
21802W        W39326  10.337  16.203   4.886 -0.0539 -0.0689  0.1210
21803W        W39327   9.070   2.244   5.341 -0.2517 -0.1951 -0.0288
21804W        W39328   4.034  13.733   0.373  0.0928  0.0060 -0.1482
21805W        W39329  14.179   0.471  15.268  0.0546 -0.0036  0.1435
21806W        W39330  16.802  10.198   4.264 -0.1339 -0.0895  0.0464
21807W        W39331   3.458   9.328  12.986  0.1867 -0.1367  0.1744
21808W        W39332  16.749  11.938   5.416  0.2295  0.0276  0.1531
21809W        W39333   7.551   4.331  13.250  0.0070  0.2360  0.1745
21810W        W39334  15.065  11.774   1.822 -0.0442  0.1695  0.0700
21811W        W39335   0.196   4.909  15.697 -0.0566  0.4081  0.1162
21812W        W39336  15.156  16.609  16.724  0.2606  0.2117  0.0924
21813W        W39337  16.140   6.201  12.811 -0.1020 -0.0508  0.2346
21814W        W39338   0.809   2.644  14.866  0.0615 -0.2060 -0.1495
21815W        W39339   4.341  13.945   2.729  0.2156  0.1711  0.0215
21816W        W39340   2.704  12.956  14.434 -0.0613  0.1916  0.0033
21817W        W39341  11.389  13.245   2.042 -0.1835  0.1025 -0.2071
21818W        W39342  16.585  11.983  12.667  0.0564 -0.0265 -0.0290
21819W        W39343   4.700   6.798  14.619  0.0996  0.0465 -0.0341
21820W        W39344   4.408   8.261  15.055 -0.1300 -0.2696  0.0425
21821W        W39345  11.721  11.641  12.494  0.2406 -0.4590  0.0334
21822W        W39346   7.610   4.367  13.801 -0.1165 -0.0612  0.0635
21823W        W39347  10.448   3.349  14.390  0.4210 -0.1992 -0.0617
21824W        W39348   4.115   4.632  15.168  0.1690  0.0885 -0.5228
21825W        W39349  16.539   1.075  16.462  0.0865  0.0526  0.0567
21826W        W39350   5.859   3.734  15.263 -0.1461 -0.1574 -0.1077
21827W        W39351  11.239  11.942   2.083  0.1203 -0.0590 -0.1332
21828W        W39352  15.895   2.523  12.687  0.0394 -0.0979 -0.2040
21829W        W39353   6.424   1.473   2.658 -0.2094 -0.0254 -0.2985
21830W        W39354   6.484   4.753   2.102 -0.3527 -0.2181 -0.1384
21831W        W39355   6.064   5.920   0.032  0.2109  0.0336  0.0363
21832W        W39356   9.181   4.064  16.775 -0.4742 -0.2358  0.1655
21833W        W39357  16.980   7.475  17.325 -0.0169 -0.0804  0.1722
21834W        W39358   7.609   3.995   0.916 -0.2169 -0.1364  0.2406
21835W        W39359   3.409  12.485  14.333 -0.0753 -0.0362 -0.1492
21836W        W39360   7.842   1.711   0.733  0.0179 -0.0831  0.1462
21837W        W39361  10.912   4.890  17.105 -0.1162 -0.0367 -0.1084
21838W        W39362   4.150  13.850   5.319 -0.2781  0.1699 -0.1700
21839W        W39363   7.369  13.740   1.821 -0.1807 -0.0684  0.2166
21840W        W39364  14.565   2.560   5.527  0.1382 -0.0012  0.1617
21841W        W39365   3.266   4.925  13.014  0.0125 -0.1987 -0.0259
21842W        W39366   6.176  12.369  14.103 -0.1816 -0.1023  0.1036
21843W        W39367   9.681   8.545   0.070 -0.0032 -0.0033  0.3047
21844W        W39368  14.458   8.302  16.520 -0.0605  0.0653  0.1031
21845W        W39369  14.774  14.919   1.526  0.1060  0.0943 -0.0293
21846W        W39370   3.780  10.688   1.852 -0.0121  0.2211 -0.3125
21847W        W39371   0.667  11.468  16.929  0.1653  0.1144 -0.1332
21848W        W39372   6.302   9.994  14.632  0.3830  0.2941 -0.0991
21849W        W39373   4.412   9.551   3.124  0.1282  0.0437 -0.1357
21850W        W39374  12.698   9.642   3.153  0.0245 -0.1312  0.1176
21851W        W39375   8.731  11.608  16.236  0.0059  0.0863  0.0681
21852W        W39376  12.074   7.501   2.645  0.0238 -0.0038 -0.1770
21853W        W39377   1.066   9.100  17.519  0.0943  0.2556  0.3130
21854W        W39378   9.178  10.718  13.499  0.2328 -0.0178 -0.1045
21855W        W39379  17.001  12.856   4.149  0.2934  0.0102 -0.2535
21856W        W39380   2.588  13.460  12.507  0.2428 -0.1815 -0.1161
21857W        W39381   8.324   5.911  14.483  0.3412  0.1018  0.1946
21858W        W39382  11.863  12.107  15.625 -0.3020  0.2296  0.2644
21859W        W39383   8.519   6.780  15.992 -0.1545 -0.3811  0.0846
21860W        W39384  12.133   4.364   5.316  0.1723  0.0704  0.0685
21861W        W39385  15.849   3.247   1.516 -0.0082  0.0231 -0.0461
21862W        W39386  10.260  15.124   3.508 -0.2724  0.0210 -0.0741
21863W        W39387  14.015   4.865   1.862  0.0108 -0.1841  0.0485
21864W        W39388   3.230   6.365   1.371  0.0923  0.1231  0.0045
21865W        W39389  12.035   8.250   2.092 -0.1378  0.0684 -0.0461
21866W        W39390   9.786   7.575  13.602 -0.2119  0.0036 -0.0370
21867W        W39391   1.069  15.312   2.418 -0.1663  0.0465 -0.1608
21868W        W39392  13.363  16.781   1.138 -0.0600 -0.2959  0.2454
21869W        W39393  12.112  10.374   5.304  0.1452  0.2258  0.2661
21870W        W39394   0.978  12.355  14.427 -0.0431  0.3468 -0.1351
21871W        W39395   7.867  12.819  14.310  0.2725  0.0307 -0.0133
21872W        W39396   1.007   4.394  16.653  0.0012 -0.0132  0.0464
21873W        W39397   1.056   0.977   4.376  0.1524  0.0299  0.0157
21874W        W39398  11.723  14.831   0.831  0.0482  0.0670 -0.2177
21875W        W39399   6.462   5.959   0.451 -0.0995  0.0371 -0.0225
21876W        W39400   2.903   7.365   0.243 -0.1348 -0.0751 -0.0771
21877W        W39401  16.672   0.785  15.514 -0.1001 -0.0733  0.1515
21878W        W39402  10.231  14.852   1.769 -0.0459 -0.0541 -0.2500
21879W        W39403   6.432  13.972   5.135  0.1640 -0.1058  0.1327
21880W        W39404   1.546   6.199   0.474 -0.1105  0.0918  0.4998
21881W        W39405  10.733  12.527  12.732 -0.2395  0.1801 -0.0133
21882W        W39406  11.434  17.081  12.598  0.1015 -0.0509  0.1098
21883W        W39407  15.793   0.840   0.181  0.3624 -0.1570  0.0570
21884W        W39408   8.102  14.211   0.103 -0.1612  0.0452 -0.0730
21885W        W39409  10.748   3.450  17.265  0.2945  0.1406  0.0426
21886W        W39410   6.990  16.679   1.528 -0.0219 -0.2590 -0.0489
21887W        W39411   9.239  11.225   4.760  0.2894  0.2318 -0.3195
21888W        W39412   9.817  10.147  12.637  0.0171  0.1594  0.3883
21889W        W39413  14.538  15.136  14.864  0.3504 -0.1296  0.0799
21890W        W39414   3.649   1.964   1.655 -0.1074 -0.1256  0.1733
21891W        W39415   5.751  11.171  17.518  0.2221 -0.2612 -0.0324
21892W        W39416   6.575  10.787   2.620 -0.3042  0.0206  0.3023
21893W        W39417  13.098  14.412   0.849 -0.0921  0.0024 -0.2760
21894W        W39418   0.200   6.877  15.740 -0.0355 -0.0057 -0.2097
21895W        W39419   1.149  12.251   0.334 -0.0993 -0.1288  0.0222
21896W        W39420   9.921  17.134  16.730 -0.1019 -0.0846  0.2315
21897W        W39421   5.343  12.219   2.733 -0.0878  0.1337  0.0243
21898W        W39422   0.131   9.479  15.013 -0.1451 -0.2257 -0.0598
21899W        W39423   3.678   2.070  13.469  0.3452  0.1631  0.1592
21900W        W39424   2.432  12.383  13.296  0.1265 -0.0034 -0.0065
21901W        W39425  13.771   1.302  16.872  0.0698 -0.0624  0.1266
21902W        W39426  12.833   8.028  13.687 -0.1550  0.2327 -0.0638
21903W        W39427   5.991  14.661  14.307  0.1673  0.2925 -0.1670
21904W        W39428   4.036  15.863  15.391 -0.0443  0.4572  0.0575
21905W        W39429   2.273   9.124   3.253  0.0057 -0.2351  0.0924
21906W        W39430  16.848   8.161  16.164  0.0052  0.0362 -0.3103
21907W        W39431  16.197  15.170   5.651 -0.1382  0.4527  0.0064
21908W        W39432   7.330   9.250   4.946 -0.0692  0.0220  0.0406
21909W        W39433   6.917  10.282  13.646  0.1024  0.2422  0.1782
21910W        W39434  16.734   0.755   3.877  0.1371  0.0054  0.1318
21911W        W39435   7.662   9.366  16.357  0.1927  0.0577  0.0066
21912W        W39436   4.707  15.026   5.250 -0.1607 -0.2165 -0.2867
21913W        W39437   9.178   8.843   5.091  0.4851 -0.2273  0.1773
21914W        W39438   0.296   8.485  12.241  0.0546 -0.2054  0.2201
21915W        W39439  12.946   6.302   3.010 -0.2816  0.3883  0.0117
21916W        W39440  13.750   6.297  12.032  0.0276  0.1004 -0.1620
21917W        W39441   5.079  15.545  14.991  0.2676  0.0940  0.1391
21918W        W39442   1.121   3.070  17.028 -0.1931 -0.0867  0.0970
21919W        W39443  11.674   2.326  14.081 -0.1997  0.1942 -0.3105
21920W        W39444   0.442   8.855   2.634  0.1525  0.1009 -0.0552
21921W        W39445   7.336   7.910   4.111  0.3431 -0.0841 -0.0142
21922W        W39446  12.005   2.579  17.696 -0.0412 -0.1383  0.0979
21923W        W39447   6.616  17.134  17.253 -0.1311  0.2169 -0.0553
21924W        W39448   8.301  14.570  16.411  0.0672  0.3774 -0.0559
21925W        W39449   2.177   7.298   5.514 -0.0526 -0.2654  0.0936
21926W        W39450   4.695  14.968  12.633 -0.2075 -0.0787 -0.1345
21927W        W39451   7.484   8.084  15.743 -0.0262 -0.1319  0.0938
21928W        W39452  12.358   6.095   3.303  0.0194  0.1556  0.3140
21929W        W39453   2.789   0.973  14.973  0.1299  0.1913 -0.0111
21930W        W39454  14.079   0.425   5.679  0.0107  0.0010 -0.0893
21931W        W39455   5.646  10.645  15.699 -0.0887 -0.4469  0.1520
21932W        W39456  11.358   6.201   3.143 -0.0982 -0.1715 -0.1210
21933W        W39457   5.188   8.574  12.938 -0.1977  0.0438 -0.1598
21934W        W39458   1.939  15.116   0.335 -0.0342 -0.1916 -0.1587
21935W        W39459   4.529  12.638  15.915  0.0755 -0.2024 -0.0462
21936W        W39460  14.276  15.014   5.504  0.3344 -0.2547  0.0904
21937W        W39461  10.969   2.514  16.224  0.0255  0.3731 -0.1643
21938W        W39462   7.361  10.410   1.234 -0.1499  0.2739 -0.1597
21939W        W39463   9.759   6.004   5.121 -0.0054 -0.1691  0.0792
21940W        W39464  16.209   7.088  12.680 -0.0279 -0.1986  0.0561
21941W        W39465   3.529  15.771  16.126  0.1630 -0.0100  0.2402
21942W        W39466  10.278   6.348   2.659 -0.1437 -0.1037 -0.0948
21943W        W39467  17.120   1.859  17.594 -0.1068 -0.1058 -0.1470
21944W        W39468  10.201   4.214  17.044 -0.2321  0.2926  0.0828
21945W        W39469  11.404  10.380   2.931 -0.2614  0.0594  0.1455
21946W        W39470  12.556  12.759  15.767  0.0090  0.0837 -0.0687
21947W        W39471   8.013   0.409  12.396 -0.1519  0.0707  0.2111
21948W        W39472   5.643   5.714  14.978  0.0855  0.3892 -0.0071
21949W        W39473   2.740   3.313   3.744 -0.3310 -0.2432  0.2991
21950W        W39474  14.266  15.062   4.473  0.1605 -0.1721  0.2516
21951W        W39475   6.802   5.546   4.759  0.0081  0.0214 -0.1334
21952W        W39476  14.738  12.273   1.001  0.2764  0.0134  0.1185
21953W        W39477   1.465  12.519   0.025 -0.0683  0.0510 -0.1496
21954W        W39478   0.931  11.976   1.200 -0.0165  0.0669 -0.2083
21955W        W39479  15.157  13.122   1.276  0.1629  0.0449 -0.0124
21956W        W39480  11.715   0.544   3.569  0.1439  0.4376  0.0105
21957W        W39481   2.694  13.615  17.496  0.0534  0.1608  0.1325
21958W        W39482   9.366   3.857   0.120 -0.4383  0.0279 -0.0270
21959W        W39483   8.468   3.829   3.912 -0.1279  0.0149  0.0469
21960W        W39484   7.091   1.964   6.650  0.0244  0.0713 -0.1767
21961W        W39485   3.334   6.277  16.364 -0.3613  0.1195  0.0295
21962W        W39486  10.694  15.005   4.963 -0.4266  0.2767  0.1703
21963W        W39487  15.206   1.206   1.927  0.1753 -0.1129  0.1352
21964W        W39488  12.289  10.056   2.476 -0.1303 -0.2684 -0.2156
21965W        W39489  11.892  11.668   4.869  0.2025  0.0455 -0.2569
21966W        W39490  16.395  12.666  14.008 -0.0245 -0.0743  0.0025
21967W        W39491  16.275  10.107   2.702 -0.1699  0.1104 -0.1344
21968W        W39492  16.814   2.531  16.109 -0.2966 -0.1781  0.2829
21969W        W39493  13.938   9.651   0.438  0.2257  0.1251 -0.0598
21970W        W39494   9.692   9.087  15.135 -0.1572  0.2691  0.2051
21971W        W39495  11.990   8.757   2.151  0.2698 -0.1144  0.1077
21972W        W39496   9.374  16.405   2.789  0.2485 -0.0019  0.1143
21973W        W39497   0.394  11.525   2.397 -0.0491  0.1145 -0.6091
21974W        W39498   6.089   9.065  14.892 -0.1386 -0.1266  0.3290
21975W        W39499  11.536   6.661   3.157 -0.1322 -0.1423  0.1529
21976W        W39500  10.633  11.333   2.361 -0.0655  0.1180 -0.1340
21977W        W39501  13.167   9.627   2.970  0.0245 -0.3375 -0.0961
21978W        W39502   9.403   9.041  14.567  0.0487  0.3348  0.0788
21979W        W39503  15.637  13.979   3.446  0.0747  0.2258 -0.1410
21980W        W39504  17.026  10.350  15.097 -0.1230  0.2508  0.0492
21981W        W39505  14.235  10.436   4.893 -0.0722  0.1863  0.0877
21982W        W39506   2.071   5.663  13.532  0.1243 -0.1498  0.1552
21983W        W39507   8.059   3.590   1.231  0.2942  0.1919 -0.0701
21984W        W39508  14.757  15.287  12.885 -0.0260 -0.0327  0.1650
21985W        W39509   3.249  13.521  17.570  0.2675  0.1397 -0.2650
21986W        W39510   8.752  13.032  14.327 -0.3857  0.2451  0.2167
21987W        W39511   5.729   1.215  15.196  0.0463  0.0316 -0.1730
21988W        W39512   6.420  16.674   2.181  0.1636  0.1676 -0.0031
21989W        W39513   0.364   4.743   4.458 -0.0458  0.1132 -0.3120
21990W        W39514   4.182   5.546  14.045  0.0456 -0.0211  0.2282
21991W        W39515  13.784   2.596  14.119 -0.0689  0.0213 -0.1346
21992W        W39516  12.170  12.038  11.714 -0.0038 -0.1321 -0.0195
21993W        W39517  12.792   0.363   2.129 -0.0358 -0.2239 -0.2842
21994W        W39518   6.857   0.241   2.051 -0.2311  0.1760  0.0551
21995W        W39519   6.511  10.171  16.513 -0.0663 -0.0410  0.1013
21996W        W39520  12.792   2.699  14.404  0.1552 -0.1773 -0.1465
21997W        W39521  11.284  14.620   0.922 -0.1504 -0.0142  0.1089
21998W        W39522   4.242   8.970  15.693 -0.4809 -0.1486  0.0732
21999W        W39523   6.579  10.985  15.918  0.1030  0.1901 -0.0159
22000W        W39524   2.695  10.451  14.516  0.0016  0.0560  0.1059
22001W        W39525   5.681   5.457   4.286 -0.1884 -0.0479  0.2651
22002W        W39526  11.625   0.986  16.478 -0.2088  0.2081  0.2800
22003W        W39527  10.267  16.068  12.954 -0.1019  0.1609 -0.3409
22004W        W39528   6.650   9.494   2.225  0.0416 -0.2448 -0.1894
22005W        W39529   1.014   5.899  13.760 -0.0358 -0.0951  0.1200
22006W        W39530   0.153   7.643  13.192 -0.0282  0.0863  0.1220
22007W        W39531  12.341  10.850  14.035 -0.0528 -0.0955  0.0559
22008W        W39532   4.872   0.057  15.618 -0.1475  0.1564 -0.0821
22009W        W39533  16.952   2.092   3.330  0.0665  0.2294  0.1367
22010W        W39534   9.186  16.690   5.245 -0.0857  0.0285 -0.3519
22011W        W39535  14.402  16.136   1.183 -0.2118  0.0149 -0.0322
22012W        W39536   1.925  10.014  13.812  0.2056  0.0562  0.3172
22013W        W39537   1.422   9.541  16.560  0.2405 -0.0122 -0.1490
22014W        W39538  12.502  16.088   3.066  0.0083 -0.1434  0.2584
22015W        W39539  14.891  13.413   4.605 -0.1705  0.0201 -0.3288
22016W        W39540   5.596   3.073   1.613 -0.3304 -0.2028  0.2341
22017W        W39541   2.636  15.211  14.121 -0.1514 -0.0479 -0.0711
22018W        W39542  14.562   1.102   4.599  0.0362 -0.1553 -0.1972
22019W        W39543   8.619  14.438   1.515 -0.1798 -0.1319  0.2123
22020W        W39544   4.783  16.400   4.682  0.0579 -0.2350 -0.0834
22021W        W39545   0.970   1.527   1.773 -0.0696  0.1391  0.1659
22022W        W39546   6.773   7.094  15.926  0.0007 -0.1272  0.0551
22023W        W39547   6.576   7.180   4.418  0.0979 -0.2865 -0.1296
22024W        W39548   8.359  16.561   2.426  0.2692 -0.2288 -0.2280
22025W        W39549  11.274  12.861   0.317  0.4094 -0.1182  0.1206
22026W        W39550  15.181  14.104  12.280 -0.4587 -0.1394 -0.0118
22027W        W39551   7.325   6.466  15.587  0.1299 -0.0255 -0.0679
22028W        W39552   8.482   4.556   0.506  0.3003  0.0672  0.3397
22029W        W39553  16.915   3.497  12.990 -0.0019  0.2615  0.0739
22030W        W39554  16.308   3.049   0.124  0.2555 -0.2571 -0.1279
22031W        W39555  12.820   9.125  12.976 -0.1084 -0.2788  0.2217
22032W        W39556   7.764  13.342   1.035 -0.0520  0.2338  0.3233
22033W        W39557  13.911  10.660  12.839 -0.1191  0.1931  0.2682
22034W        W39558   9.347   5.894   3.997 -0.0724  0.0884  0.2183
22035W        W39559   4.868   8.896  13.277  0.2058  0.2489 -0.0833
22036W        W39560   5.381   3.635   5.042 -0.0472 -0.0343 -0.1181
22037W        W39561   8.679  14.839   2.376  0.1012 -0.0841 -0.1548
22038W        W39562  15.335   5.130  13.972  0.1326 -0.0644  0.0643
22039W        W39563   7.606  13.781  12.357  0.1180  0.1808  0.1721
22040W        W39564  10.749   6.244  13.680 -0.1381  0.2171  0.2822
22041W        W39565   0.341   0.557   3.422 -0.1510 -0.0627  0.2202
22042W        W39566   2.824   5.293   4.986  0.2840 -0.3012 -0.1797
22043W        W39567   8.697   3.423  17.392 -0.1305  0.1572  0.1082
22044W        W39568   5.825  10.949   0.314 -0.2308  0.0355  0.0270
22045W        W39569  11.766   8.571  12.361 -0.0499  0.1714 -0.0319
22046W        W39570   1.941   6.404  15.629  0.0360 -0.2472 -0.5014
22047W        W39571   5.741   4.809  16.894  0.1855 -0.2093 -0.0881
22048W        W39572  13.776   3.260   5.413  0.1562  0.1284 -0.0776
22049W        W39573   5.821  16.742  17.679 -0.1110 -0.0577  0.0110
22050W        W39574  14.801   2.559   5.958 -0.0857  0.1909  0.0924
22051W        W39575  16.754   7.812  13.501  0.4986  0.1470 -0.1880
22052W        W39576   1.505   3.704  14.914 -0.1934 -0.2102 -0.0789
22053W        W39577  11.984   5.371   5.407  0.2560 -0.0350 -0.2824
22054W        W39578  13.355   4.565   3.710  0.0040 -0.2188 -0.0472
22055W        W39579   6.918   9.658  15.944  0.0482  0.2183  0.1303
22056W        W39580   6.567  15.182  14.570 -0.1069  0.2184 -0.0117
22057W        W39581  13.523   9.931   5.016  0.0460 -0.3701  0.1954
22058W        W39582   6.254   4.554  14.654 -0.1351  0.0284 -0.0948
22059W        W39583   8.357  14.329   1.050 -0.0202 -0.0706 -0.1029
22060W        W39584   7.769   9.683   1.080 -0.0581  0.0586 -0.0520
22061W        W39585   0.444   6.841   1.459 -0.0094  0.0103  0.0662
22062W        W39586  11.584   9.786  17.404  0.1250  0.3929 -0.0449
22063W        W39587  12.487   5.652   3.608  0.0313 -0.0821 -0.1051
22064W        W39588  11.462  14.587  16.915  0.0620 -0.3754  0.2887
22065W        W39589   6.162   4.182  14.350  0.0607 -0.2237  0.0807
22066W        W39590   5.496   1.548  16.360  0.0234 -0.0292  0.1493
22067W        W39591  10.782  15.676  15.282 -0.2497  0.0105  0.0138
22068W        W39592  11.660   7.128  14.219  0.3049 -0.1129  0.1689
22069W        W39593  14.310  12.658   0.924  0.2747 -0.1816 -0.0141
22070W        W39594   5.724  10.196   4.514  0.0933  0.2671 -0.1470
22071W        W39595   0.876   0.168  16.975 -0.0631  0.0833 -0.1315
22072W        W39596  10.093   4.857  14.174 -0.0076 -0.0411 -0.0969
22073W        W39597   9.925  11.675  16.834 -0.0233 -0.0746  0.4441
22074W        W39598  14.712   9.912  15.857  0.0201 -0.1317 -0.3386
22075W        W39599  11.785   2.565  15.790 -0.1159 -0.2397  0.0736
22076W        W39600   9.378  14.635  15.035  0.0066  0.0208 -0.0707
22077W        W39601   2.695  15.046  14.935 -0.0045  0.3104 -0.0550
22078W        W39602  12.493   7.969   5.571 -0.2867  0.3674  0.1834
22079W        W39603   6.585   8.832  12.929 -0.1109 -0.2373  0.0968
22080W        W39604   4.168  16.197  12.360  0.2411 -0.0190 -0.1947
22081W        W39605   4.816   0.824  17.032  0.0676 -0.0050  0.2671
22082W        W39606   3.156   8.145   1.197  0.0190  0.3109 -0.0326
22083W        W39607   6.699  10.455  16.018  0.0274  0.2717  0.3583
22084W        W39608  14.424  12.145   5.010  0.0836  0.3396  0.2053
22085W        W39609  10.331   8.444  12.242  0.3331  0.0455 -0.2016
22086W        W39610  14.187  11.924  14.094 -0.1918  0.1799  0.0998
22087W        W39611   3.787   8.761  12.526 -0.2004 -0.1525 -0.3190
22088W        W39612   6.285  14.430  13.957 -0.1694 -0.2788  0.3693
22089W        W39613  11.682  15.471   0.610 -0.1136  0.0629  0.1475
22090W        W39614   8.637  10.061   4.297 -0.0541 -0.1956  0.1998
22091W        W39615   5.091   2.142  16.793  0.1123 -0.0226  0.0402
22092W        W39616   3.369  11.997  15.793  0.0841 -0.0140 -0.2759
22093W        W39617  15.876   0.450   6.156  0.0499  0.2239  0.1533
22094W        W39618   8.029  12.323  15.104 -0.0951 -0.0974 -0.1725
22095W        W39619   0.775  12.975  15.767 -0.1015 -0.1483  0.0299
22096W        W39620   2.007   0.383   5.465 -0.0397  0.0345 -0.1634
22097W        W39621   6.742   5.156   5.064  0.1048 -0.0213  0.1157
22098W        W39622   8.266  12.507  15.583 -0.0427 -0.0681 -0.1039
22099W        W39623   6.222   7.284  14.426  0.3111  0.2948  0.2766
22100W        W39624   4.960   6.946  16.612 -0.1338 -0.2296 -0.3523
22101W        W39625  14.552   8.044   5.729  0.0584  0.2827 -0.0403
22102W        W39626   9.219   8.096  16.306 -0.1429  0.0111  0.0065
22103W        W39627  13.073   3.221  15.742  0.1068  0.1606 -0.0153
22104W        W39628   0.790  15.609   1.954  0.2695  0.2369  0.2096
22105W        W39629   8.008   1.324  17.052  0.0625 -0.2179  0.0910
22106W        W39630  12.870   7.176   3.357 -0.1896 -0.0365 -0.1083
22107W        W39631  15.496   6.126   3.975  0.1252  0.0279 -0.2668
22108W        W39632  16.956  16.146  16.365  0.0314  0.1011 -0.1267
22109W        W39633   1.551   1.699   3.875  0.0971  0.0887  0.3192
22110W        W39634  13.982  16.127   4.892 -0.0509  0.1409 -0.1036
22111W        W39635  11.351  13.755   5.992  0.1335 -0.3735  0.3908
22112W        W39636   2.637  10.939   3.985 -0.0543  0.1377 -0.0445
22113W        W39637   6.930   5.234   2.658 -0.1046  0.0497 -0.2826
22114W        W39638   7.945  11.652   1.599  0.3878  0.2063  0.1568
22115W        W39639  14.592  13.727  14.530  0.0958  0.0094 -0.0164
22116W        W39640   5.249  10.087  16.098  0.0161 -0.0620  0.1278
22117W        W39641  13.542   2.004   4.411 -0.0662  0.0467  0.0298
22118W        W39642   9.753  11.767   4.274  0.0495 -0.1181  0.0744
22119W        W39643   3.823   2.100   4.775 -0.1009 -0.1815  0.1190
22120W        W39644   4.589  16.298   2.095 -0.2634  0.0954 -0.0297
22121W        W39645   1.515  10.025  16.448 -0.2317  0.1684 -0.2281
22122W        W39646   4.961  12.122   3.387 -0.0819  0.3845  0.0912
22123W        W39647   9.776   5.785  13.863  0.1726  0.1951  0.1537
22124W        W39648   8.555  14.863  13.754  0.3550 -0.0252  0.0081
22125W        W39649   3.310  14.241   0.609 -0.4028 -0.1602 -0.0311
22126W        W39650   4.694  10.259   2.280  0.2058 -0.1918  0.3714
22127W        W39651  10.321   8.295  14.954  0.1689 -0.0355  0.0691
22128W        W39652   2.249  12.166  16.610 -0.3259  0.3627 -0.0339
22129W        W39653   1.687   9.771   2.331 -0.1544 -0.0042  0.1748
22130W        W39654  16.411   2.267  16.991 -0.3136 -0.1531 -0.1224
22131W        W39655   3.619  14.317   2.107  0.1009  0.2333 -0.2325
22132W        W39656  12.533   0.935  13.546  0.0964  0.0208 -0.0821
22133W        W39657   7.608  10.905   2.729  0.2828  0.1776  0.2075
22134W        W39658  10.523   7.426  13.438  0.1037  0.0707  0.1038
22135W        W39659   0.961   3.577   0.983 -0.0819 -0.2729  0.3250
22136W        W39660  13.737  15.835   0.951 -0.2719 -0.2341 -0.2441
22137W        W39661   0.083   5.933  14.729 -0.0081  0.1000  0.1555
22138W        W39662  13.543  15.220  13.530  0.0499  0.0074  0.0171
22139W        W39663   7.047   5.752   0.982  0.1176 -0.0318  0.2059
22140W        W39664   6.669   1.032  13.615 -0.3972  0.0326 -0.3563
22141W        W39665   7.904   4.364   5.093 -0.0294  0.2546  0.2953
22142W        W39666  10.214  14.851   2.290 -0.2438 -0.0350 -0.2565
22143W        W39667  11.836  16.218  15.880  0.4332  0.1477 -0.2202
22144W        W39668   3.532  13.843  16.670 -0.1160 -0.1097  0.1051
22145W        W39669  12.190   3.437  12.669 -0.1200 -0.0242 -0.0614
22146W        W39670   9.520   9.972  17.669  0.4344 -0.0322 -0.0932
22147W        W39671  12.148  14.880  15.338  0.0178 -0.1031  0.1986
22148W        W39672   4.194  13.019   3.158 -0.1347 -0.3469 -0.0914
22149W        W39673  17.156  16.233   4.071  0.0323  0.0464 -0.3958
22150W        W39674   5.484   3.976  17.522 -0.0601  0.2313 -0.0159
22151W        W39675  15.024   4.513   1.408 -0.2097  0.1907  0.0143
22152W        W39676   3.267   7.354   5.566 -0.0623  0.3018  0.0952
22153W        W39677   3.458  15.706   2.685 -0.2341 -0.0443 -0.1969
22154W        W39678   2.670   2.466  15.382 -0.0301 -0.1586  0.4800
22155W        W39679   8.177   2.742  14.462  0.0989  0.1832  0.1101
22156W        W39680   0.951   3.935  16.172 -0.2077 -0.3222 -0.3440
22157W        W39681   4.870  10.002   4.862  0.0664 -0.0159 -0.2830
22158W        W39682   6.646   8.678   3.162  0.0643 -0.2407 -0.4556
22159W        W39683   1.391  11.997   4.162 -0.0758  0.0849 -0.2581
22160W        W39684   4.299  14.282  16.110  0.0012 -0.0748 -0.1882
22161W        W39685  13.564  12.289  13.025 -0.0970 -0.2156  0.1931
22162W        W39686   3.908   3.416   0.385 -0.0865  0.1089 -0.0699
22163W        W39687  17.091  16.105   5.214 -0.2550 -0.2826  0.0907
22164W        W39688  10.241  13.170  15.859  0.1627  0.1231  0.1298
22165W        W39689   7.598   8.199   1.807 -0.0545  0.2059 -0.0310
22166W        W39690   8.410   9.775  15.332  0.0615  0.2079 -0.1938
22167W        W39691  15.758  10.488   4.534 -0.1145 -0.1681 -0.1004
22168W        W39692  16.830   9.967  14.321  0.4561 -0.0938 -0.0289
22169W        W39693   9.799   4.088   1.185 -0.0928  0.1137  0.0719
22170W        W39694  15.629   3.756   1.794 -0.0003 -0.1234  0.1106
22171W        W39695  16.365   5.248   1.123  0.1963  0.1315 -0.1487
22172W        W39696   7.823  15.820   3.884  0.1770  0.0406 -0.2596
22173W        W39697  11.254   3.009  13.577 -0.2454 -0.0880 -0.2092
22174W        W39698   9.336   6.167   4.408 -0.1538  0.1153  0.2367
22175W        W39699  16.929   7.533  15.703  0.0272 -0.2783  0.2187
22176W        W39700  14.004  16.127  12.092 -0.0664 -0.1227 -0.1323
22177W        W39701   5.374   2.016  14.797 -0.0208  0.2691  0.0459
22178W        W39702  11.429  10.193   4.576  0.0707 -0.0084  0.2327
22179W        W39703  15.967   6.266  13.266  0.2386 -0.1726 -0.0201
22180W        W39704   8.640  16.744  13.993  0.1413 -0.0730 -0.3289
22181W        W39705   5.272  12.971  15.656 -0.0482 -0.2530  0.2693
22182W        W39706  16.716   0.666  12.762 -0.0618 -0.2309 -0.2023
22183W        W39707  11.166   0.741   5.083  0.4550  0.0345  0.0477
22184W        W39708   2.227  15.572   0.452  0.0983 -0.1071 -0.1561
22185W        W39709   3.137   8.254  14.228  0.2716 -0.1127  0.1576
22186W        W39710   8.675   2.890  13.672  0.1831  0.2168  0.0121
22187W        W39711  15.727   2.351   1.754 -0.1977 -0.3167  0.2521
22188W        W39712   5.909  11.691  14.255  0.0512  0.1881  0.1157
22189W        W39713   9.077  10.707   1.487 -0.1395 -0.2342  0.3635
22190W        W39714  11.238  13.314   0.150 -0.0180  0.1322  0.0494
22191W        W39715  13.257   0.934   5.176 -0.0099  0.0338 -0.1944
22192W        W39716  13.846  14.132  14.946  0.2981  0.3554 -0.0432
22193W        W39717  11.504  15.855   4.366  0.0921  0.0040 -0.1471
22194W        W39718   7.565  11.688  12.024 -0.0199 -0.1627  0.0565
22195W        W39719   8.639  11.751  13.318  0.1424 -0.0253 -0.2013
22196W        W39720  16.916  14.603   1.778 -0.2439  0.0697 -0.0361
22197W        W39721   5.113   2.815   3.860  0.1878  0.0339  0.1216
22198W        W39722   0.661  11.600   3.069  0.4127  0.2924  0.2506
22199W        W39723  15.120   7.488  16.038 -0.0540  0.1630  0.0666
22200W        W39724   8.812  16.787  14.456 -0.1745 -0.1297  0.1260
22201W        W39725   6.310   4.740  16.789 -0.0884 -0.2923  0.4418
22202W        W39726  10.776  10.171   4.223 -0.0756 -0.0181  0.0121
22203W        W39727  15.017   3.303   4.160 -0.1111  0.0878  0.0677
22204W        W39728  15.104  11.495   3.078  0.2153 -0.0813 -0.2666
22205W        W39729   9.178  16.482  16.939 -0.3393  0.1706  0.0524
22206W        W39730   2.811   3.211  12.966  0.4156  0.2169 -0.1490
22207W        W39731  15.101  10.574   4.120  0.1302  0.1624 -0.1088
22208W        W39732   5.606  14.276  14.583 -0.0222 -0.0536  0.1217
22209W        W39733   6.808  14.824   1.307 -0.1541  0.0440 -0.0322
22210W        W39734  12.061  16.105  16.780 -0.1533  0.1869  0.1240
22211W        W39735  16.895  15.738  15.477  0.3165  0.1438 -0.0545
22212W        W39736   4.710  11.622  17.564 -0.0588  0.3073 -0.0514
22213W        W39737  12.917  13.096   0.246  0.2684  0.0197 -0.1278
22214W        W39738  11.397   4.705  14.164  0.0932  0.1343 -0.0694
22215W        W39739   5.590  13.415  13.702  0.0364 -0.1063 -0.3206
22216W        W39740   7.229  16.647  16.094 -0.4568 -0.1695 -0.0192
22217W        W39741  14.220   5.823   1.437  0.3495  0.0511 -0.0783
22218W        W39742   4.242   7.621  17.513  0.0749 -0.0031 -0.0266
22219W        W39743  12.041   4.033  14.218  0.0536  0.1149  0.1421
22220W        W39744  15.745   0.072  15.483  0.1663  0.0057 -0.1144
22221W        W39745   3.250   4.940   5.800 -0.0253  0.2511 -0.1901
22222W        W39746   3.504  12.536   2.525  0.1440 -0.1086  0.0979
22223W        W39747   4.663  14.895   5.716 -0.0704 -0.3197  0.0306
22224W        W39748  10.808   9.124  13.923 -0.1310  0.0374  0.0091
22225W        W39749  10.759   7.972  17.343  0.0255 -0.1992 -0.1717
22226W        W39750   9.221   5.491   1.998 -0.4412 -0.0027 -0.0912
22227W        W39751   1.583   8.905  12.060 -0.0088 -0.0777 -0.1027
22228W        W39752   1.859  13.653   2.710  0.3495  0.0901  0.0346
22229W        W39753  16.294  12.235   5.467  0.0928 -0.0148  0.1402
22230W        W39754  10.366  13.271  16.932  0.1496  0.1981  0.1604
22231W        W39755  13.697  11.698   2.120 -0.0114  0.0371  0.0089
22232W        W39756   6.797   5.790  17.301 -0.2215 -0.0039 -0.1656
22233W        W39757  13.858  16.453  16.720 -0.0248  0.1255  0.2295
22234W        W39758  15.023  15.874   1.176  0.0315  0.0524  0.2576
22235W        W39759  16.487   7.507   5.681  0.2519 -0.3236 -0.1444
22236W        W39760  16.205   9.864  12.357  0.1732 -0.6209  0.1208
22237W        W39761   6.594   7.890   0.042 -0.0752  0.0313  0.1324
22238W        W39762   4.729   3.044   1.572 -0.0742  0.0773 -0.0138
22239W        W39763  17.158  11.296   0.110  0.0103 -0.1514 -0.1315
22240W        W39764   0.263   2.302   4.194 -0.2421 -0.1257  0.1172
22241W        W39765   6.000   6.667  16.554 -0.4311  0.2342 -0.1759
22242W        W39766  15.057  14.452  14.873 -0.2359 -0.0951 -0.0530
22243W        W39767  14.485   4.420   1.040  0.0144  0.0347 -0.2958
22244W        W39768   7.317  17.039  16.367  0.0624  0.0483  0.0908
22245W        W39769   7.134   6.172  17.307  0.0654 -0.2469  0.0984
22246W        W39770   5.364  16.226   0.335  0.0397 -0.2542  0.0474
22247W        W39771   1.523   9.433  15.510  0.1106 -0.0766  0.1667
22248W        W39772   4.738  10.543  12.269 -0.1810  0.0953 -0.1359
22249W        W39773  10.483  15.212  12.374  0.0733 -0.1073  0.3198
22250W        W39774  13.006  12.860   3.939 -0.4115 -0.4905 -0.0447
22251W        W39775  15.385   7.331  17.048 -0.0207  0.2742 -0.0520
22252W        W39776  10.408   9.457  15.615  0.1919 -0.1328 -0.1875
22253W        W39777  10.521   9.375  12.609 -0.0684 -0.1603  0.2051
22254W        W39778   9.038  16.821   3.613 -0.3697  0.0439 -0.0779
22255W        W39779  15.353   8.378  16.121 -0.0690 -0.0070  0.2445
22256W        W39780  15.066  14.134  16.328  0.1697 -0.1128  0.0725
22257W        W39781   6.019  12.467  15.427 -0.3127 -0.2359 -0.0318
22258W        W39782   7.004   3.464   5.141 -0.1228 -0.1168  0.2456
22259W        W39783   6.733  12.692  13.417 -0.0850 -0.0622 -0.0818
22260W        W39784   1.500   3.417   1.338  0.1266 -0.1153 -0.1986
22261W        W39785  15.372   5.896  17.407 -0.0354  0.1618  0.0080
22262W        W39786  10.925  14.832  13.767 -0.0004 -0.1633 -0.0496
22263W        W39787  12.710   8.128  14.561 -0.2139 -0.2395 -0.2612
22264W        W39788   8.759  12.885  15.244  0.0857 -0.0722  0.3073
22265W        W39789  11.347  10.304   1.596  0.4041 -0.0257  0.2182
22266W        W39790   8.842   4.157   0.176 -0.1664 -0.1930  0.2483
22267W        W39791  14.259   8.844  13.080 -0.1679  0.0045  0.1383
22268W        W39792   3.759  14.025  13.268  0.1526 -0.1249 -0.1775
22269W        W39793  17.001   4.436  14.438 -0.0127 -0.0454 -0.0772
22270W        W39794   4.794   1.643  15.348  0.2868  0.0032  0.0367
22271W        W39795   0.545   3.789  14.704  0.1612  0.1446 -0.1420
22272W        W39796   8.851   4.923  14.667 -0.1977  0.0344  0.0546
22273W        W39797   1.622  15.997   2.911 -0.2614 -0.1354 -0.4899
22274W        W39798   0.367   7.947   4.513 -0.0859 -0.1400  0.0646
22275W        W39799  14.181   2.222   4.076 -0.1574  0.0547 -0.0057
22276W        W39800   5.343  13.373   0.820 -0.0190  0.0174 -0.3337
22277W        W39801  16.991  14.165   1.986  0.0429 -0.1776 -0.0240
22278W        W39802  16.589  16.588   0.366 -0.1958  0.1042  0.0512
22279W        W39803   9.424   7.945   4.857 -0.4081 -0.0562 -0.0357
22280W        W39804   8.992   5.757  12.816 -0.1308 -0.0371  0.0643
22281W        W39805   4.916   5.167  17.340  0.0267  0.3139 -0.0460
22282W        W39806   2.149   1.099   1.301 -0.1601 -0.1057  0.0312
22283W        W39807  11.254   9.053  12.994 -0.1076  0.1387 -0.2353
22284W        W39808  10.838   3.192   4.425 -0.0643 -0.0284 -0.1470
22285W        W39809   3.430  17.132   1.366  0.0973 -0.0211  0.0712
22286W        W39810   2.981  16.108  13.381  0.0085  0.1685 -0.1006
22287W        W39811   0.374   0.821   2.130 -0.1239 -0.3809 -0.3416
22288W        W39812  13.863   3.276  14.637 -0.1243  0.0434  0.4353
22289W        W39813   8.287   3.817  16.740 -0.0278  0.0959  0.2199
22290W        W39814   3.200   6.992   0.102  0.1532  0.1513 -0.1612
22291W        W39815  12.741   8.122   4.784  0.0141 -0.0685 -0.2049
22292W        W39816  15.123   8.328   2.376  0.0935 -0.0086  0.3925
22293W        W39817  10.174  15.303   2.888 -0.0738 -0.2286 -0.1788
22294W        W39818  13.656   4.508   0.966 -0.1545 -0.2633 -0.0895
22295W        W39819   0.797  12.242  12.621  0.2894  0.0052 -0.1446
22296W        W39820   4.100  11.150   4.474 -0.0792 -0.1283 -0.3030
22297W        W39821   8.759  12.221   4.031 -0.0649 -0.1185  0.0433
22298W        W39822   1.012   5.692   1.119  0.0331  0.0543  0.0583
22299W        W39823   5.325   2.105   1.617  0.1618  0.0522 -0.0388
22300W        W39824  14.127   2.369   3.418 -0.0761  0.0928  0.0268
22301W        W39825   3.767  12.609  11.812 -0.0452 -0.2927 -0.1292
22302W        W39826   4.141   7.853  14.537 -0.0501  0.1168 -0.0255
22303W        W39827  11.578  16.166   3.025 -0.2049 -0.3559 -0.1936
22304W        W39828   0.424   9.925   5.422  0.0067  0.3018 -0.1995
22305W        W39829  15.339   3.269  14.693  0.3041 -0.0996 -0.2441
22306W        W39830   0.431  10.477  15.483 -0.1213  0.0782 -0.1888
22307W        W39831   6.392  12.389   1.102  0.0530 -0.0659  0.1868
22308W        W39832   5.535   2.899   2.030 -0.1406 -0.0180  0.1483
22309W        W39833   6.297  10.689   1.010 -0.1178  0.0835 -0.1516
22310W        W39834   6.846  13.171  13.300  0.0594 -0.0622 -0.1574
22311W        W39835  12.617   4.205   4.855 -0.0507 -0.1770 -0.1258
22312W        W39836   7.622   1.228  13.248  0.0091 -0.2830 -0.0210
22313W        W39837   5.018  10.675  17.487  0.0914 -0.1393 -0.1416
22314W        W39838   2.042   6.447  14.663 -0.1372  0.0918 -0.0507
22315W        W39839   8.839  11.581   3.411 -0.0995  0.2891 -0.1876
22316W        W39840   5.510  15.564   0.993  0.0281  0.0578 -0.0315
22317W        W39841  12.173  15.107  13.751 -0.0564 -0.0013  0.1253
22318W        W39842   3.513   3.007   3.999 -0.2822  0.0572  0.1963
22319W        W39843   3.238  13.944   5.593 -0.0186 -0.1764  0.2561
22320W        W39844  14.501  12.719   1.881 -0.0320  0.2729 -0.2439
22321W        W39845   0.595  14.436  13.679 -0.1868 -0.0867  0.1604
22322W        W39846   8.365   0.701  13.202 -0.0327  0.3760 -0.0333
22323W        W39847   5.229  11.483  12.496  0.1436 -0.3679  0.0986
22324W        W39848  16.837   3.076  17.018 -0.2072  0.1774 -0.0393
22325W        W39849   4.554  16.516  16.108 -0.0989  0.2036 -0.0280
22326W        W39850  16.900   4.449  13.743 -0.0626  0.1591 -0.0284
22327W        W39851   5.433   6.638  13.371 -0.0920  0.0627 -0.0792
22328W        W39852  16.986   0.735  13.432  0.3174  0.2043  0.0047
22329W        W39853  10.099   2.858  16.662  0.2284 -0.0190  0.0799
22330W        W39854   2.160  14.190  17.455  0.1214  0.0504 -0.0146
22331W        W39855  12.048   9.613  16.639 -0.1091 -0.2486  0.1105
22332W        W39856   7.657   6.659  12.972  0.2309  0.0046  0.5281
22333W        W39857  15.440   6.258   2.355 -0.0100  0.0287  0.0945
22334W        W39858  16.918   4.852  17.437  0.0190  0.0206  0.5537
22335W        W39859   2.599  12.687   3.341 -0.1335  0.0266  0.1562
22336W        W39860   2.952   8.197   4.417  0.0320  0.2290  0.1582
22337W        W39861  15.874   7.249  13.592 -0.0854 -0.0472 -0.2206
22338W        W39862  14.825  10.126   2.989  0.1469 -0.4040  0.0151
22339W        W39863   5.848  15.462  15.052 -0.0841  0.5650 -0.3383
22340W        W39864   8.117  12.293   3.289  0.0847  0.1805 -0.2295
22341W        W39865   0.161  11.800   2.797 -0.1200 -0.2731  0.1343
22342W        W39866  15.603  17.061   4.536 -0.1193 -0.3526  0.2289
22343W        W39867   1.390   5.366  16.871 -0.0123 -0.3379 -0.0818
22344W        W39868   1.134   6.634  11.486 -0.0948 -0.0317  0.0738
22345W        W39869  16.932   8.390   2.001  0.2250 -0.1500 -0.0228
22346W        W39870  17.119   7.511  16.570  0.0877 -0.2004  0.2000
22347W        W39871   9.990  12.251   4.216 -0.0256 -0.1232  0.4171
22348W        W39872  14.233   9.304   4.934  0.1117 -0.0272 -0.0149
22349W        W39873   1.001   0.528  16.108 -0.0088 -0.0983  0.2250
22350W        W39874   8.077   2.917  13.457 -0.1386  0.0378 -0.0138
22351W        W39875  10.454   9.961  13.850 -0.2414  0.0444  0.0286
22352W        W39876   8.715  13.909   0.842 -0.4134  0.2523  0.0218
22353W        W39877   9.904   7.553   2.040 -0.1905 -0.1278 -0.0370
22354W        W39878   7.783   5.529   4.399 -0.2525 -0.3410 -0.1885
22355W        W39879  14.996   1.060  15.449  0.2525  0.2104 -0.0799
22356W        W39880   0.467   3.711   3.493  0.1065  0.0688 -0.2163
22357W        W39881   8.948   8.496   1.056  0.0595  0.1762 -0.2911
22358W        W39882   2.852  15.125  15.521  0.3923 -0.2353 -0.1415
22359W        W39883  14.714   8.234   1.931  0.0506 -0.1749 -0.1136
22360W        W39884  13.275  16.290  12.643 -0.4148 -0.1021  0.1048
22361W        W39885   0.983  15.101   1.745  0.0064  0.0148  0.1716
22362W        W39886   9.267  13.821  14.937 -0.0494  0.3456  0.2465
22363W        W39887   0.811   9.636  16.121 -0.4002 -0.0465  0.1698
22364W        W39888   9.430   6.871   0.934  0.1274 -0.0411  0.1949
22365W        W39889  11.545   9.685  16.065 -0.0499 -0.1697  0.2669
22366W        W39890  13.612  11.584   1.606  0.1114  0.0451 -0.0001
22367W        W39891   9.761   0.130   2.954  0.2828 -0.2502  0.1024
22368W        W39892   2.293  10.234  16.884  0.0132 -0.0923 -0.1220
22369W        W39893  10.193   4.090  14.765 -0.2412 -0.2403 -0.0819
22370W        W39894   6.518   5.596   2.492  0.1869 -0.0711  0.2006
22371W        W39895   6.795  11.056   3.012  0.1016 -0.0949 -0.1294
22372W        W39896  16.389   5.136   3.425  0.3188  0.0399  0.0143
22373W        W39897   3.879  17.108   2.843  0.2078 -0.0489 -0.0529
22374W        W39898   8.415  13.919  13.971 -0.1354  0.0553  0.1522
22375W        W39899  11.924   2.541   2.849  0.0988 -0.1883  0.1200
22376W        W39900  14.346  16.278   1.730 -0.0422  0.1163  0.1769
22377W        W39901   5.952   0.813   5.536  0.0387 -0.3066  0.2604
22378W        W39902  11.271   6.119  15.183 -0.0188 -0.0016  0.2756
22379W        W39903  15.969   8.425   1.804  0.2616 -0.1114  0.1294
22380W        W39904  10.125   5.611   4.900 -0.0930 -0.0512  0.1912
22381W        W39905   4.553   3.324  13.043 -0.2603 -0.1532 -0.3442
22382W        W39906   1.719  13.328   0.605  0.3335 -0.1309 -0.0467
22383W        W39907  10.888  10.426   1.266 -0.1737  0.5077  0.2169
22384W        W39908  11.130   8.810  12.501 -0.1061  0.3796 -0.1797
22385W        W39909  14.258   4.498  15.955 -0.1889 -0.1603 -0.1746
22386W        W39910  12.791   3.380   4.611  0.0945  0.0968  0.1545
22387W        W39911  11.474   8.494  13.780  0.0772  0.1851  0.0014
22388W        W39912  14.436  10.031  15.089  0.1514  0.1004  0.1136
22389W        W39913   8.193   4.079   4.648  0.0684  0.1034  0.1444
22390W        W39914  14.000  14.539  14.063  0.0343 -0.1469  0.0025
22391W        W39915  17.152  16.539   4.462  0.0380  0.1635  0.0116
22392W        W39916   7.321  10.680  14.346  0.2106  0.0654 -0.0088
22393W        W39917   9.848   4.621  17.118 -0.1119  0.1729  0.2180
22394W        W39918  12.555   4.599  16.718  0.2526 -0.1720  0.1387
22395W        W39919  15.598  14.280   4.844 -0.2518 -0.1012  0.0696
22396W        W39920  14.035   5.694  15.357 -0.0572  0.0883  0.0598
22397W        W39921   1.212  14.879  14.336 -0.0509  0.0867  0.0914
22398W        W39922   5.149   9.992   4.077  0.0993 -0.0313  0.3415
22399W        W39923   8.422   9.571  14.300 -0.1199 -0.0488 -0.1074
22400W        W39924   6.561  12.722  14.861  0.3462 -0.1841 -0.0417
22401W        W39925   9.809   0.075   5.153  0.1634 -0.1601 -0.2097
22402W        W39926   6.363  16.322   1.113  0.1545  0.0556  0.0034
22403W        W39927   3.087  11.409   5.406 -0.0966  0.0170 -0.0595
22404W        W39928   7.339  15.008   0.573  0.3213 -0.0943  0.1031
22405W        W39929   8.227   3.257   2.960  0.0352  0.2268  0.1691
22406W        W39930  15.973   3.474   5.875  0.0315 -0.2206  0.0919
22407W        W39931   3.713   5.365   5.178  0.0386  0.1822  0.0243
22408W        W39932  15.081   6.126   0.919 -0.1687 -0.2079  0.0440
22409W        W39933  16.516  15.668   3.761 -0.0695 -0.0348 -0.2581
22410W        W39934  13.134   9.570   4.379  0.0262 -0.3872 -0.0708
22411W        W39935   8.092  10.163   2.208  0.0515 -0.2819  0.1136
22412W        W39936  15.999   0.407  17.419  0.2472  0.0105 -0.2051
22413W        W39937  12.692   7.819  11.884  0.0689  0.0452 -0.0961
22414W        W39938   2.810   1.625  13.567 -0.0921  0.0658 -0.0741
22415W        W39939  16.428   2.916   3.862 -0.0913  0.0528  0.0431
22416W        W39940   7.681  12.538   5.102  0.3417 -0.0466  0.0466
22417W        W39941   1.558   8.374  17.473 -0.0023  0.3366  0.1625
22418W        W39942   7.790   6.404   0.117  0.0392  0.0816  0.1101
22419W        W39943   2.113  12.752  13.156  0.2073  0.2661  0.0825
22420W        W39944  15.987   7.585  15.808  0.0786  0.0869 -0.0589
22421W        W39945   1.209  13.432  14.315  0.1197  0.1515 -0.0640
22422W        W39946   8.171   0.670   1.982 -0.1244 -0.2119 -0.1257
22423W        W39947   9.300   0.824   1.136 -0.0884 -0.0345  0.5492
22424W        W39948   1.575   3.421   5.672 -0.0316  0.1036  0.2606
22425W        W39949  16.434   1.051  14.810 -0.0655 -0.1265 -0.0249
22426W        W39950   8.645   0.940   2.250  0.1656 -0.2144  0.1554
22427W        W39951  11.267   6.076   2.657  0.2278 -0.1432  0.1413
22428W        W39952   9.683   5.796   3.535 -0.1865  0.1945 -0.0168
22429W        W39953  13.694   9.337  12.539 -0.1094  0.2482  0.3691
22430W        W39954  13.322   7.906  13.590 -0.1461 -0.3009  0.4406
22431W        W39955   1.630   0.328   0.979 -0.0692  0.2498  0.1378
22432W        W39956   1.145   9.225   5.032  0.3100 -0.1085 -0.1277
22433W        W39957   3.291  13.416  13.703  0.0345 -0.1365 -0.0528
22434W        W39958   6.350  15.573   3.109 -0.3054 -0.2940  0.1585
22435W        W39959   8.629   8.328  15.652 -0.0861  0.2973  0.1393
22436W        W39960  15.305   0.551   0.791  0.2044  0.2381  0.0880
22437W        W39961   1.784  13.087   2.372 -0.0279 -0.1561  0.1012
22438W        W39962   6.566   3.568  15.762 -0.0475 -0.1322  0.2028
22439W        W39963   9.669  15.826   0.312  0.3994 -0.2073 -0.0650
22440W        W39964   9.755  16.547  15.087  0.2882 -0.3302 -0.1428
22441W        W39965   0.604   5.701  17.239  0.2897 -0.2565 -0.0614
22442W        W39966  14.144   9.127  17.186 -0.3373 -0.4070 -0.2402
22443W        W39967   8.137  14.123  14.931 -0.3246 -0.0684 -0.1525
22444W        W39968  12.088  10.511   3.708 -0.1436 -0.0299 -0.1354
22445W        W39969   0.558   2.304  14.047  0.1110  0.0365  0.0031
22446W        W39970   8.791   4.248  16.456  0.0753  0.1248 -0.0798
22447W        W39971  15.784   4.189   4.126  0.1186 -0.0641 -0.1089
22448W        W39972  13.289   7.118  15.342 -0.0444  0.3646  0.1291
22449W        W39973   2.002   4.662  14.324 -0.0061 -0.0759  0.1341
22450W        W39974   1.203   3.620   0.265 -0.2732 -0.2064 -0.0095
22451W        W39975  14.187  10.084   0.614 -0.2754  0.1954 -0.0283
22452W        W39976   9.921  15.000   2.651 -0.1266  0.0001  0.1796
22453W        W39977   0.194  11.393  17.142 -0.0818  0.2963  0.0194
22454W        W39978  15.126  13.257   1.804  0.0810 -0.1940  0.2355
22455W        W39979  14.335  11.208   1.039  0.2225  0.1649  0.0484
22456W        W39980   0.960   8.173   1.171 -0.1146 -0.1055  0.2056
22457W        W39981   5.123  16.778  13.925 -0.0879  0.0209  0.2719
22458W        W39982  11.467   7.748  15.693  0.0755  0.0533 -0.0855
22459W        W39983   6.980   1.384   5.846 -0.1422  0.1027 -0.0550
22460W        W39984  14.604  13.002  12.614 -0.6639  0.1929 -0.0034
22461W        W39985   4.173   5.882   1.313 -0.0259  0.0736 -0.0680
22462W        W39986  14.339  11.283   5.194 -0.2377 -0.1635  0.2280
22463W        W39987   4.646   5.041   2.904 -0.0239  0.3273 -0.0384
22464W        W39988  11.994  15.132   1.854 -0.0179 -0.0726 -0.1893
22465W        W39989   7.267   0.810   0.093 -0.0611  0.1384  0.1373
22466W        W39990   3.807  14.182   0.406 -0.3862  0.2604  0.1429
22467W        W39991   1.268  16.542  15.446  0.2266 -0.0381 -0.0770
22468W        W39992   2.510  15.483  14.665 -0.3812 -0.3827  0.3417
22469W        W39993  13.416   5.307   4.317  0.2593 -0.3797  0.0366
22470W        W39994   3.585  12.426   3.048 -0.1325  0.3362 -0.1360
22471W        W39995   6.397  12.013  17.245 -0.0498  0.1953 -0.0304
22472W        W39996   9.855   4.879   0.229  0.1809 -0.0954 -0.1508
22473W        W39997   6.775  11.576   2.916  0.0188  0.3181  0.0011
22474W        W39998  15.595  14.382  14.344  0.3328  0.0563 -0.3718
22475W        W39999  16.979   9.558   2.656  0.2178 -0.4167 -0.1545
22476W        W40000  17.050   8.511  17.539 -0.2564  0.0648  0.0967
22477W        W40001  13.147   3.500  12.327  0.1372  0.1975  0.3702
22478W        W40002  13.018   4.937  12.948  0.0583 -0.1464  0.2151
22479W        W40003  12.333   0.464   2.236  0.0112 -0.2890  0.1038
22480W        W40004  11.183  10.118  17.284  0.0256 -0.0193 -0.1872
22481W        W40005  12.136  16.865  12.276 -0.0507  0.0439  0.1843
22482W        W40006  14.902   7.601  12.455 -0.2419 -0.2400 -0.1311
22483W        W40007   6.128  10.155   0.512 -0.0418 -0.3309  0.0616
22484W        W40008   5.129  15.723   6.704 -0.0977 -0.1243 -0.2707
22485W        W40009   6.905   9.000   0.357 -0.1405  0.1403  0.1766
22486W        W40010   7.072  12.892  15.745 -0.1448  0.1412 -0.0924
22487W        W40011  14.529   9.822   1.373 -0.0948 -0.1663 -0.1003
22488W        W40012   1.002   3.114  15.531  0.0203 -0.1294 -0.1983
22489W        W40013  11.597  12.254  16.680 -0.0204  0.0978  0.2461
22490W        W40014   6.498   3.723   5.373  0.1129 -0.0988 -0.3639
22491W        W40015   8.819  10.160   0.510 -0.1226  0.2627 -0.0461
22492W        W40016  14.896   3.067   2.526  0.0846 -0.0098  0.0847
22493W        W40017   5.674   3.591   0.834  0.0628 -0.3473 -0.1837
22494W        W40018  11.281   6.109  12.833  0.1189 -0.1896 -0.0917
22495W        W40019   2.897  15.207   0.512  0.1929 -0.0910 -0.4110
22496W        W40020   9.248  13.959   0.927  0.3802 -0.0207 -0.0069
22497W        W40021  11.441  10.650  15.855 -0.0381  0.0745 -0.0699
22498W        W40022   6.873   8.669   5.059 -0.0091  0.0157  0.1304
22499W        W40023   9.291  10.936  15.778  0.1769  0.0317  0.0656
22500W        W40024   5.343   4.563   1.784 -0.1007  0.3510  0.0704
22501W        W40025   0.768   6.200   0.936 -0.0953  0.0051  0.1546
22502W        W40026   2.068  12.142   0.589  0.2360  0.0328  0.1358
22503W        W40027  11.175   3.671  15.993 -0.3527 -0.2521  0.0496
22504W        W40028   0.861  14.034   1.122  0.0751 -0.1335  0.1560
22505W        W40029   7.017  11.064  13.921 -0.0855  0.0056  0.0317
22506W        W40030  15.251   5.271   1.878  0.2159 -0.1865  0.1064
22507W        W40031  14.994   7.998   5.535  0.2243 -0.3282 -0.2919
22508W        W40032   8.662  15.440  13.345 -0.0113  0.3048  0.0910
22509W        W40033   4.196   3.802  13.091 -0.0865 -0.2207 -0.0586
22510W        W40034  16.637  15.624  16.399  0.1088  0.1562 -0.0925
22511W        W40035  16.421  13.001  16.488  0.1065 -0.6017  0.3137
22512W        W40036  12.575   4.037   0.302  0.2248 -0.0678  0.1369
22513W        W40037   9.729  11.992  17.274 -0.0317 -0.2946 -0.0463
22514W        W40038   6.748  11.805  16.472 -0.0275 -0.0819  0.2016
22515W        W40039   6.730   5.260  13.799 -0.0791 -0.2164 -0.3150
22516W        W40040  16.216  10.688   4.777  0.0725 -0.0039 -0.0442
22517W        W40041  16.364  14.088  16.239 -0.0115 -0.2160 -0.1680
22518W        W40042  14.668  11.837   0.170 -0.0040 -0.3796 -0.1300
22519W        W40043  16.153   9.084  17.715 -0.4173 -0.0225 -0.0865
22520W        W40044   7.286   4.819  13.913  0.1588  0.2192  0.1558
22521W        W40045  14.914  14.771  13.686  0.4136 -0.1415  0.1384
22522W        W40046   7.862   6.091   0.765 -0.0628  0.3058 -0.1614
22523W        W40047  11.481   6.564  15.343  0.1368  0.2638 -0.0909
22524W        W40048   9.852   9.297  14.621  0.3836 -0.0699  0.2066
22525W        W40049  15.791   7.226   2.715 -0.0357 -0.1143 -0.0215
22526W        W40050  16.155  15.363  16.028 -0.0384  0.4170 -0.2816
22527W        W40051  11.564   1.012   3.914  0.3523 -0.1836 -0.1463
22528W        W40052  12.980  13.524   2.958 -0.2504 -0.0321  0.2508
22529W        W40053  10.621  12.542   2.917 -0.0063  0.2200  0.1755
22530W        W40054   8.807  10.923  17.464  0.1585  0.1482  0.1632
22531W        W40055   5.083  11.201  13.324 -0.1851  0.0596  0.0031
22532W        W40056   2.044  12.572   3.527 -0.0452  0.1368  0.2756
22533W        W40057  15.010   9.124  13.564  0.3739  0.1177 -0.1020
22534W        W40058  12.749   7.423   0.936  0.2107 -0.0646  0.2411
22535W        W40059   0.326  16.926   4.476 -0.0208 -0.0422 -0.1453
22536W        W40060   8.485   4.070   0.514  0.0747  0.2103 -0.1526
22537W        W40061   7.245   3.053   2.448 -0.3453 -0.1604  0.0548
22538W        W40062   5.505   2.821  15.989  0.1172 -0.1721 -0.0854
22539W        W40063  16.754   5.794  17.087 -0.0677  0.2887  0.1605
22540W        W40064   6.624  11.162  15.434  0.0417  0.3971  0.1407
22541W        W40065  13.525  12.291   2.674 -0.0805  0.2489 -0.0295
22542W        W40066  16.615   4.014   2.019  0.2474 -0.0077  0.0851
22543W        W40067   8.536   6.120  16.853 -0.1169  0.2956 -0.0942
22544W        W40068   9.400   0.772   5.598 -0.3011 -0.1668  0.1256
22545W        W40069  16.468   3.166   2.394  0.0078 -0.1134 -0.0772
22546W        W40070   4.348   6.639   1.875 -0.3871  0.1546  0.0675
22547W        W40071   9.608  12.677   4.995 -0.2001 -0.0390 -0.1317
22548W        W40072  10.710   2.683   0.040  0.1386 -0.0998 -0.0784
22549W        W40073  10.637  13.568   4.269  0.0698 -0.2028 -0.0774
22550W        W40074   3.907  14.131  16.378  0.3036  0.0574  0.0120
22551W        W40075   2.934  12.789  15.953  0.0390  0.3658 -0.0218
22552W        W40076   0.764   7.191   0.369  0.1298 -0.0047 -0.0338
22553W        W40077   5.129  16.443  16.722  0.2424 -0.0744  0.0349
22554W        W40078  12.963   1.920   0.767  0.0967  0.1582  0.0851
22555W        W40079  11.335   5.713  17.273  0.1564  0.2361  0.1601
22556W        W40080   5.164   3.779   1.312 -0.0581  0.3285  0.1721
22557W        W40081  10.070  13.968   2.876  0.5585 -0.1961 -0.0904
22558W        W40082  13.172  12.527  15.377 -0.0747  0.4273  0.2876
22559W        W40083   3.846   6.815  13.688  0.2072  0.3505 -0.3285
22560W        W40084  15.077   0.348  14.299 -0.0031  0.2535 -0.1014
22561W        W40085   2.472  14.950   2.053  0.1515  0.1159 -0.1687
22562W        W40086  15.918   4.703   5.526 -0.0514  0.1552 -0.2031
22563W        W40087   0.284   2.411   0.778 -0.1101  0.0870  0.1135
22564W        W40088   7.429   8.025   1.351 -0.2076  0.1952  0.1729
22565W        W40089  10.941   5.367   3.201  0.0116 -0.0664  0.0554
22566W        W40090   9.674   6.444  16.629  0.2355 -0.2774 -0.0248
22567W        W40091  16.515   6.454  14.851 -0.2335 -0.0464 -0.2413
22568W        W40092   4.023   4.861  14.616 -0.2547  0.0560  0.4420
22569W        W40093  13.877  14.691  12.849 -0.1591  0.2568  0.0152
22570W        W40094  15.523  10.014  14.607  0.1080 -0.3133 -0.0146
22571W        W40095   9.115   2.818  11.998  0.0483 -0.0484  0.0991
22572W        W40096  11.159   0.644   2.041  0.0979 -0.0815  0.1226
22573W        W40097   9.584   2.166  17.178  0.1915 -0.2118  0.0524
22574W        W40098   7.789  15.563   5.453  0.2238  0.0663 -0.0289
22575W        W40099  13.217   2.659  13.920  0.1381  0.0611 -0.1673
22576W        W40100  16.591   4.045  13.536 -0.1038  0.0234  0.1067
22577W        W40101  16.090  14.744  16.234 -0.3201 -0.0559  0.0947
22578W        W40102   6.159   8.638  15.185 -0.0591 -0.0551 -0.0706
22579W        W40103  10.015  10.053  11.692 -0.0878  0.2444 -0.1869
22580W        W40104   5.863  11.547  16.034  0.3030 -0.1147 -0.0101
22581W        W40105  14.278   1.152   2.214 -0.1313  0.1489 -0.0613
22582W        W40106  15.543   5.445  12.681 -0.1960  0.0324  0.2086
22583W        W40107   8.346  10.879   3.301  0.0544 -0.2870  0.0526
22584W        W40108   5.425  15.090   1.226  0.0544  0.1175  0.1806
22585W        W40109   7.650  16.944   3.576 -0.1519  0.0132 -0.1364
22586W        W40110   3.450  14.259  11.884 -0.3626  0.1227  0.0655
22587W        W40111  14.990   7.163   4.614 -0.1816  0.0822 -0.0449
22588W        W40112  14.839  14.140  17.651 -0.0376  0.1441  0.1038
22589W        W40113   1.604  16.469   1.537  0.3019  0.1515 -0.1266
22590W        W40114   7.772   9.873   3.027  0.1586  0.0196 -0.0510
22591W        W40115  11.880  17.052  17.440 -0.1377 -0.0132  0.0127
22592W        W40116  16.752  15.646   4.788  0.2130 -0.2062  0.0745
22593W        W40117  11.114   8.064  12.041 -0.2293  0.3801 -0.2910
22594W        W40118   6.413  14.339   2.283  0.0119 -0.1514  0.1227
22595W        W40119  16.649  16.969  16.900 -0.2800  0.2714 -0.2678
22596W        W40120  15.603  16.301  16.765  0.0768 -0.0203 -0.1219
22597W        W40121   8.338   2.744  17.090 -0.2209  0.0381  0.2834
22598W        W40122   7.795   1.072  15.636  0.1318 -0.3825 -0.0517
22599W        W40123   4.871  16.997   0.280 -0.1304  0.4399  0.2404
22600W        W40124   0.871  12.228  14.915 -0.0274 -0.0305 -0.0729
22601W        W40125   1.358   6.290  13.594  0.0105 -0.0296  0.2864
22602W        W40126   3.351   2.752  15.976 -0.0309  0.0287  0.0518
22603W        W40127  10.069  11.543  17.272  0.0601  0.0956 -0.3682
22604W        W40128   8.317   0.821  14.343  0.1497  0.0053 -0.0947
22605W        W40129  16.101  15.826  16.208 -0.0105 -0.2810  0.0275
22606W        W40130   0.393   7.182  12.908  0.2991  0.0292 -0.1074
22607W        W40131   3.969   6.931   5.880  0.1239 -0.1647 -0.0545
22608W        W40132  12.269   0.500   4.245  0.1264  0.1446 -0.1097
22609W        W40133   3.598  15.176  17.629  0.2702 -0.1347  0.4859
22610W        W40134   7.034  16.534   2.545  0.0288  0.2251 -0.0791
22611W        W40135   8.672   5.588   3.285 -0.0055  0.1680  0.1110
22612W        W40136  11.007   6.334  15.552 -0.0243  0.0598 -0.0379
22613W        W40137   8.764   2.665   1.034  0.0700  0.0719 -0.0354
22614W        W40138   6.982   5.219  12.957 -0.1353  0.3466  0.0555
22615W        W40139  12.414   7.078   1.044 -0.1872 -0.0204 -0.1256
22616W        W40140   8.556   6.400   3.506  0.0412 -0.1606  0.0240
22617W        W40141  10.764   4.767   4.482  0.3737 -0.0533 -0.0209
22618W        W40142   5.482  14.830   0.233  0.2298 -0.1058 -0.1743
22619W        W40143   9.030  17.062  15.169 -0.1216 -0.2962  0.1237
22620W        W40144   5.750  13.006  14.489 -0.0833 -0.1318  0.0386
22621W        W40145  13.432  12.015  14.642 -0.1448  0.2495  0.1242
22622W        W40146   4.439   5.105   3.895  0.3171  0.0457 -0.2326
22623W        W40147  16.383  12.352  17.456 -0.1241 -0.0880  0.1533
22624W        W40148  12.172  16.925  15.296 -0.0744 -0.0301  0.2464
22625W        W40149   1.185  12.518   3.126 -0.1336  0.0884 -0.1380
22626W        W40150   0.944   4.921  15.414 -0.3584 -0.1681 -0.0910
22627W        W40151   5.784   6.704  15.489  0.0776 -0.0783  0.0783
22628W        W40152   9.505  17.116   3.669 -0.2372 -0.0117  0.1802
22629W        W40153  14.325  13.940   2.968  0.1455  0.2386 -0.0893
22630W        W40154  10.244  14.612  16.618 -0.0644  0.0835 -0.4112
22631W        W40155  13.459   3.614  12.637 -0.1233 -0.0101 -0.1590
22632W        W40156   2.072  12.813   0.084 -0.0664  0.1372 -0.2244
22633W        W40157   6.913   5.317   3.831  0.0705  0.1782  0.0379
22634W        W40158  14.055   2.007   4.484  0.0227  0.1253  0.2249
22635W        W40159   9.667   0.005   2.239 -0.2614 -0.2358 -0.1483
22636W        W40160   0.279  15.234  12.693 -0.3224 -0.0990  0.1720
22637W        W40161  10.407  15.333   0.956 -0.0880 -0.2336  0.1090
22638W        W40162   5.570  13.984  12.860 -0.1926  0.0546 -0.0455
22639W        W40163   8.534  12.160   5.555 -0.0737 -0.0497 -0.2604
22640W        W40164  10.189  10.935  13.638 -0.1410  0.0247 -0.1505
22641W        W40165   6.217  14.231  16.958  0.1820  0.2220 -0.0003
22642W        W40166   2.432   0.022  13.602  0.1186 -0.0234  0.0923
22643W        W40167   2.540  11.640   4.616 -0.0335  0.1038  0.0020
22644W        W40168   9.973  16.573  17.456  0.0796  0.3233 -0.2198
22645W        W40169   4.861   9.735  12.906  0.0378  0.1884 -0.0548
22646W        W40170  10.050   8.300  14.548 -0.1050  0.0355  0.3037
22647W        W40171  16.206  16.897  13.357 -0.2721  0.1211  0.2075
22648W        W40172  16.736  10.946   2.990 -0.0140  0.2773 -0.1761
22649W        W40173   6.387   3.177  14.462 -0.3666 -0.0882  0.1771
22650W        W40174   3.228  13.130  13.249 -0.1067 -0.0085  0.2459
22651W        W40175   1.625  10.776  16.173 -0.0932  0.2923  0.0684
22652W        W40176  10.151   9.852  15.891 -0.0193  0.0745 -0.0691
22653W        W40177  12.019   5.765  13.251  0.0065  0.2819  0.0750
22654W        W40178  16.279  17.110   2.401  0.0910  0.0087 -0.0178
22655W        W40179  15.578   6.654   3.936 -0.2509  0.0991  0.2523
22656W        W40180  10.907  11.767   2.381 -0.0007  0.1201  0.2235
22657W        W40181  10.559  10.529   2.150 -0.0189  0.0796 -0.1819
22658W        W40182  15.667  16.525  15.342  0.3038 -0.3980  0.2950
22659W        W40183   9.668   3.983   3.158 -0.3328 -0.1429  0.1231
22660W        W40184  12.752   2.042  16.100  0.2690 -0.1800  0.2477
22661W        W40185   5.851  16.762  16.379  0.1556  0.0699  0.2727
22662W        W40186   3.203   9.506  15.262 -0.0634 -0.0874  0.0593
22663W        W40187   2.121  15.446  16.640 -0.1497 -0.2603  0.2780
22664W        W40188  13.600  14.464   1.973  0.1773  0.1609  0.2061
22665W        W40189   9.599   9.371   4.661  0.0856  0.0828  0.0689
22666W        W40190  14.893   8.832   4.350 -0.0442 -0.1638  0.0990
22667W        W40191   4.855   6.598  15.600 -0.1680 -0.0167  0.2607
22668W        W40192   6.429  10.737  17.196 -0.0793  0.1522  0.1450
22669W        W40193  12.719   7.897   3.973  0.1654 -0.0438  0.0152
22670W        W40194   9.689   1.207   1.079  0.4882  0.0971 -0.2547
22671W        W40195  10.207   2.439  16.247 -0.1796 -0.2058 -0.2165
22672W        W40196   0.000  10.272   5.130  0.2117  0.1198  0.1032
22673W        W40197   2.722  16.703   2.409 -0.0904  0.1584  0.0598
22674W        W40198   0.747  13.547  13.438 -0.2025  0.1474 -0.0539
22675W        W40199  15.885  15.785  15.717  0.1342 -0.1663 -0.0355
22676W        W40200   0.676   5.485  17.710 -0.3763 -0.0630 -0.1790
22677W        W40201  15.899   5.182   3.173  0.3006  0.0422 -0.0654
22678W        W40202  13.891   5.615  14.301 -0.2959 -0.1781 -0.0956
22679W        W40203  12.832  12.273  15.874 -0.3180  0.0010  0.0734
22680W        W40204  11.649  13.086  14.743  0.0191 -0.0436 -0.1821
22681W        W40205  15.254   1.219  13.061 -0.2905  0.2504 -0.1152
22682W        W40206   3.884   3.302  17.047 -0.0027  0.0396 -0.0295
22683W        W40207   8.944   1.737   3.608  0.1427  0.3646  0.1563
22684W        W40208  14.839   9.770  12.754  0.0899  0.0138 -0.1915
22685W        W40209  16.650  13.075  13.982  0.0845  0.1834 -0.2982
22686W        W40210   7.560  11.968  14.003 -0.0744  0.3737 -0.0413
22687W        W40211  11.378  12.756  14.462 -0.0665  0.0529  0.0516
22688W        W40212  14.507  13.340   0.604 -0.0928 -0.2014  0.0244
22689W        W40213  11.375  10.066  15.740 -0.1713  0.3425  0.0073
22690W        W40214  16.788   6.446   6.162 -0.1595 -0.3011  0.0608
22691W        W40215   4.542   1.616  14.371 -0.0674 -0.0912  0.2269
22692W        W40216   9.313  15.530   1.794 -0.0100 -0.2226  0.0649
22693W        W40217   3.579   0.265  13.909  0.3429 -0.2378 -0.1208
22694W        W40218  16.264   0.041  13.737  0.0007  0.1585  0.2108
22695W        W40219   8.547   2.338  14.541 -0.3025 -0.1059  0.2037
22696W        W40220   5.204   4.453  16.070 -0.1791 -0.3572  0.1922
22697W        W40221   7.519  11.160  14.461 -0.1708  0.1324  0.1421
22698W        W40222   2.942   6.926  15.179 -0.0001  0.0286  0.1483
22699W        W40223   0.254  10.004  15.240 -0.0832 -0.2210  0.4186
22700W        W40224   4.444   6.337  13.052 -0.1550 -0.0494  0.0084
22701W        W40225   7.665   5.541   3.393 -0.3022  0.2684  0.0279
22702W        W40226   1.019   1.565   4.996 -0.2044 -0.1468 -0.0781
22703W        W40227  17.106  13.797   0.144  0.2628  0.0217  0.1409
22704W        W40228   7.058   7.634  17.678  0.2650  0.1965  0.1394
22705W        W40229  14.048   3.297   2.409  0.0411  0.1076  0.0236
22706W        W40230  12.572   9.647  16.985 -0.0960 -0.0470  0.3452
22707W        W40231  11.175   3.794  13.167 -0.2278  0.1800 -0.2006
22708W        W40232  10.220   0.829  16.056  0.2650 -0.0549  0.0255
22709W        W40233  15.248  13.447  17.026 -0.1859 -0.1520  0.1057
22710W        W40234   5.206  14.904  13.900 -0.0741 -0.1600 -0.0175
22711W        W40235  13.450  11.786  11.075 -0.0330 -0.0585 -0.0846
22712W        W40236  14.263   1.065   1.717 -0.2525  0.0819 -0.1004
22713W        W40237   8.832   5.175   2.227 -0.1511  0.3431  0.0984
22714W        W40238   2.683   3.906  15.210 -0.0384 -0.3035  0.0505
22715W        W40239  11.226  16.607  14.381  0.1208 -0.0501 -0.2112
22716W        W40240   0.355   9.412  12.685  0.0184  0.2338 -0.1425
22717W        W40241  13.797  14.951  16.193  0.0451  0.1305  0.3927
22718W        W40242   3.931   2.767   4.166 -0.1264 -0.2886 -0.3777
22719W        W40243  11.661   2.369  16.715  0.3864  0.1778  0.0204
22720W        W40244   0.292   7.435  15.739 -0.0798 -0.0024  0.0347
22721W        W40245  14.113   0.044  17.180 -0.1121 -0.2115 -0.0184
22722W        W40246   1.521   0.837   2.353  0.0637 -0.0836 -0.1501
22723W        W40247  13.567  15.096  12.535 -0.0732 -0.0307  0.0424
22724W        W40248  12.450   3.687  13.092 -0.2238 -0.0507 -0.0682
22725W        W40249   0.547  11.575   5.264  0.0540 -0.1516  0.4595
22726W        W40250  16.786  12.348  14.063 -0.0304  0.1233 -0.1927
22727W        W40251   7.865   4.106  16.153  0.1446  0.3532  0.1759
22728W        W40252   6.715   9.883   1.435 -0.3369 -0.2088  0.0091
22729W        W40253  14.819  16.186  12.601  0.2423 -0.0274  0.1074
22730W        W40254   5.038  12.558   1.955 -0.0116 -0.1122 -0.2182
22731W        W40255   8.111   6.173  13.048 -0.0533  0.0757 -0.2337
22732W        W40256  14.327   3.746  16.713  0.1038 -0.0541  0.1064
22733W        W40257  11.424  16.291  13.682 -0.4755 -0.1140  0.3375
22734W        W40258   6.559   2.500   5.001  0.3017  0.2276 -0.2650
22735W        W40259   7.211   0.835  16.334  0.1191 -0.0694 -0.0238
22736W        W40260  11.180  13.960  13.798  0.1009 -0.2876 -0.1443
22737W        W40261   7.033   1.614  16.829 -0.0044  0.2359  0.2950
22738W        W40262  15.695  11.650  16.559 -0.2177 -0.0664  0.0226
22739W        W40263  13.230   9.906  13.654  0.1395 -0.3844  0.0576
22740W        W40264   8.176  12.437   0.152  0.4258  0.0575  0.2366
22741W        W40265   6.314  11.355   4.230 -0.0774  0.1414  0.0418
22742W        W40266  12.879   8.278   3.322  0.0149 -0.4783 -0.1725
22743W        W40267   7.585   5.208  15.951  0.0328 -0.0999 -0.2054
22744W        W40268   7.790   3.224  15.851 -0.3500 -0.2581 -0.2168
22745W        W40269   4.096   1.226  15.902 -0.1294  0.3898 -0.1647
22746W        W40270  16.131   8.979  12.315 -0.0119  0.1215  0.2727
22747W        W40271  14.499  10.730   5.222  0.0642  0.0870 -0.2298
22748W        W40272  14.793  15.954   3.586  0.1341 -0.1899  0.1653
22749W        W40273   5.983   4.977  15.943 -0.2085  0.1036  0.1101
22750W        W40274   9.087  12.980   0.867  0.1282 -0.1185  0.3905
22751W        W40275  13.160   2.001   2.388 -0.2984  0.0725 -0.1105
22752W        W40276  11.414   3.122  17.452  0.1947 -0.1959  0.1089
22753W        W40277  13.028  15.715   2.527  0.0138 -0.0747  0.0135
22754W        W40278   3.676  12.865  13.135  0.1123 -0.1174 -0.1534
22755W        W40279   1.794   3.966  17.067  0.0093  0.2115  0.1645
22756W        W40280   9.053  14.240   1.695  0.1296  0.2391 -0.1558
22757W        W40281   9.766  14.297  14.038  0.0097  0.0118  0.1146
22758W        W40282   6.381  16.665  16.360  0.2963  0.1806  0.2682
22759W        W40283   5.547   0.605  13.943 -0.1994  0.1833 -0.0049
22760W        W40284   2.390  14.523  15.196  0.2255  0.1095  0.1782
22761W        W40285   7.652  16.106   1.296  0.3828 -0.1200 -0.3578
22762W        W40286   0.478  12.017   5.528 -0.2533  0.3326 -0.1135
22763W        W40287   8.788  16.337   1.683  0.0130  0.2382  0.2207
22764W        W40288  15.669   8.566   0.644  0.3404 -0.1656 -0.1071
22765W        W40289  16.246   7.619   1.306  0.0122  0.1242 -0.0753
22766W        W40290   3.273   2.874   4.753 -0.0448 -0.2218  0.0504
22767W        W40291   5.692   9.743  13.641 -0.1798 -0.3706  0.0717
22768W        W40292   8.515   0.795   5.046  0.1118  0.2138 -0.1126
22769W        W40293  16.217  12.878   3.963 -0.1342  0.3477 -0.1411
22770W        W40294   5.022   5.194   0.146 -0.0428  0.2568  0.1476
22771W        W40295   3.068  11.216   1.852  0.1340  0.3081  0.0491
22772W        W40296  10.252  10.886   3.472  0.0399  0.1953  0.0253
22773W        W40297  11.506   5.076   1.275 -0.0892 -0.0486  0.0721
22774W        W40298  15.181  16.136  16.436  0.0601 -0.1358  0.0510
22775W        W40299  13.822   0.141   2.590  0.0382 -0.1665  0.0963
22776W        W40300   6.110   7.226   2.495  0.1892  0.0378 -0.0025
22777W        W40301   3.194  15.931   0.126  0.2233 -0.1105 -0.1286
22778W        W40302  10.909   3.069   0.956 -0.0011 -0.0961 -0.0178
22779W        W40303  12.495  10.417   4.958 -0.1403  0.3198  0.1409
22780W        W40304  12.665   1.308  13.235 -0.0478 -0.1899  0.0670
22781W        W40305  14.129   4.179   5.090 -0.0990 -0.1370 -0.0653
22782W        W40306  11.765  13.820   5.098 -0.0775  0.1403  0.0568
22783W        W40307  10.777   4.048   3.241 -0.0874 -0.1047 -0.1213
22784W        W40308  10.612   4.308   4.326 -0.2992 -0.1516  0.1755
22785W        W40309   4.543   1.517   2.576  0.0826  0.0844  0.0130
22786W        W40310   2.955   4.294   0.300  0.1725  0.0319 -0.0680
22787W        W40311   2.354  12.135   1.089 -0.0603 -0.1042 -0.0272
22788W        W40312  14.809  11.946  14.142  0.1979 -0.3609 -0.0381
22789W        W40313   4.825   4.576  11.605 -0.2221  0.1106  0.0298
22790W        W40314  17.041   0.561   1.562 -0.0576  0.0430  0.1819
22791W        W40315   3.497  10.639   2.304 -0.1145  0.1419  0.1691
22792W        W40316  13.616  14.000   1.625  0.2300 -0.4703 -0.0208
22793W        W40317  14.646  16.187   0.726  0.0650 -0.0919  0.1461
22794W        W40318  16.310   8.647  14.019  0.1002 -0.0016  0.0588
22795W        W40319  11.314  11.441   3.142  0.0261 -0.0697  0.2001
22796W        W40320  12.069   8.249  16.711  0.1908 -0.0595  0.2586
22797W        W40321  10.662   1.975  15.339  0.0303  0.1425  0.0192
22798W        W40322   5.725   1.458  13.005  0.0182 -0.0012  0.0487
22799W        W40323  13.102   5.747   6.597  0.0736  0.0198  0.0630
22800W        W40324   3.064   2.917   3.664 -0.2252  0.0561 -0.3466
22801W        W40325   5.625  14.324   3.400  0.1154  0.0695  0.2189
22802W        W40326   8.222   8.104  12.523  0.3892  0.1453 -0.0211
22803W        W40327   1.625  14.397   2.819  0.3634  0.0291  0.0074
22804W        W40328  12.761   3.165  16.208  0.2330 -0.0847  0.0817
22805W        W40329   1.036  13.765   0.119 -0.1663 -0.0241  0.1736
22806W        W40330  12.986   8.779  12.589  0.3568  0.1013  0.0829
22807W        W40331  14.365   4.513   5.380  0.1114  0.0044  0.0057
22808W        W40332   8.170   7.209   3.304  0.1214 -0.3123  0.1056
22809W        W40333  14.097   2.257  13.654 -0.2026 -0.3416  0.1266
22810W        W40334  12.744  15.829   4.869 -0.2014 -0.0095  0.1751
22811W        W40335   6.906   4.535   5.019  0.1426  0.0521  0.2646
22812W        W40336   8.937   8.408   3.064  0.0867 -0.0197 -0.0674
22813W        W40337   0.530   2.143  15.420  0.1900 -0.0320  0.1762
22814W        W40338  15.568   1.967   4.288  0.1418 -0.4220  0.0367
22815W        W40339   6.045   0.104   0.887  0.1193 -0.3232 -0.0179
22816W        W40340  13.279   0.809  14.052 -0.0573 -0.2247 -0.0535
22817W        W40341  13.243   6.482  14.546 -0.0801  0.2672 -0.1785
22818W        W40342   9.954   1.636   0.117 -0.0886  0.2035 -0.1094
22819W        W40343   7.512   2.826  14.897  0.0500 -0.1293  0.0600
22820W        W40344  13.715  13.955   3.468 -0.0601 -0.3073  0.1775
22821W        W40345   0.363  14.338   3.192  0.4323 -0.1208 -0.1800
22822W        W40346   4.424   8.491   3.470 -0.0350  0.1412 -0.0837
22823W        W40347   3.335   7.252  12.881  0.2306 -0.0752  0.2686
22824W        W40348   6.989   5.904  14.566  0.0579 -0.0974 -0.0390
22825W        W40349   6.116  15.294  15.471 -0.2347 -0.0535  0.1122
22826W        W40350   9.291   4.971   4.031 -0.1648 -0.1317  0.1655
22827W        W40351   6.958  14.439  15.211 -0.1207 -0.1489 -0.2656
22828W        W40352   7.966  12.346   0.993 -0.0032 -0.1594 -0.1406
22829W        W40353   8.449   1.825   0.086 -0.2289 -0.0417 -0.0114
22830W        W40354   6.677   0.466   1.248  0.1453 -0.0283  0.1409
22831W        W40355  15.344   0.969   4.895  0.0115 -0.1568 -0.0687
22832W        W40356   0.842   4.342   0.583 -0.4988 -0.0000 -0.4729
22833W        W40357   3.276   2.233  13.046 -0.3094 -0.1702 -0.1322
22834W        W40358  14.285  10.125   2.941  0.0501  0.4123 -0.0955
22835W        W40359  14.079   3.852  17.629  0.0106 -0.3036  0.0967
22836W        W40360   4.149  10.557   0.923 -0.3863 -0.2272 -0.0980
22837W        W40361   4.915   3.314   4.142 -0.0133 -0.1909 -0.0056
22838W        W40362  14.751  10.193   1.533  0.0890  0.1269 -0.1294
22839W        W40363  12.195   5.714   4.011 -0.0397 -0.1814  0.0274
22840W        W40364  14.108  10.795  14.138  0.0717 -0.3681  0.1596
22841W        W40365   6.127   3.832   3.582  0.0447 -0.1010  0.1409
22842W        W40366   8.626  12.829  12.757  0.2254  0.0774 -0.1781
22843W        W40367   9.949  12.810  14.957  0.2350 -0.1112 -0.2506
22844W        W40368  11.675  10.098   5.182 -0.0294 -0.0234 -0.1278
22845W        W40369  13.180   0.817   4.643 -0.1682  0.1317  0.1677
22846W        W40370   2.690   4.940  16.790 -0.0540 -0.0591  0.3201
22847W        W40371  16.958  12.632  15.896 -0.2241 -0.0802  0.0427
22848W        W40372   4.493   6.426  16.060  0.0032 -0.0273  0.0064
22849W        W40373   5.329  14.493  16.921 -0.3962  0.1085  0.0525
22850W        W40374  14.110   5.341  12.648  0.0945 -0.1604 -0.1696
22851W        W40375   1.368   9.736   4.708 -0.2314  0.0407 -0.0837
22852W        W40376   2.697   0.517  16.310  0.0538 -0.0387  0.0941
22853W        W40377  12.554   7.053   1.765 -0.0011 -0.1086 -0.3330
22854W        W40378  16.633  12.359  12.375  0.1288 -0.0017  0.0052
22855W        W40379  14.581  16.991   1.093  0.2695  0.3593  0.3469
22856W        W40380  11.479   7.159  13.693  0.0443 -0.2590 -0.0104
22857W        W40381   3.390   3.851  17.043  0.0504  0.3919  0.2250
22858W        W40382   4.625   0.418   5.319  0.1131 -0.1909 -0.1620
22859W        W40383   9.131   0.425  17.228 -0.1398 -0.0524 -0.2549
22860W        W40384   9.605  11.158  14.368 -0.0609 -0.0824  0.3329
22861W        W40385   7.076   7.476  15.100  0.0257  0.0934  0.1667
22862W        W40386  12.489   8.815   2.652  0.0110  0.1376 -0.0077
22863W        W40387   2.875  13.915  12.848 -0.0070  0.1646 -0.1556
22864W        W40388   5.943   5.696   1.240  0.1872 -0.2141 -0.3085
22865W        W40389   5.258   4.004   5.397 -0.0774  0.1421  0.3195
22866W        W40390   2.714  14.821  13.411 -0.1159 -0.0905 -0.2483
22867W        W40391   2.645  16.806   3.231  0.1651  0.0291 -0.0769
22868W        W40392   1.140   2.274  16.785  0.0633  0.0745  0.0547
22869W        W40393   4.369  10.949   4.861  0.0343 -0.0919  0.5079
22870W        W40394   3.337   1.729  16.570  0.0873 -0.1179  0.0914
22871W        W40395   8.915  13.519   4.535  0.2781  0.1633  0.0900
22872W        W40396  15.712   6.628   5.200 -0.0814 -0.2211 -0.0970
22873W        W40397   8.228   0.637  17.617 -0.1575 -0.1627  0.1269
22874W        W40398  15.974  17.027  16.271  0.1532 -0.0479 -0.2724
22875W        W40399   3.265   0.771   0.495 -0.0135 -0.0278 -0.0851
22876W        W40400   4.218   8.141  17.518  0.0999 -0.2269 -0.0072
22877W        W40401  15.500   6.154  15.462 -0.1114  0.2245  0.0631
22878W        W40402   6.292  11.227   3.269 -0.1150  0.1122  0.1120
22879W        W40403   7.520   7.109  13.191  0.1087 -0.0123  0.0075
22880W        W40404   3.685   1.423  15.647  0.0793 -0.4134  0.0981
22881W        W40405  10.920   0.561   0.081 -0.2642 -0.0570  0.0115
22882W        W40406   1.041  13.487   2.411 -0.2568  0.0455 -0.1705
22883W        W40407   2.569   0.119  14.722  0.0489 -0.1037 -0.3237
22884W        W40408   1.525  16.804  16.295  0.2508 -0.0463 -0.2174
22885W        W40409   9.636   3.595   0.445  0.3848  0.0989 -0.2514
22886W        W40410  13.932   8.523  13.249 -0.1782 -0.0577 -0.0115
22887W        W40411   5.795  15.521  13.296  0.0822  0.0397 -0.0617
22888W        W40412   4.569   9.018   3.648 -0.0344 -0.1518 -0.0634
22889W        W40413  11.512   7.223   1.477  0.0272  0.0597 -0.1129
22890W        W40414   2.512   4.342   0.550 -0.0516  0.1454 -0.0371
22891W        W40415  15.837  10.614  11.950  0.0103  0.3078 -0.0177
22892W        W40416  16.691   7.032   0.243  0.0739 -0.0875  0.1598
22893W        W40417   6.252   9.529  13.672  0.0148 -0.0669  0.0433
22894W        W40418   1.234   8.732  14.770 -0.0213  0.0921 -0.1095
22895W        W40419  12.343  16.127  16.328  0.1151  0.0038  0.2632
22896W        W40420   3.453  15.835  14.041  0.1188 -0.0056  0.0259
22897W        W40421   4.374   1.476  15.072 -0.0412  0.2158 -0.0452
22898W        W40422   2.467  10.521  13.971 -0.0655  0.0294  0.2272
22899W        W40423   1.309  12.110   3.387 -0.2421 -0.3121  0.1518
22900W        W40424  16.195   1.671  15.259  0.1785 -0.2481  0.3691
22901W        W40425   0.876  12.044   3.115  0.1778  0.0073  0.0139
22902W        W40426   2.078   8.542  13.356  0.0943 -0.1372  0.0750
22903W        W40427  12.923  16.581   5.569 -0.3244 -0.3706 -0.1440
22904W        W40428   1.185   8.842  14.211 -0.1517  0.1978 -0.1853
22905W        W40429   3.261  16.073  16.476 -0.3175  0.3678 -0.2666
22906W        W40430  12.246   0.982  16.407 -0.0113 -0.0309  0.1343
22907W        W40431   4.186  15.237   3.808 -0.1697 -0.0575 -0.0665
22908W        W40432   8.710  10.281   1.609  0.1725  0.2269  0.0830
22909W        W40433  12.934   1.207   2.321 -0.2899 -0.0512 -0.1136
22910W        W40434  15.166  16.537   4.436 -0.0175 -0.1325 -0.0889
22911W        W40435   1.470  11.847   5.433  0.2946 -0.3853  0.1400
22912W        W40436   1.290   0.704   1.761  0.0732  0.3030  0.2397
22913W        W40437   6.630  13.441   6.508  0.2909 -0.1731 -0.0444
22914W        W40438   5.272   2.627  14.103 -0.2538 -0.2612  0.3081
22915W        W40439  12.047   7.813  17.128  0.1550 -0.0371 -0.2125
22916W        W40440  11.288   6.986   4.967  0.2107  0.0020  0.2152
22917W        W40441  10.715   5.690   4.971 -0.0352 -0.0406  0.0862
22918W        W40442   9.218   6.561   0.612 -0.0398 -0.1229 -0.2879
22919W        W40443  16.662  11.791  12.174  0.1970  0.1539  0.1699
22920W        W40444   0.910  16.926   0.947 -0.0766 -0.3080  0.0070
22921W        W40445   8.178   5.183   0.531  0.1524 -0.2362 -0.1371
22922W        W40446   7.606   6.740   1.741  0.0977 -0.0716 -0.3604
22923W        W40447   5.209  13.045  14.361 -0.1314  0.1528 -0.1252
22924W        W40448  14.627   5.345   5.378  0.0172  0.1751  0.0518
22925W        W40449  13.025  16.938   2.660  0.1969  0.1771 -0.1836
22926W        W40450   2.681   2.104  13.616  0.1427 -0.0154 -0.0240
22927W        W40451   6.028   9.583   3.838 -0.0854  0.1587  0.0086
22928W        W40452   2.867  16.757   1.897  0.2537  0.0253  0.6861
22929W        W40453   0.405   9.477  14.170 -0.2755 -0.1974 -0.1598
22930W        W40454   9.324   4.351  14.593 -0.0503 -0.1388 -0.0479
22931W        W40455  13.728   4.339  16.794 -0.4352  0.0293 -0.4746
22932W        W40456   2.874   8.717   0.810 -0.1359  0.2041 -0.2376
22933W        W40457  10.425   8.149   0.605  0.0711 -0.3464 -0.2556
22934W        W40458  11.153   6.535   2.856 -0.1895  0.0120  0.1706
22935W        W40459  13.496   1.738  15.020  0.0213  0.2324 -0.1098
22936W        W40460   9.643  12.070  14.510 -0.2916 -0.1305  0.0791
22937W        W40461   0.517   0.114  17.296 -0.1451 -0.1806  0.1366
22938W        W40462   6.708  13.141  12.791  0.0484  0.0572  0.0181
22939W        W40463  13.133  11.768   5.474 -0.1847 -0.0894  0.0514
22940W        W40464   1.642   8.789   1.761 -0.2017  0.0301  0.0403
22941W        W40465  17.013   8.686   5.466  0.2329  0.2441  0.0218
22942W        W40466  16.417   7.588  16.678 -0.1298  0.0213  0.1665
22943W        W40467   1.899   5.504  17.654  0.1824 -0.1292 -0.1238
22944W        W40468  16.186  13.549  14.353  0.1751  0.1023  0.0727
22945W        W40469  12.063  13.078   4.467  0.0841  0.0338 -0.0085
22946W        W40470  11.317  17.050  17.351  0.0462  0.0375 -0.1664
22947W        W40471   6.530   9.496   3.818 -0.1425 -0.4057 -0.1527
22948W        W40472  10.012   4.999  17.427  0.0085  0.2599 -0.0438
22949W        W40473   4.840   6.544  13.388  0.0263 -0.1406  0.0411
22950W        W40474  11.926   0.770  12.958 -0.1412  0.0517  0.2436
22951W        W40475   7.523   9.472  13.906 -0.0542  0.0770  0.1362
22952W        W40476   4.205  10.080   1.465  0.2121 -0.4116  0.1527
22953W        W40477  13.015  12.281  12.975 -0.3679  0.1718  0.0475
22954W        W40478  12.384  16.434  13.366 -0.0352  0.0657  0.2142
22955W        W40479   0.792   1.210  15.520 -0.3519  0.1819 -0.3027
22956W        W40480   2.097   0.672   1.596 -0.0109 -0.2784 -0.1019
22957W        W40481  13.333   5.412  16.824 -0.2440 -0.1083 -0.0644
22958W        W40482  10.724   4.981  12.473  0.1769  0.0684 -0.1544
22959W        W40483   1.315   1.109   3.521  0.0181  0.1418  0.0993
22960W        W40484   2.169   6.493  13.016  0.0676  0.1136 -0.3333
22961W        W40485  10.156  16.283   0.079 -0.2508 -0.1904 -0.0582
22962W        W40486   4.670  13.436   2.124  0.0057  0.0418  0.0043
22963W        W40487  16.256   6.027   4.284 -0.0725 -0.0087  0.0690
22964W        W40488   9.504   3.691  16.676  0.0425  0.0842 -0.0515
22965W        W40489   9.481  11.937   2.473 -0.2268 -0.0403 -0.1489
22966W        W40490   8.576   5.554   0.286 -0.2057 -0.2131  0.4092
22967W        W40491   6.473   8.763  14.763  0.0388 -0.0322  0.0134
22968W        W40492   1.897   2.752  12.282 -0.0413  0.1058 -0.0495
22969W        W40493   6.998   2.175  17.100 -0.0837 -0.4208  0.0399
22970W        W40494   2.433  16.833   1.506 -0.3484  0.0694  0.1652
22971W        W40495  11.942   7.603   4.762 -0.0955 -0.0726  0.0760
22972W        W40496   7.872   0.830  15.202 -0.0842 -0.0706 -0.3550
22973W        W40497   0.215  13.703   0.548  0.1005 -0.0848 -0.0483
22974W        W40498   2.059   5.717   5.371  0.4121 -0.0068 -0.2632
22975W        W40499  12.097   9.080   5.060  0.0361  0.1661 -0.2358
22976W        W40500   6.560  14.087  16.203  0.1185 -0.1750  0.1599
22977W        W40501  14.514   2.681   1.455  0.2156  0.0285  0.0987
22978W        W40502   9.748   8.496   2.391 -0.4075 -0.0669  0.3383
22979W        W40503   2.079   2.682   5.916  0.1468 -0.2411 -0.0471
22980W        W40504   5.638   9.571   1.462 -0.0063  0.0222 -0.1260
22981W        W40505   0.806  15.559  12.887 -0.0103 -0.0724  0.0610
22982W        W40506   9.833   3.498   2.058 -0.2036 -0.0278 -0.3978
22983W        W40507   4.400   5.048  12.991  0.1583  0.0783  0.0095
22984W        W40508  14.293   0.765  14.345 -0.2558 -0.3192  0.0657
22985W        W40509   6.011  14.343   1.885  0.0634  0.2422 -0.0015
22986W        W40510  16.721   5.822  17.648 -0.1994  0.0602  0.1561
22987W        W40511  15.188  11.801   0.169 -0.1437  0.1795 -0.0390
22988W        W40512  17.084   4.433   4.375 -0.1336 -0.4215  0.1634
22989W        W40513   2.608  10.131   2.028 -0.0148  0.0580  0.3530
22990W        W40514  10.939  15.106  12.006  0.0147 -0.1415  0.2829
22991W        W40515   0.387  12.297   2.867  0.0561 -0.1549 -0.0249
22992W        W40516  13.533  15.095   0.219  0.1255 -0.4137  0.2155
22993W        W40517   2.592   9.486   3.066  0.3356  0.2867  0.0686
22994W        W40518   4.151   5.202   2.774 -0.0744 -0.1084 -0.1492
22995W        W40519  11.860   6.287   3.250  0.1959  0.0062  0.0300
22996W        W40520   2.131   6.956   0.924  0.1007  0.1635  0.1616
22997W        W40521  11.119  16.045   5.513 -0.2260  0.0352 -0.1159
22998W        W40522   1.212  14.119   1.605  0.1735  0.0126  0.0302
22999W        W40523   6.645   0.056   1.567 -0.2471 -0.1388 -0.0649
23000W        W40524   4.121  15.356   4.274  0.1790  0.0813 -0.0936
23001W        W40525   2.990   7.232   5.997  0.0770  0.0124 -0.1605
23002W        W40526   1.774   7.598   0.633 -0.1601 -0.2072  0.0592
23003W        W40527  16.767   0.742  14.550  0.0751  0.0943  0.0296
23004W        W40528   3.525  15.598  17.110  0.1488 -0.0872  0.0501
23005W        W40529  16.491  11.302  15.804  0.1530 -0.2758 -0.1241
23006W        W40530   9.651  16.964  12.260 -0.0675  0.3862  0.0282
23007W        W40531   5.356   5.346  17.462 -0.2639  0.1719 -0.1917
23008W        W40532   7.365  13.345  17.211  0.1796 -0.0272  0.0837
23009W        W40533  16.342   4.350   5.749  0.2822 -0.0904  0.2761
23010W        W40534   5.342   9.555   1.840  0.0802 -0.0212  0.0231
23011W        W40535   1.041   0.235   1.185 -0.2107  0.1347 -0.0064
23012W        W40536  11.865   0.414   1.288  0.0295 -0.0594 -0.1281
23013W        W40537  14.883  11.342   5.260  0.1698 -0.2198 -0.3311
23014W        W40538  10.809   0.168   3.167  0.1103  0.2476  0.3282
23015W        W40539  14.970  14.528   1.953 -0.0813  0.1950 -0.2159
23016W        W40540   5.853   7.607  14.386  0.3125  0.1253 -0.2519
23017W        W40541   0.200  14.190   2.740 -0.0287  0.1950  0.1342
23018W        W40542   0.467   3.637  12.849 -0.4242 -0.2477 -0.2024
23019W        W40543   4.941   1.758   1.743  0.0377  0.0099 -0.0144
23020W        W40544   0.357  10.304  12.654  0.0393 -0.0950 -0.0566
23021W        W40545   4.788   8.213   3.696 -0.0998  0.0980  0.4314
23022W        W40546   1.502   6.639   4.242 -0.2624 -0.0611  0.0861
23023W        W40547   0.769   2.436   1.126  0.0143  0.3810 -0.0379
23024W        W40548   5.248   9.964  12.177 -0.0716 -0.0522  0.3463
23025W        W40549   6.332   0.249   3.119  0.3144 -0.0737 -0.1588
23026W        W40550   6.009   9.001   2.028 -0.4720 -0.1196 -0.0240
23027W        W40551  12.847   9.326  12.472  0.2041 -0.1400  0.1161
23028W        W40552   5.058   2.022  17.315 -0.0891  0.0535 -0.0528
23029W        W40553   9.655   9.715  17.232 -0.0845 -0.0737 -0.3379
23030W        W40554  11.496  14.991   1.262  0.1073  0.0514  0.1665
23031W        W40555  15.901   7.458  12.453  0.1775 -0.2044  0.1676
23032W        W40556   6.718  15.187   5.252  0.0786  0.1692 -0.1426
23033W        W40557  11.437   0.363   2.429  0.2275  0.3752  0.2529
23034W        W40558   4.815   7.183  11.314 -0.1546 -0.0376  0.2674
23035W        W40559   8.536   6.762  14.978 -0.3222 -0.1962  0.0698
23036W        W40560   2.993   2.026   5.192  0.0566 -0.0956  0.1532
23037W        W40561   6.902  10.387   2.485  0.2074  0.1862  0.0869
23038W        W40562  16.411   5.553   4.101  0.0331 -0.0155  0.2735
23039W        W40563  10.440  16.671  13.900 -0.0926  0.2329  0.0191
23040W        W40564  14.042  13.842  14.559 -0.4089 -0.1462  0.1114
23041W        W40565  15.260  12.705   4.105 -0.1308  0.1513 -0.3625
23042W        W40566   9.965   5.667   1.412  0.0516 -0.1050 -0.1284
23043W        W40567   6.402   5.894   4.505  0.0031  0.0562  0.3150
23044W        W40568  13.829   0.324  16.694 -0.1082  0.1734 -0.2182
23045W        W40569  11.567   1.913   2.287 -0.3742  0.0521  0.0413
23046W        W40570   9.201   5.236   1.520 -0.3052  0.1604 -0.2228
23047W        W40571   9.048  13.857  17.476 -0.3061  0.0052  0.0332
23048W        W40572   6.159  16.578  16.849  0.1094  0.2114 -0.1529
23049W        W40573  13.983   7.495  12.370  0.0886 -0.0870  0.0329
23050W        W40574   0.715  13.051   2.256 -0.1159  0.0129 -0.1534
23051W        W40575   2.667  11.732   0.265  0.0222 -0.1702 -0.0895
23052W        W40576  16.358  16.975  17.285 -0.2093  0.2984  0.1889
23053W        W40577  13.108  10.179  15.430  0.0834 -0.0222  0.0450
23054W        W40578   7.542   0.239   2.498  0.1796  0.2356  0.0518
23055W        W40579   3.673  12.869   4.571  0.1504  0.0418 -0.1002
23056W        W40580   8.734   7.172  17.443  0.3582  0.0191 -0.0828
23057W        W40581   8.224   1.153   0.757 -0.0019  0.1082  0.1753
23058W        W40582   1.052  17.011  15.170  0.2953  0.0848 -0.0370
23059W        W40583   7.085   6.494  15.138 -0.2914 -0.1117  0.1060
23060W        W40584   1.934  14.128  12.655  0.0655  0.2043  0.2335
23061W        W40585   5.726   2.403   0.040 -0.0109  0.0152  0.1630
23062W        W40586   2.902  16.671  13.140  0.3529  0.0636  0.1595
23063W        W40587   0.531  12.987   0.365 -0.0896  0.0699  0.1990
23064W        W40588   8.865   0.863   3.131 -0.0594  0.1200 -0.3217
23065W        W40589  11.808  15.412  12.642  0.1089  0.0600 -0.0065
23066W        W40590  15.445  12.263   2.657  0.0838  0.0332  0.0484
23067W        W40591   8.666   1.075  12.953 -0.0852 -0.1054 -0.0901
23068W        W40592   7.253  16.165   3.210  0.0505 -0.1896 -0.0263
23069W        W40593  11.955   6.948  16.692  0.2069  0.1298  0.1689
23070W        W40594   3.258   6.291   0.540 -0.0680 -0.2461 -0.2058
23071W        W40595   5.947   1.400   0.365  0.0464 -0.3477 -0.0654
23072W        W40596  14.692  11.124   4.834  0.2136 -0.0186  0.1964
23073W        W40597  11.634  10.123   3.780  0.0520  0.0925 -0.0356
23074W        W40598  15.556  11.845   1.812  0.2087 -0.2446 -0.0494
23075W        W40599  14.582   0.477  14.059  0.0787  0.0540  0.1125
23076W        W40600  11.164   4.856  15.712  0.1089 -0.0844  0.1365
23077W        W40601   9.838   4.986   0.793  0.0268  0.0074  0.1841
23078W        W40602  15.497   6.339  12.247 -0.0191  0.1809  0.0813
23079W        W40603   4.286  16.628  13.272 -0.1937  0.0225 -0.0429
23080W        W40604   5.017   6.381   0.073 -0.0629  0.0001 -0.0369
23081W        W40605   4.853   1.557  14.833  0.2295  0.2661 -0.1537
23082W        W40606   0.717   1.676   3.299  0.0379  0.1776 -0.3804
23083W        W40607   0.095  10.918  14.770  0.0079  0.0237 -0.0054
23084W        W40608   0.318   3.238  17.716  0.1036  0.0332  0.0952
23085W        W40609   1.723   5.255  16.005 -0.0066  0.2125 -0.3784
23086W        W40610   6.119  16.121   5.512  0.2034 -0.1152 -0.0048
23087W        W40611   7.128   0.324  16.406 -0.1342 -0.2407 -0.1346
23088W        W40612  16.608   5.215   0.614 -0.0466  0.1314  0.1414
23089W        W40613  14.252   3.453   5.502  0.0034  0.1047  0.4881
23090W        W40614   7.367  15.588  12.356  0.1735  0.4954 -0.0633
23091W        W40615   3.119   6.984   1.107 -0.1623  0.1312  0.2623
23092W        W40616   7.630  14.186  15.213  0.1454  0.3272  0.0491
23093W        W40617   2.013   8.584   4.062  0.2194  0.1481  0.1575
23094W        W40618  15.307   1.053  13.859  0.5088  0.1948  0.0708
23095W        W40619  10.246  15.320  10.994 -0.0660 -0.2380 -0.0793
23096W        W40620   6.074  14.585  17.333 -0.3232 -0.1650  0.1235
23097W        W40621   7.142   3.955   1.435 -0.0993 -0.0015  0.2104
23098W        W40622  13.038  12.624   0.941 -0.1303  0.0477  0.0979
23099W        W40623  13.523   4.064   5.646  0.3154  0.1007 -0.4024
23100W        W40624   0.573   1.535  16.681  0.0006  0.0381 -0.1092
23101W        W40625   0.902   8.683  13.863 -0.1121  0.1261 -0.0081
23102W        W40626   9.580   3.719   4.630  0.0685 -0.0472  0.2778
23103W        W40627   8.246   1.545   3.083 -0.0072 -0.2290  0.1300
23104W        W40628  10.541   7.683   1.048 -0.0964 -0.4590 -0.1006
23105W        W40629  15.011   6.949   0.319 -0.0252 -0.0585 -0.2910
23106W        W40630  10.501   5.018  17.321 -0.0507  0.0230 -0.0119
23107W        W40631   5.434  13.082   1.239 -0.0834  0.1118  0.1734
23108W        W40632  13.356  12.247  17.444 -0.1982  0.0062 -0.0879
23109W        W40633   0.941   1.484   4.472  0.2127  0.0246  0.1640
23110W        W40634   2.473  10.402   2.819  0.0886  0.2192 -0.1499
23111W        W40635   9.775   8.688  12.866  0.1438  0.1939  0.3072
23112W        W40636   3.448  15.175   2.760 -0.0220  0.0397  0.0835
23113W        W40637   9.881  14.424   0.389  0.2219 -0.0919 -0.1024
23114W        W40638   3.493   8.442   3.503 -0.0531 -0.0848 -0.0468
23115W        W40639  10.026   2.735  13.417 -0.0824 -0.1249 -0.1981
23116W        W40640   4.395  13.467   2.803  0.1654 -0.1605 -0.1250
23117W        W40641   1.795  16.724  17.621 -0.1643 -0.1136 -0.2200
23118W        W40642  11.651   2.928   0.336 -0.2196  0.0571  0.1126
23119W        W40643  16.460   7.249   3.957  0.0875 -0.0423  0.1509
23120W        W40644   9.227   6.132  15.913  0.2211 -0.2203 -0.0602
23121W        W40645   2.761   9.884   1.361  0.1322 -0.0897 -0.0526
23122W        W40646   3.076  10.551  12.589  0.0372  0.1794 -0.1299
23123W        W40647  11.058   6.483   3.401 -0.0600  0.1577 -0.0834
23124W        W40648   7.440  11.252   0.063 -0.2483  0.0731  0.1137
23125W        W40649   6.560   9.730   4.232 -0.2456  0.0439 -0.1494
23126W        W40650  10.323  15.330  16.617  0.1568  0.4612  0.0039
23127W        W40651  13.439   3.032  17.593 -0.3084  0.2908  0.0354
23128W        W40652   6.261   8.961   3.459  0.2274  0.0869 -0.1996
23129W        W40653  17.015   0.596   3.427 -0.0531  0.2043  0.3911
23130W        W40654   2.337  13.068   1.940 -0.1628  0.0073  0.0426
23131W        W40655   6.517   3.718   1.734  0.1243 -0.0234 -0.1413
23132W        W40656   4.239   0.378  17.711 -0.0907  0.1158  0.0221
23133W        W40657   9.937   3.213   0.133  0.0753 -0.2872 -0.1222
23134W        W40658   7.064  13.228  14.197 -0.0231 -0.0509  0.0821
23135W        W40659   8.472  11.482   1.585  0.3333 -0.1326  0.1295
23136W        W40660   8.939   5.691  16.701 -0.0017 -0.2921 -0.1128
23137W        W40661   8.653   4.843  17.300 -0.1828  0.2437 -0.1883
23138W        W40662   2.550  11.966   5.540  0.0239  0.0441  0.2548
23139W        W40663   8.418  11.226   2.543 -0.1377 -0.0833  0.0197
23140W        W40664   4.546   1.216   3.417 -0.3789  0.1650  0.0345
23141W        W40665   0.500  12.578   2.458  0.1231 -0.2496  0.1318
23142W        W40666   4.630   7.389  14.069  0.0549 -0.0255  0.2128
23143W        W40667  12.352  13.727  16.696 -0.1249  0.1720 -0.0864
23144W        W40668   4.405   2.279  15.205  0.0138  0.4041  0.0417
23145W        W40669  11.324   5.142  17.255 -0.0183 -0.0575 -0.0273
23146W        W40670   3.154   7.704   4.349 -0.2438 -0.3042  0.0327
23147W        W40671   5.914   4.642  14.282 -0.0378 -0.2782  0.4632
23148W        W40672  10.838  15.241  15.601  0.0803 -0.0306  0.1562
23149W        W40673   4.866  15.685   2.234  0.2351 -0.0166 -0.0971
23150W        W40674   2.650   4.040  17.305  0.0199  0.3107  0.0307
23151W        W40675   7.869  12.150   4.160 -0.2793  0.0972  0.2622
23152W        W40676  13.541  15.197  14.377  0.1636  0.1357 -0.1113
23153W        W40677   8.017   4.318   0.973 -0.1153  0.1005  0.0282
23154W        W40678  12.572   5.751  14.130 -0.0788 -0.3928 -0.1265
23155W        W40679   3.847   3.054  15.316 -0.1573  0.4583  0.1426
23156W        W40680  13.871  11.479   4.209 -0.1945 -0.0946 -0.0162
23157W        W40681   8.354  15.814   4.840  0.0035 -0.0203 -0.0028
23158W        W40682  15.217  12.697  13.829 -0.1627  0.2791 -0.1254
23159W        W40683   7.825  11.516  12.515 -0.0434 -0.1928  0.0783
23160W        W40684  16.306   3.130   5.290 -0.0398 -0.0093  0.3567
23161W        W40685   5.976  16.657  12.445  0.0619  0.0550 -0.0518
23162W        W40686   7.804  12.029   1.897  0.0373 -0.0202  0.0308
23163W        W40687   8.004  11.914  13.814 -0.0935  0.3765  0.1414
23164W        W40688   5.643   4.087  15.976  0.1194 -0.0533  0.0710
23165W        W40689   8.463   6.482  13.118 -0.3004 -0.2398  0.0945
23166W        W40690  13.835   4.720  13.496  0.0231 -0.0684 -0.0187
23167W        W40691  16.111  10.721   1.748 -0.0027 -0.0496 -0.1957
23168W        W40692   0.200  11.181   4.121 -0.0700 -0.2222 -0.0256
23169W        W40693   4.349   6.193  14.655 -0.1815 -0.2385  0.0159
23170W        W40694   9.717  16.905  14.441 -0.0450 -0.1178 -0.0041
23171W        W40695   9.022   2.763   3.370 -0.1170 -0.1276  0.3901
23172W        W40696   8.514   8.052   0.395  0.0042  0.0411 -0.0359
23173W        W40697  11.098   1.354   2.708 -0.1420 -0.2160  0.1874
23174W        W40698  15.326  15.542   2.797  0.2538  0.2115 -0.2196
23175W        W40699   3.821  15.881   1.711 -0.0831  0.1546  0.0843
23176W        W40700   2.399   7.298   3.770 -0.0209 -0.2735  0.3115
23177W        W40701   3.703   4.929  15.057  0.1788 -0.1752 -0.2809
23178W        W40702   3.026   2.484   2.100  0.2604  0.1179  0.2422
23179W        W40703   9.347   6.705   3.663  0.1387  0.0725 -0.0708
23180W        W40704  12.748  11.812  14.069  0.2264 -0.1123 -0.0672
23181W        W40705   5.505   8.711   3.388 -0.0098  0.0345 -0.0305
23182W        W40706   1.132   4.918   3.139 -0.0216 -0.2898  0.0469
23183W        W40707   2.854   1.828   2.591 -0.1773 -0.1144 -0.2358
23184W        W40708  13.939   5.637  16.767  0.3954  0.2516  0.2225
23185W        W40709   3.358  15.526   1.787  0.1290  0.1323  0.1266
23186W        W40710  16.322   3.249   0.831 -0.0442  0.0177 -0.0440
23187W        W40711   0.198  13.214   2.346  0.0349 -0.0215  0.1013
23188W        W40712   5.596   3.378  16.593 -0.3057  0.3343  0.1599
23189W        W40713  14.856   6.388   2.063 -0.2366 -0.1327  0.0346
23190W        W40714  10.247   5.407  12.429  0.0709 -0.0574  0.1599
23191W        W40715   9.629  17.070   0.064  0.0789  0.0777 -0.0614
23192W        W40716   0.746  14.967  15.073 -0.1096  0.1483 -0.1860
23193W        W40717  13.793  12.516  17.673 -0.1266 -0.0737  0.1039
23194W        W40718  13.076  15.639   5.513 -0.2488  0.2596 -0.0083
23195W        W40719  12.092   5.462  17.356 -0.1619 -0.0811  0.0697
23196W        W40720   2.862  12.334   1.031 -0.1309 -0.2810  0.0956
23197W        W40721  11.865  16.979  15.681  0.0440  0.2014 -0.2397
23198W        W40722  13.867  14.038  14.078 -0.0370 -0.0844  0.2613
23199W        W40723   8.051   9.479   3.139  0.1815  0.0779  0.1421
23200W        W40724   2.053   8.568   4.589 -0.0772 -0.0433 -0.2847
23201W        W40725  13.750  11.369   3.704  0.1175  0.2801  0.2148
23202W        W40726   5.128  10.585   2.168 -0.0842  0.0163  0.1058
23203W        W40727   0.317  10.089  16.732 -0.1986 -0.2118  0.1464
23204W        W40728  14.644  15.616   3.971  0.1914  0.2976  0.2039
23205W        W40729  17.066   4.882   2.981 -0.1710 -0.3275  0.1230
23206W        W40730   8.866   2.331  15.240  0.2794 -0.3154  0.1213
23207W        W40731  13.728  13.443   3.383 -0.3478 -0.1796 -0.0351
23208W        W40732   2.025   7.187  12.622  0.0219 -0.2705  0.1133
23209W        W40733  15.036  11.079   2.509  0.0811 -0.0350 -0.0731
23210W        W40734   9.107   3.911   5.325 -0.0506 -0.0621  0.1935
23211W        W40735   4.963   8.326  16.537 -0.1048 -0.2585 -0.0573
23212W        W40736   0.139   5.067   3.761  0.1052 -0.3138  0.5693
23213W        W40737   8.647   6.594  16.885  0.0511 -0.0375 -0.0362
23214W        W40738  11.756   7.187   4.967  0.0008 -0.4500  0.1192
23215W        W40739  11.528  16.048   2.095  0.1045 -0.0086  0.3058
23216W        W40740   4.518   3.484  13.893 -0.1553 -0.1733 -0.2028
23217W        W40741  14.792  10.397   1.065  0.1356  0.1308  0.1740
23218W        W40742  10.141   0.054  13.063  0.3572 -0.1275 -0.1797
23219W        W40743  10.195   0.790  12.332  0.0375 -0.1562  0.0360
23220W        W40744  15.353  12.888  15.362  0.0888  0.0152  0.0529
23221W        W40745  10.297  13.829   2.453 -0.1005  0.0220 -0.0920
23222W        W40746  10.781   8.102   2.459  0.0932  0.2266  0.0850
23223W        W40747   0.502   0.460  15.587  0.1323  0.0875  0.1714
23224W        W40748   7.507   0.126  16.715  0.1473  0.2908  0.1160
23225W        W40749  12.369  11.621  12.475  0.3337 -0.0172  0.1882
23226W        W40750   8.573  15.396   2.397  0.1580 -0.3540  0.1276
23227W        W40751  14.719   4.681   4.434 -0.2093 -0.0467 -0.0371
23228W        W40752   9.381  10.886  15.294 -0.1081  0.1760  0.1647
23229W        W40753   8.976   5.377  14.390  0.1678 -0.1222 -0.2641
23230W        W40754   3.283   8.804  14.750  0.0281 -0.1957 -0.2705
23231W        W40755   1.266   6.852   3.015 -0.0688 -0.3018  0.3526
23232W        W40756  14.026   3.817   5.913  0.1066  0.0092  0.0726
23233W        W40757  15.826   3.446  17.622  0.0977  0.1923 -0.1551
23234W        W40758   6.351   2.807   2.829 -0.1113 -0.0775 -0.0457
23235W        W40759  14.106   3.735  15.390 -0.0872  0.2312  0.0475
23236W        W40760   7.742   8.639   4.355 -0.2670 -0.2859 -0.2244
23237W        W40761  11.512   8.014  15.231  0.2656  0.3356 -0.4081
23238W        W40762   3.374   0.731   4.866  0.0817  0.0712  0.0044
23239W        W40763   0.191   6.171   3.533 -0.1921  0.0982  0.1398
23240W        W40764   0.874   8.179   2.012 -0.0663  0.2728  0.4733
23241W        W40765   0.766   5.002  13.052 -0.0288  0.0514 -0.1668
23242W        W40766   4.620   6.064   1.090 -0.1631 -0.0568 -0.2159
23243W        W40767   3.347   0.135   0.485  0.1170  0.0413 -0.1184
23244W        W40768  11.342   9.960  12.579 -0.0747 -0.2559  0.1541
23245W        W40769   9.251   6.718   2.388  0.1653  0.0145  0.0171
23246W        W40770   3.393   7.468   4.967 -0.1529  0.1504  0.2590
23247W        W40771   1.208  16.058   0.668  0.1217 -0.0263  0.0600
23248W        W40772   0.411  15.317   1.793 -0.0279  0.0210  0.2512
23249W        W40773  11.018   4.063  15.354  0.0953 -0.1187 -0.3079
23250W        W40774  15.674  12.110  16.754  0.3197  0.0384 -0.3365
23251W        W40775  13.939  11.907  14.584 -0.0546 -0.1570  0.3524
23252W        W40776   4.979  14.393   2.254 -0.1024  0.0561 -0.1203
23253W        W40777   8.667   5.839  12.398  0.0209  0.0443 -0.1690
23254W        W40778   2.498   1.741   5.139 -0.2828 -0.0656 -0.1441
23255W        W40779   7.294   9.913  13.757 -0.1679  0.0061 -0.1474
23256W        W40780   6.959   6.350  16.045 -0.1501  0.2008 -0.0226
23257W        W40781   7.763  14.497  14.724  0.2617  0.0864  0.0500
23258W        W40782   5.426  11.523  16.358  0.0767  0.1776  0.3103
23259W        W40783   6.070   6.291  16.977  0.1192  0.1513  0.0370
23260W        W40784   4.874  10.814  13.084 -0.0438  0.0619  0.0001
23261W        W40785   8.756  12.112  11.581  0.2146  0.2615  0.1459
23262W        W40786  16.078  16.050  17.059 -0.2329 -0.1797 -0.0884
23263W        W40787  16.076  11.388  13.598  0.1808  0.1708 -0.0657
23264W        W40788  10.327   6.650   4.528 -0.0599  0.2540 -0.0581
23265W        W40789   4.506  12.938   1.193  0.0060  0.0860  0.1381
23266W        W40790  15.794   6.432  16.728  0.2920  0.0442 -0.2023
23267W        W40791   9.794   3.710  12.255 -0.0652  0.2279  0.1356
23268W        W40792  13.360   9.578   1.011 -0.0541 -0.2082 -0.0213
23269W        W40793   9.006   0.483   4.095 -0.0976 -0.1860 -0.0341
23270W        W40794   2.849   3.416  15.266 -0.0864  0.0341  0.0583
23271W        W40795  15.505   8.628  14.119 -0.0445  0.1873  0.2942
23272W        W40796   6.380  14.027  15.593 -0.0019  0.3249  0.0582
23273W        W40797   2.410  15.095   0.490  0.1064 -0.3536  0.0178
23274W        W40798   5.119   6.417  16.726  0.2068  0.2085  0.1524
23275W        W40799   2.239   2.012  14.054 -0.3852 -0.2549  0.2544
23276W        W40800   0.051   0.854  14.308  0.0456 -0.2258 -0.0057
23277W        W40801   8.426   2.842   4.009 -0.2943  0.0552  0.1116
23278W        W40802   0.295   7.166   5.305  0.3120  0.1011 -0.0754
23279W        W40803   9.821   2.038  13.258 -0.3421 -0.0589  0.0766
23280W        W40804  11.274   2.805   3.476 -0.2394 -0.3100 -0.0462
23281W        W40805  12.744  10.373   1.767  0.2718 -0.0982 -0.2295
23282W        W40806   7.100  16.572   5.255  0.1660  0.1007 -0.0556
23283W        W40807   6.444   3.372   5.021 -0.3577 -0.2710 -0.1446
23284W        W40808   8.768   0.478  16.726  0.1933 -0.0095 -0.1200
23285W        W40809  14.269   7.987  17.357 -0.1564  0.1240 -0.2178
23286W        W40810   5.565  10.028   1.305  0.1183  0.4229 -0.1716
23287W        W40811   7.613   8.133  16.939  0.2779  0.1570 -0.0259
23288W        W40812  10.808   2.726  14.660  0.2050  0.1005 -0.0845
23289W        W40813   7.385   6.260   0.340  0.1701 -0.4441  0.0194
23290W        W40814   5.515  11.344  13.133  0.1488  0.0855 -0.1597
23291W        W40815   9.053   0.931  17.140 -0.2117  0.0393  0.1298
23292W        W40816  16.662   4.151  14.137  0.2408 -0.1235  0.1895
23293W        W40817   9.400   8.188   3.262 -0.1966  0.0054 -0.1401
23294W        W40818   1.945  14.714   4.013  0.0967  0.1018  0.1948
23295W        W40819   0.710  12.721  17.235  0.2041 -0.0698 -0.1395
23296W        W40820  10.971  16.944   4.660 -0.0546 -0.1083  0.3742
23297W        W40821  13.808   6.145   2.456 -0.1930 -0.1487 -0.2102
23298W        W40822  15.615   4.830   2.229  0.0831 -0.1314 -0.1305
23299W        W40823   7.476  16.094   0.235  0.0819 -0.2464  0.1632
23300W        W40824   0.152  13.942  15.903 -0.1106  0.0023 -0.1195
23301W        W40825  12.738   7.040   3.839  0.2253 -0.0074 -0.1572
23302W        W40826  12.072   3.309  15.506  0.2918  0.0997 -0.4195
23303W        W40827  14.401   3.518   3.588  0.1914  0.1583 -0.0674
23304W        W40828  10.806   8.894   4.271 -0.1167  0.0036  0.0227
23305W        W40829  14.212   9.596  15.105 -0.2170 -0.0463 -0.1847
23306W        W40830   6.399   3.257   2.595  0.1382  0.1964 -0.0861
23307W        W40831   1.410  15.160  15.001  0.3594 -0.3289  0.0303
23308W        W40832  14.525   6.079  12.393 -0.2609  0.0300  0.1518
23309W        W40833   2.503   5.198  17.183  0.0946  0.0213 -0.0167
23310W        W40834   1.140  11.134  15.132  0.4083 -0.2080  0.2004
23311W        W40835   1.980  14.670  15.439 -0.2549  0.1369  0.2550
23312W        W40836  17.129   9.082   5.114 -0.0424  0.1115  0.0852
23313W        W40837  15.382   7.685   0.067  0.1702  0.1768 -0.0814
23314W        W40838  15.648  12.035  12.351 -0.1106 -0.1461  0.1183
23315W        W40839  14.682  10.346   4.348 -0.1367 -0.1394 -0.0107
23316W        W40840   5.788  12.396   2.525 -0.2103 -0.3787  0.0639
23317W        W40841   9.606   1.570   0.757  0.0680  0.2013  0.0817
23318W        W40842   1.909   2.561   4.429  0.1400 -0.0145  0.0539
23319W        W40843   6.320   8.196   2.311 -0.1298 -0.0552 -0.0575
23320W        W40844  14.837   6.062   4.760 -0.0504 -0.1134  0.0121
23321W        W40845   5.320  13.765   5.047 -0.4570 -0.1507  0.0544
23322W        W40846   7.847   3.122  13.909 -0.0021  0.2106 -0.0819
23323W        W40847  14.406   9.684  15.591 -0.2282 -0.0538  0.1887
23324W        W40848   6.270  15.350  12.560 -0.1365  0.2177  0.1308
23325W        W40849   8.166  16.045  15.369 -0.0515 -0.0964  0.1741
23326W        W40850  15.226   5.064  12.779  0.0154  0.1527 -0.2558
23327W        W40851   6.664   0.660   2.652 -0.0033 -0.0295  0.0092
23328W        W40852   8.097   0.818   2.486 -0.1952  0.0514 -0.2615
23329W        W40853  14.567   4.646   3.431 -0.0300 -0.1275 -0.0090
23330W        W40854   5.498   0.217   3.388 -0.2278  0.1487  0.4493
23331W        W40855  14.410   8.599   1.309 -0.1141  0.0024 -0.1847
23332W        W40856   6.988  17.061   1.221 -0.1625  0.1995  0.0097
23333W        W40857   9.144   2.547   1.424  0.2191  0.0700 -0.2178
23334W        W40858  15.863   3.145   0.313  0.2265  0.1003 -0.3423
23335W        W40859  12.975  16.750   4.072 -0.1219 -0.1913  0.0834
23336W        W40860   4.736   9.414  13.620 -0.0420 -0.0115  0.0885
23337W        W40861  15.070   7.480  13.457  0.0545  0.2652  0.3109
23338W        W40862  12.808   5.244  16.336 -0.3037  0.1442  0.1630
23339W        W40863   2.816   4.915  15.346 -0.1033 -0.1270 -0.2676
23340W        W40864  11.375   8.997  16.505 -0.0842  0.0553  0.0196
23341W        W40865  11.588  11.503  13.885  0.3004  0.0151  0.0005
23342W        W40866  13.915   4.662   0.555 -0.0399  0.1482 -0.0185
23343W        W40867   9.249   1.720   5.459  0.1953 -0.0154  0.1287
23344W        W40868   0.630   6.350   1.522 -0.0606  0.0884 -0.1693
23345W        W40869   9.158   3.019  14.687  0.0641  0.1306 -0.0785
23346W        W40870   7.077   3.341  17.363  0.1737  0.2527 -0.0052
23347W        W40871   0.407   8.513  17.374 -0.1959  0.2361 -0.2651
23348W        W40872  13.059   9.061   5.074  0.0226  0.1624 -0.1408
23349W        W40873   1.567   1.778   1.856  0.1677 -0.0355  0.0660
23350W        W40874  17.016  14.634   2.357 -0.0075  0.0562  0.0550
23351W        W40875   5.953   9.132  16.011  0.1150 -0.0760 -0.1792
23352W        W40876   1.426  14.842  17.241  0.0272 -0.0284 -0.0547
23353W        W40877  11.526   0.698  13.726 -0.1889 -0.0675  0.0155
23354W        W40878  16.899  16.426   5.606  0.0310  0.0736  0.2315
23355W        W40879  10.532  12.627  17.395 -0.0673  0.2641 -0.1029
23356W        W40880   7.658  13.456   0.336  0.1696 -0.1124 -0.5922
23357W        W40881   2.306  13.632   5.199 -0.1120 -0.4485 -0.1907
23358W        W40882   3.055  15.967   3.831  0.1913 -0.0883 -0.1985
23359W        W40883   1.826  15.446   2.079  0.0672 -0.1105 -0.1171
23360W        W40884  14.095   3.647  14.871 -0.0952 -0.0529 -0.2184
23361W        W40885   2.457   2.799  12.188  0.0429 -0.2123 -0.0610
23362W        W40886  14.034   6.936   2.144  0.1457 -0.1542 -0.1194
23363W        W40887  13.036   9.856  16.636 -0.0989 -0.0381 -0.0072
23364W        W40888   2.566   9.616  16.973  0.1378  0.1211 -0.0307
23365W        W40889   1.299   6.835  14.799 -0.2541 -0.2166 -0.1521
23366W        W40890   2.159  12.047   4.618 -0.0725 -0.0062 -0.1769
23367W        W40891   3.686  14.933  13.172  0.1118  0.2694 -0.1835
23368W        W40892  17.108  17.013  13.007  0.2496 -0.0133 -0.1366
23369W        W40893   4.735   0.052  13.803  0.0908 -0.0046  0.1652
23370W        W40894   3.707   0.355   2.684 -0.3981 -0.1886 -0.0509
23371W        W40895  10.800   0.400   5.166  0.3156 -0.2018  0.0890
23372W        W40896   3.541  16.602   4.038 -0.2899  0.0521 -0.0601
23373W        W40897  15.765  13.999  15.465 -0.2691 -0.0759 -0.1215
23374W        W40898  11.301  13.499   1.542 -0.0722 -0.1672  0.0568
23375W        W40899   9.871   9.335  16.438 -0.0693 -0.0328 -0.1747
23376W        W40900   1.566  11.150   0.117 -0.0008 -0.0577 -0.0124
23377W        W40901  13.209   8.050  16.518 -0.1692 -0.0702  0.1731
23378W        W40902  16.751  13.615  14.080 -0.0361 -0.1491  0.0929
23379W        W40903   8.370   6.020  16.369 -0.0305 -0.1296 -0.0635
23380W        W40904   2.238   6.383   3.436 -0.2361  0.2282  0.1755
23381W        W40905   6.642   7.387   0.100 -0.2495  0.2544  0.0853
23382W        W40906   7.724  16.531  15.945  0.0287 -0.1045 -0.1456
23383W        W40907   1.828   5.531   4.432 -0.0192  0.1025  0.0767
23384W        W40908  13.459   7.080   2.787 -0.0739  0.2751  0.1472
23385W        W40909   9.199  10.985   2.101 -0.2118 -0.0755  0.0670
23386W        W40910   9.484  16.688  17.493 -0.0318 -0.3737  0.2241
23387W        W40911  15.799   0.062   2.318  0.0652  0.2338  0.0658
23388W        W40912   6.391  13.158  14.508 -0.0096  0.1284 -0.1780
23389W        W40913   7.747  10.500   6.032  0.0640  0.0489 -0.2344
23390W        W40914  13.484   5.686  14.562  0.2072  0.3442  0.2224
23391W        W40915   2.258   7.955   2.585 -0.1048  0.2159 -0.1564
23392W        W40916  12.899  12.938  12.239  0.0653  0.0395 -0.0427
23393W        W40917  12.289   9.547   3.352  0.2715 -0.2191 -0.0196
23394W        W40918   7.167   6.681   0.500 -0.3916 -0.0764  0.0681
23395W        W40919   2.696   5.499   0.153 -0.3991 -0.1213 -0.1995
23396W        W40920   5.838   8.421  16.531  0.2065 -0.1286  0.0648
23397W        W40921  10.880  13.654   0.398 -0.1749 -0.2661  0.2610
23398W        W40922   6.318   3.927  15.290  0.3936  0.0921  0.2824
23399W        W40923  12.332  10.012  17.170  0.1196  0.0963 -0.0525
23400W        W40924  10.431   5.316  11.218 -0.1295  0.1231  0.1112
23401W        W40925   6.634  10.621  15.525  0.0123 -0.2247 -0.1019
23402W        W40926   5.610   5.386   2.146  0.0548  0.1512 -0.0596
23403W        W40927  11.035   5.298   5.148 -0.3874  0.0903 -0.0634
23404W        W40928   7.860   2.110   1.891  0.3231  0.3126 -0.3898
23405W        W40929  12.610  15.182  14.046 -0.1347  0.0145 -0.1310
23406W        W40930   6.439   4.039   2.678  0.3748  0.2093 -0.1967
23407W        W40931   4.182   9.470   2.095 -0.1917 -0.0716 -0.3323
23408W        W40932   5.449   5.385  13.875  0.0178  0.0985  0.0648
23409W        W40933   8.056  16.201   2.452  0.0468  0.1894 -0.2596
23410W        W40934  15.732   9.647   6.106  0.0863 -0.0737  0.1003
23411W        W40935  13.132   4.359  14.198  0.0152  0.2355 -0.0313
23412W        W40936  14.624   2.302  14.872  0.0422 -0.0006 -0.3908
23413W        W40937   2.347   3.832  14.866 -0.3101  0.2676 -0.3989
23414W        W40938   3.173  16.291  12.289  0.1499 -0.1556 -0.0338
23415W        W40939   2.710   5.280  14.040  0.0655 -0.0776 -0.2355
23416W        W40940  16.023  13.838   2.978  0.1758 -0.0853 -0.3257
23417W        W40941   5.905   0.183   4.399  0.0510 -0.1134  0.3709
23418W        W40942  13.682   8.899  17.438 -0.0586  0.3299 -0.0952
23419W        W40943  10.364  10.459   1.237  0.2317  0.0020  0.1319
23420W        W40944  14.828   4.305   1.954  0.0822 -0.1896  0.2870
23421W        W40945  16.419  11.527   2.146 -0.0175 -0.1134  0.4196
23422W        W40946  13.133   5.490   2.726  0.1877  0.1207 -0.1091
23423W        W40947   7.926  15.719  12.958 -0.1628  0.3324  0.1114
23424W        W40948   6.992   5.651   2.337  0.0666  0.0228 -0.0540
23425W        W40949   8.475   3.600  14.446 -0.2180 -0.0988  0.0705
23426W        W40950  14.191   4.785   2.729 -0.1631  0.0365  0.0930
23427W        W40951   0.103   9.231  16.496  0.0497 -0.3113  0.2035
23428W        W40952   4.203  16.847  17.130  0.0334 -0.2125  0.0965
23429W        W40953   7.369  12.874  15.264 -0.0175  0.5272  0.1122
23430W        W40954   5.723  15.848  16.531  0.2455 -0.3409  0.3579
23431W        W40955   0.940   9.095   1.545 -0.0684  0.0364  0.1472
23432W        W40956  10.866   0.195   3.852  0.0017 -0.1418 -0.0147
23433W        W40957   6.236   0.159   1.388  0.1255 -0.0897 -0.1365
23434W        W40958  15.637  14.438   4.364  0.0447 -0.3137  0.1459
23435W        W40959  11.856  16.236   5.237 -0.2570 -0.2406  0.5110
23436W        W40960  17.143  16.611   1.479  0.0661 -0.0224  0.1975
23437W        W40961   1.960   0.060  17.709  0.3194 -0.2519 -0.0114
23438W        W40962   6.429   7.675   4.507  0.0969 -0.2536  0.3138
23439W        W40963   4.483  13.254  16.736  0.0129  0.2673  0.1001
23440W        W40964  10.897   2.171  15.713  0.0815 -0.0563 -0.1968
23441W        W40965   0.029  15.608   1.543  0.0834  0.1080 -0.2021
23442W        W40966   4.895   6.124  14.620 -0.1235  0.0531 -0.0612
23443W        W40967   0.682   3.934  14.172 -0.0247  0.0240 -0.1050
23444W        W40968   0.735   1.194   5.419  0.2397 -0.1433 -0.1227
23445W        W40969   3.726   2.392  16.098  0.0154  0.1732 -0.0413
23446W        W40970  14.236   3.310  12.357 -0.3259  0.0494 -0.1372
23447W        W40971  11.636  16.220   3.612  0.0657  0.4302 -0.0695
23448W        W40972   3.666  17.140   3.930 -0.2205 -0.0770  0.0407
23449W        W40973  12.238   2.738  15.034  0.0008 -0.0353 -0.2183
23450W        W40974   2.638  16.420  14.613  0.0220  0.1320 -0.0651
23451W        W40975   8.415   7.833  15.829  0.1035 -0.3445 -0.1711
23452W        W40976   1.018  12.356  17.502 -0.0616  0.0158 -0.1694
23453W        W40977  14.602   2.648   0.454 -0.2742 -0.3392  0.1132
23454W        W40978   6.326   6.632  13.295  0.1142 -0.0032 -0.0491
23455W        W40979   6.717   4.490   5.805 -0.1321  0.0638  0.0110
23456W        W40980   5.626  11.839   3.034  0.2232  0.1019 -0.4962
23457W        W40981   8.775  11.353   0.713  0.1139  0.0761 -0.2013
23458W        W40982   7.323   3.026  14.084 -0.0156 -0.1945  0.0292
23459W        W40983  13.800  10.751   0.359  0.2930 -0.2014  0.1040
23460W        W40984  12.401   6.305   2.164 -0.1460  0.2827  0.1296
23461W        W40985   9.272  16.274  17.376 -0.1030 -0.1977  0.0868
23462W        W40986   6.900   7.440   3.354 -0.2111 -0.1427  0.3723
23463W        W40987   8.553   3.796   4.894 -0.1279  0.0063 -0.0033
23464W        W40988  12.225   5.818   2.919  0.1193  0.2097 -0.2423
23465W        W40989   5.137   7.346   1.800  0.1528 -0.1434  0.0950
23466W        W40990   3.149   3.202   0.811  0.7237 -0.1653  0.1056
23467W        W40991   4.655  13.625  17.612 -0.1485 -0.0501  0.1897
23468W        W40992   1.391  14.446  16.123 -0.1332 -0.4647  0.0325
23469W        W40993   4.955   2.711   0.513 -0.2934  0.0621 -0.0641
23470W        W40994   1.835   7.792  15.016  0.0246  0.0021 -0.0749
23471W        W40995   1.384  12.676  13.361  0.1851 -0.1555  0.2290
23472W        W40996   9.793  14.617  15.313  0.1033 -0.0684 -0.3378
23473W        W40997  10.524  15.190   2.117  0.1674 -0.0924 -0.1888
23474W        W40998   9.002   1.961  16.000 -0.0709  0.1669  0.0132
23475W        W40999  11.918   5.072   3.127 -0.0905 -0.0584 -0.2830
23476W        W41000  14.190  13.210   5.457 -0.3941  0.3002 -0.2933
23477W        W41001   2.288  14.089  14.462 -0.1274  0.1107  0.2494
23478W        W41002   3.513   8.341  12.314  0.0369 -0.3121  0.0442
23479W        W41003   7.144   9.512   2.180  0.2479  0.0310 -0.0462
23480W        W41004   5.943   0.688  14.338  0.0651  0.1684 -0.1089
23481W        W41005  16.991  11.097  12.506  0.0633 -0.0483 -0.0749
23482W        W41006  15.514  14.133  12.685 -0.1970  0.1553  0.0825
23483W        W41007   8.974  15.515  15.384  0.1201 -0.0240 -0.1604
23484W        W41008   1.585  12.634   2.284 -0.0747 -0.0384  0.2447
23485W        W41009   0.603  15.127  17.504  0.2946 -0.2152  0.1151
23486W        W41010  11.082  13.938   1.855  0.0774  0.0946  0.0297
23487W        W41011   1.206  11.115   2.424  0.2174 -0.0042  0.0481
23488W        W41012  10.798   1.119  14.841  0.0508 -0.3183  0.0106
23489W        W41013   6.559  12.737   0.618  0.1989 -0.0083  0.0375
23490W        W41014  13.497   8.772  13.303  0.0541 -0.2304 -0.0564
23491W        W41015  13.132   6.246   3.923  0.1022 -0.1813  0.0736
23492W        W41016  15.561  14.512  15.628 -0.2570 -0.0605  0.0289
23493W        W41017   7.403   9.246   0.308  0.3093 -0.2566  0.2041
23494W        W41018  16.733  13.350  16.260 -0.1821 -0.2600 -0.1157
23495W        W41019  13.625   7.933   0.699 -0.0095 -0.2946  0.2639
23496W        W41020   9.324   3.967   1.124 -0.0723  0.0603 -0.1930
23497W        W41021   0.138   3.591   3.917  0.0105  0.0810 -0.2535
23498W        W41022   3.627  16.075   4.102 -0.0157  0.2189 -0.2573
23499W        W41023  14.849   1.529   4.754  0.2073 -0.3589  0.1709
23500W        W41024   7.520  13.905  16.267  0.0334 -0.0236 -0.1814
23501W        W41025  14.755   6.880   2.263 -0.4281  0.0762 -0.0204
23502W        W41026   4.187   3.220   1.519 -0.2677 -0.0624  0.2441
23503W        W41027  10.762   9.710  15.323 -0.1845 -0.0459  0.1822
23504W        W41028   6.281  14.707   0.431  0.1575  0.1446  0.1703
23505W        W41029  13.197  15.104  16.353  0.0343 -0.1618  0.1212
23506W        W41030  13.531   0.599  16.211 -0.0286  0.2068 -0.0813
23507W        W41031   8.680  12.179  15.628 -0.2358 -0.0182 -0.0093
23508W        W41032   0.069  11.224   0.985  0.3563 -0.0413 -0.0826
23509W        W41033   2.623  11.266   0.457 -0.2532 -0.2690 -0.1182
23510W        W41034  16.990   7.581  13.921 -0.0504  0.0564  0.1225
23511W        W41035  11.406  16.768   1.740 -0.0467 -0.1519  0.2227
23512W        W41036   5.665  12.920   0.821  0.0563  0.3136  0.0001
23513W        W41037  15.103  12.512  15.431 -0.0233 -0.2026 -0.3103
23514W        W41038  12.306   0.864   1.898  0.0214 -0.0272 -0.1784
23515W        W41039   6.440  14.502   6.319  0.1075 -0.1252 -0.1216
23516W        W41040   6.944  10.310  13.075 -0.2178  0.0500 -0.0133
23517W        W41041  16.574   2.384   5.260 -0.0478 -0.2425 -0.0112
23518W        W41042   5.019   3.510  14.164  0.0836 -0.1287 -0.0654
23519W        W41043   7.026  17.070   4.791  0.2144 -0.4862 -0.2472
23520W        W41044  14.549  12.359  13.886 -0.1033  0.0430  0.0445
23521W        W41045   0.794  13.700   4.095 -0.1872  0.2904  0.0693
23522W        W41046   5.059   1.845  13.917 -0.0538 -0.0274  0.1208
23523W        W41047  15.402  10.587  15.159  0.1164 -0.3094  0.0748
23524W        W41048  14.190  13.832   3.954 -0.0962  0.0835 -0.0195
23525W        W41049   8.827  15.047   3.749  0.1832 -0.1751 -0.1065
23526W        W41050   3.232  14.745   1.427  0.2371  0.1613 -0.0103
23527W        W41051   4.577   8.746   1.447  0.2204 -0.2248  0.0276
23528W        W41052  13.982  12.619  14.056 -0.0739  0.5601 -0.1500
23529W        W41053   1.831   8.268   5.435 -0.2083 -0.2275  0.0875
23530W        W41054   3.121   5.323  15.444 -0.2262 -0.1082  0.0759
23531W        W41055   5.220   4.977   2.946  0.2616 -0.1535  0.2170
23532W        W41056  15.714  14.072   5.441 -0.2661  0.1205 -0.2002
23533W        W41057  15.173   9.715   3.640 -0.0114  0.2563  0.1707
23534W        W41058   9.228   2.755   5.461  0.2492 -0.0016 -0.0900
23535W        W41059  15.684   4.335  13.880 -0.1266  0.1000  0.0038
23536W        W41060   6.481   2.437   3.685  0.1743  0.2179 -0.2492
23537W        W41061   9.517  12.521  14.807  0.2618 -0.0041 -0.0459
23538W        W41062   5.155  14.136  14.810  0.4159 -0.2467 -0.3134
23539W        W41063   4.228   3.133   0.598 -0.0736 -0.2315  0.1455
23540W        W41064   2.632  10.607  13.050 -0.1698  0.1230  0.1900
23541W        W41065   6.594   5.618  15.862 -0.2453 -0.0283  0.0206
23542W        W41066   3.391   0.146  17.365 -0.1108 -0.0123 -0.1375
23543W        W41067  12.554  15.301  15.118  0.3471  0.1176 -0.0426
23544W        W41068   9.295   7.921   1.285  0.3231  0.1811 -0.0299
23545W        W41069  16.029  13.778  16.062  0.0510  0.0357 -0.2385
23546W        W41070   8.966   1.056   4.882  0.1567 -0.0233 -0.0425
23547W        W41071  11.203  11.170  15.110 -0.1612 -0.2796  0.0180
23548W        W41072  13.110  13.986   6.074  0.3372  0.2762  0.1110
23549W        W41073   5.583   9.149   1.689 -0.5021 -0.0164  0.2061
23550W        W41074   2.537   1.423   0.540  0.1160 -0.0125  0.1543
23551W        W41075   1.284   1.930   5.287 -0.0255 -0.3465  0.0290
23552W        W41076  15.927   1.542  12.909  0.0148 -0.2007  0.0402
23553W        W41077  15.733  11.771   0.977  0.0597 -0.0326 -0.0359
23554W        W41078   9.093  10.638  17.157  0.0564  0.0331  0.0588
23555W        W41079  15.866  14.702   3.976 -0.1492  0.2683 -0.2324
23556W        W41080   3.621  10.386  17.397 -0.2450  0.0050 -0.0923
23557W        W41081  14.841   5.126  11.264 -0.0517  0.1995  0.0198
23558W        W41082  14.731  14.294  12.469 -0.0208  0.2368  0.1216
23559W        W41083   3.180   3.014  16.409  0.2625  0.2418 -0.1437
23560W        W41084  15.384  11.376  12.959 -0.0542 -0.1311 -0.1260
23561W        W41085   0.937   8.896   4.773  0.0081  0.1070  0.2913
23562W        W41086   4.769  15.970  16.005  0.1900  0.4480 -0.0895
23563W        W41087  17.034  17.047   5.258  0.1400 -0.0230  0.0434
23564W        W41088  15.855  13.876   2.059 -0.0160  0.0197 -0.1524
23565W        W41089   3.916   0.990   1.913 -0.1264  0.3101  0.0395
23566W        W41090   3.312  14.151  13.059 -0.1413 -0.0154  0.1881
23567W        W41091   0.610  12.625  17.719 -0.1219 -0.2246  0.0713
23568W        W41092  13.311   3.440  16.200 -0.1250  0.2754 -0.2004
23569W        W41093  14.110   0.084   0.795 -0.2660 -0.1171  0.1279
23570W        W41094   6.383   1.188   0.082  0.4396  0.2368 -0.2348
23571W        W41095  14.971   9.679   1.619 -0.0813  0.1958  0.0268
23572W        W41096  10.616   4.695   3.983  0.1781  0.1370 -0.0556
23573W        W41097  10.056  15.026   0.608 -0.0524  0.2928  0.2235
23574W        W41098   4.948  10.705  14.937 -0.1625 -0.2986  0.1494
23575W        W41099   9.007   9.598  15.085  0.0755 -0.1246  0.2244
23576W        W41100   3.993   9.878   1.937 -0.2119 -0.0215  0.2266
23577W        W41101   3.650   3.916   2.747  0.2952  0.1629  0.0685
23578W        W41102   4.030   0.891   3.544  0.1482  0.1209 -0.1080
23579W        W41103  13.403  11.708   1.131  0.0422 -0.1668  0.2963
23580W        W41104  10.656  10.310  14.160  0.2177 -0.2350  0.4776
23581W        W41105   6.526  14.628  16.999  0.2926 -0.0102  0.3378
23582W        W41106  16.834   4.442   4.833  0.0650 -0.1495  0.1219
23583W        W41107   6.614  11.614   5.841  0.2146  0.1777 -0.0526
23584W        W41108  16.232   4.416   4.012 -0.0136  0.2010  0.0794
23585W        W41109   5.129   0.056   1.374 -0.0451 -0.2524 -0.0181
23586W        W41110   1.198  14.290   3.706 -0.1399 -0.0069 -0.0033
23587W        W41111   0.033   4.055  13.512 -0.0836 -0.1290 -0.0033
23588W        W41112   6.333   8.158  14.115 -0.2240  0.1653 -0.2968
23589W        W41113   4.458   1.190   2.958 -0.2488  0.0635 -0.2070
23590W        W41114  14.859   0.625   1.076  0.2975  0.0274 -0.1609
23591W        W41115   3.689   4.061  14.400 -0.0056 -0.2011  0.1531
23592W        W41116   9.431  15.775  15.353  0.0054  0.0169 -0.2505
23593W        W41117   7.580   9.696  12.960 -0.0588 -0.2597 -0.3018
23594W        W41118  11.280  10.833   1.640 -0.1211  0.3249  0.0549
23595W        W41119   2.843  11.421  17.396  0.0651  0.0652 -0.0119
23596W        W41120   3.892  14.532   5.425  0.2321 -0.0259  0.1867
23597W        W41121   4.221   7.000  13.919 -0.1518 -0.0103  0.0024
23598W        W41122   6.780   0.666   4.291  0.0282  0.3681 -0.1929
23599W        W41123   3.866  16.620   3.213  0.1965  0.1426 -0.2566
23600W        W41124   7.029  13.783   2.863 -0.1075  0.0630  0.0561
23601W        W41125   2.177  16.693  14.288  0.1583 -0.0215  0.1108
23602W        W41126  16.760  16.242  12.662 -0.0496 -0.1363 -0.0444
23603W        W41127   3.839  15.844  12.040  0.2147 -0.0503  0.0963
23604W        W41128   8.608  11.805   0.458 -0.0790  0.1417 -0.2240
23605W        W41129  16.327  12.422  15.592  0.0622 -0.0281 -0.0009
23606W        W41130   2.445   3.189  15.099  0.1643  0.0105 -0.3223
23607W        W41131   8.184   2.131   2.342 -0.2979  0.2311  0.0260
23608W        W41132  11.806   6.976   3.476 -0.0271 -0.1470 -0.1518
23609W        W41133  11.637  15.166   2.189  0.2489  0.1542 -0.0689
23610W        W41134  15.143   2.348   3.192  0.1150  0.0597  0.1620
23611W        W41135   7.565   8.488  13.727  0.2242 -0.0634 -0.0225
23612W        W41136   4.050   6.542  14.171  0.0031 -0.0894 -0.0024
23613W        W41137   0.708   2.196   3.272  0.0207  0.1000  0.0879
23614W        W41138   1.519   5.191   5.152 -0.0344 -0.1998 -0.5266
23615W        W41139  16.139   5.915   5.325  0.0222 -0.1317 -0.1195
23616W        W41140   8.005   5.487   2.541  0.0040 -0.1062  0.1059
23617W        W41141  11.070  10.378   3.701 -0.0195  0.1254  0.1729
23618W        W41142   0.877   7.318  16.372  0.4619 -0.2943  0.0995
23619W        W41143  10.407  16.186   2.334 -0.0300 -0.0660  0.0880
23620W        W41144   7.798   7.237   0.108 -0.4286 -0.1788 -0.0506
23621W        W41145   4.047   1.195   2.619  0.1203  0.4636 -0.3238
23622W        W41146   9.058  13.168  15.679  0.1835 -0.3599  0.2144
23623W        W41147   8.677   1.475  14.283  0.0779  0.2212  0.3191
23624W        W41148   8.469   3.785  11.757  0.3468 -0.1063 -0.0960
23625W        W41149   8.987  17.147  17.031  0.0760  0.0919 -0.1228
23626W        W41150   9.487  14.250  17.186  0.1607 -0.1605 -0.1053
23627W        W41151  14.025   5.017  15.137  0.2625 -0.0809 -0.0866
23628W        W41152  12.263   4.624  17.481  0.0685  0.0891  0.1712
23629W        W41153  13.506   4.416  17.237 -0.1693 -0.2389  0.1072
23630W        W41154   2.605  15.977   3.198 -0.2147  0.1285 -0.3175
23631W        W41155   9.143   7.562  17.574 -0.0526 -0.1250 -0.0646
23632W        W41156  16.982  13.642   3.072  0.1362  0.0721  0.1156
23633W        W41157   0.181   6.664   5.393 -0.3000 -0.2742 -0.0622
23634W        W41158  11.980   1.276  12.904  0.0325 -0.0716  0.1664
23635W        W41159  16.391   1.493   4.176 -0.1567 -0.0728 -0.1688
23636W        W41160   4.557   7.800  14.865  0.2102  0.0156  0.0582
23637W        W41161  16.295   6.441   2.815 -0.1597 -0.1363  0.0748
23638W        W41162   0.953  14.125  16.965  0.0462 -0.2671 -0.2322
23639W        W41163  12.092  10.851  14.967  0.1471 -0.1501  0.2202
23640W        W41164  16.755  14.229  13.894 -0.3607 -0.0848  0.0978
23641W        W41165  13.348  14.465  14.017  0.2053 -0.1205 -0.1772
23642W        W41166   3.554   6.734   3.706  0.1219 -0.1034 -0.0954
23643W        W41167   9.492   5.591   0.719 -0.0867 -0.1693 -0.2662
23644W        W41168  14.750   4.437   2.447 -0.2963 -0.2113  0.1726
23645W        W41169   3.642  10.710   0.976  0.0315 -0.2797 -0.1711
23646W        W41170  16.288   7.361   5.192  0.2126  0.2405  0.0658
23647W        W41171   4.134   5.391   1.244  0.2060 -0.0305 -0.0377
23648W        W41172   0.614   8.944   0.437  0.3259  0.2940 -0.0227
23649W        W41173   0.574   3.215   2.750  0.0359  0.2156  0.1411
23650W        W41174  12.601  10.077   5.366  0.1669 -0.1780  0.2060
23651W        W41175   2.460  13.680  16.192  0.1633 -0.1757 -0.1130
23652W        W41176   0.936   3.857  13.771  0.0180 -0.2390  0.0955
23653W        W41177   8.275   0.252   4.409  0.0723  0.0671 -0.0260
23654W        W41178   4.835  13.245   1.403 -0.0811  0.2007  0.0719
23655W        W41179   7.743  15.463   4.762  0.1567 -0.0219 -0.1171
23656W        W41180   1.625   1.476   0.687 -0.0814  0.0131  0.0670
23657W        W41181  14.445   9.569   2.363  0.0668 -0.0131 -0.2586
23658W        W41182  15.681  13.716   5.074  0.0836 -0.1079  0.2553
23659W        W41183   5.404  15.024  12.129  0.1779  0.1543 -0.0904
23660W        W41184  13.376  14.539   0.142  0.1149  0.0233 -0.1990
23661W        W41185   2.236   8.509  12.912 -0.0551  0.0594  0.1049
23662W        W41186   0.299   0.988  14.702  0.4263 -0.1663  0.0515
23663W        W41187   4.153   6.468   2.325 -0.0486  0.1546 -0.0050
23664W        W41188  10.840   6.318  12.644  0.1772 -0.2689 -0.1150
23665W        W41189   8.191  15.193   1.130 -0.0584 -0.0631 -0.3677
23666W        W41190  11.334  15.121   0.691 -0.0670 -0.0586 -0.1125
23667W        W41191   3.510   7.349  14.436 -0.3732 -0.0288 -0.2750
23668W        W41192  11.202  11.377   4.924  0.1317  0.2694  0.1142
23669W        W41193   9.771  11.868   0.599 -0.0236  0.1820 -0.0556
23670W        W41194   0.506  15.935   3.376 -0.0512  0.2925  0.1765
23671W        W41195   8.751   7.517   0.577 -0.0549 -0.1283  0.0590
23672W        W41196  15.734   4.384   0.520  0.0636 -0.1554 -0.0745
23673W        W41197   4.914   0.104  12.735  0.0858 -0.0719  0.1939
23674W        W41198   7.755  16.202  14.714  0.1467 -0.0932 -0.0613
23675W        W41199  11.896   1.674  14.722  0.0044 -0.1288 -0.1356
23676W        W41200   5.469   3.685  14.367  0.0335  0.2550  0.1601
23677W        W41201  14.188  16.177  13.166 -0.1677 -0.2378  0.1809
23678W        W41202   0.599   2.227  17.143 -0.0060 -0.0932 -0.2471
23679W        W41203  15.051   1.809  16.850  0.0379  0.1017 -0.1038
23680W        W41204  15.210   5.470  16.116  0.0603 -0.1879  0.0457
23681W        W41205   3.171  14.466   4.575 -0.0595 -0.4668  0.0619
23682W        W41206   6.246  15.535   1.506  0.1590  0.0513  0.0917
23683W        W41207  11.141   1.570   2.266 -0.0108 -0.2524  0.0989
23684W        W41208  15.097   6.340   5.771 -0.1397 -0.0687 -0.0449
23685W        W41209  12.236   2.020  11.389 -0.0883  0.0756  0.0185
23686W        W41210   9.015  10.917  11.652  0.2105  0.0549  0.0350
23687W        W41211  12.946   6.213   2.216 -0.3723 -0.2051 -0.0450
23688W        W41212  16.957  13.471   5.617  0.2855  0.3325  0.2239
23689W        W41213   9.565   1.605  13.616 -0.1026  0.1752  0.1635
23690W        W41214   5.202  14.362   1.010  0.0708 -0.1509 -0.0461
23691W        W41215   2.947  11.530  13.694  0.0489 -0.0265  0.0012
23692W        W41216   6.130   1.985   1.093  0.1354  0.1050  0.1729
23693W        W41217  12.096  15.428   2.371  0.3171 -0.2071  0.0139
23694W        W41218   0.314   8.075  13.026 -0.2434  0.0198 -0.0805
23695W        W41219  11.096   3.137  15.209 -0.1141  0.0349 -0.3129
23696W        W41220   8.893   1.601  16.762  0.1967  0.0584 -0.2457
23697W        W41221   6.782   0.721  15.600 -0.1305 -0.0991 -0.1667
23698W        W41222  16.712  16.139   3.844 -0.1054  0.0358  0.0237
23699W        W41223   4.273   3.741  15.866 -0.1871 -0.2337  0.2393
23700W        W41224  15.215   9.458  12.155  0.0142  0.1454 -0.2253
23701W        W41225   9.711  11.614  15.451  0.1818  0.2353  0.3668
23702W        W41226  15.696  15.478  16.328  0.4728 -0.2776  0.0380
23703W        W41227  14.937   1.726   0.761  0.1052 -0.0467 -0.1832
23704W        W41228   0.833   9.820  17.130 -0.1011 -0.5129  0.1565
23705W        W41229  15.347  11.182  12.220  0.3237  0.0608 -0.0378
23706W        W41230   8.062  11.169  14.338 -0.0427 -0.0423  0.2424
23707W        W41231  13.130  12.372  14.899  0.1208  0.5786 -0.2531
23708W        W41232   6.715  15.309  14.079 -0.2388  0.2611  0.1122
23709W        W41233  12.220   8.528   0.503 -0.1701  0.1561 -0.4971
23710W        W41234   9.954   1.825   2.883 -0.2473  0.0239 -0.2036
23711W        W41235   6.425  10.744   3.149 -0.0406 -0.2091  0.0032
23712W        W41236   4.859   5.389   3.737  0.0614  0.0735  0.0088
23713W        W41237  16.039  15.600  17.414  0.3584 -0.1278  0.1071
23714W        W41238  11.334   2.711  12.160  0.0753  0.0678  0.1915
23715W        W41239  12.305   0.372  15.819 -0.0952  0.1671 -0.0487
23716W        W41240   1.473   0.510  15.728 -0.0963 -0.0768  0.0337
23717W        W41241  13.216  15.966  15.485  0.1384 -0.1277  0.0707
23718W        W41242   0.487  12.270  17.344 -0.0991  0.1172 -0.0717
23719W        W41243  13.159   0.566   5.496  0.1579 -0.1434 -0.0497
23720W        W41244   2.143  14.063   0.310  0.2043  0.1421 -0.1385
23721W        W41245   6.133   7.198  12.320  0.2880 -0.0507 -0.1844
23722W        W41246   2.260   1.788  12.261 -0.0274 -0.1564  0.0013
23723W        W41247   6.009   9.413  13.267  0.0868 -0.1401  0.0309
23724W        W41248   4.935   7.406  12.981  0.0990  0.1846 -0.0301
23725W        W41249   7.405   8.628  12.745 -0.1670 -0.1515 -0.1862
23726W        W41250   8.498  11.151  13.198 -0.0304  0.3275  0.0107
23727W        W41251   4.939   6.283  13.024  0.0237  0.3228  0.2703
23728W        W41252   1.952  14.507   4.448  0.0539 -0.0592 -0.0799
23729W        W41253  16.665  11.516  16.274 -0.1987  0.1338 -0.0313
23730W        W41254  10.703   8.094  12.329 -0.0486  0.0473  0.0239
23731W        W41255   4.703   5.918   3.834  0.0081 -0.0858  0.0236
23732W        W41256   9.565   9.208   4.165  0.1646  0.0501 -0.1312
23733W        W41257   7.162  13.442   2.144  0.2167  0.0067 -0.0517
23734W        W41258   9.313   5.673   0.251 -0.1841 -0.0962 -0.3661
23735W        W41259   2.458   1.846   3.870 -0.0735 -0.0355 -0.0621
23736W        W41260  13.063  13.092   3.163  0.0713  0.0725 -0.4019
23737W        W41261  12.543  15.459  16.122  0.2085  0.1354  0.1445
23738W        W41262  13.703   5.123  13.751 -0.2139 -0.2232  0.0548
23739W        W41263  16.171   0.826   1.942 -0.2738  0.0414  0.0267
23740W        W41264   8.477   3.075   5.208  0.1342  0.1213  0.2473
23741W        W41265   1.817  10.499   4.882  0.1640 -0.0426  0.1229
23742W        W41266  12.304   8.219  15.403  0.0098 -0.0903 -0.1158
23743W        W41267  16.515   6.162   5.572  0.0737 -0.1661  0.1518
23744W        W41268  14.661   1.811  16.531 -0.0169 -0.1139  0.1101
23745W        W41269   1.692   1.159   1.113 -0.0668 -0.1304  0.0668
23746W        W41270   5.910  13.994   5.917  0.0803  0.0806 -0.0945
23747W        W41271   7.100  13.580  12.337 -0.1488  0.3834  0.0053
23748W        W41272  13.092  13.751  14.935 -0.1711  0.3234 -0.1312
23749W        W41273   7.799  15.680   1.104 -0.3211  0.1377  0.2564
23750W        W41274   3.093   1.327  16.365  0.3149 -0.2646  0.2040
23751W        W41275  13.631  14.207  13.676 -0.2635  0.0247  0.2378
23752W        W41276   5.874   9.809   1.934  0.0241 -0.0991  0.1049
23753W        W41277  11.095   5.356   1.304 -0.0242 -0.0918 -0.4197
23754W        W41278   7.937  11.919  14.338  0.2163 -0.0478  0.1658
23755W        W41279  10.450   7.224  17.082 -0.0515 -0.2199  0.1606
23756W        W41280   8.939  16.134   0.439  0.1319  0.0194 -0.0293
23757W        W41281   7.212  12.743   0.701  0.1735 -0.1135 -0.0530
23758W        W41282  12.894   4.839   1.153 -0.1969 -0.0736 -0.1736
23759W        W41283  16.979   0.172  16.125 -0.0879 -0.1675  0.1444
23760W        W41284  10.828   7.349  12.690  0.0249  0.1070  0.0082
23761W        W41285   8.215   8.596  13.805 -0.0670 -0.2153 -0.1421
23762W        W41286   4.713  14.285  13.942 -0.2504 -0.2120 -0.2440
23763W        W41287   7.641  17.048   2.998 -0.0137  0.0419  0.0863
23764W        W41288  15.261   7.211   1.449  0.1116 -0.0002  0.0974
23765W        W41289  10.868  11.912  16.764 -0.4733  0.1052  0.1838
23766W        W41290  14.314   1.775  16.176 -0.0227  0.2545 -0.0467
23767W        W41291  11.083  13.398   2.745 -0.1748 -0.2206 -0.0941
23768W        W41292   2.204   5.456   4.112  0.0549 -0.0717  0.3207
23769W        W41293   6.869   7.906  15.362  0.3997  0.0426  0.1488
23770W        W41294   8.587   8.517   3.388 -0.2074  0.2416 -0.0273
23771W        W41295   8.823   2.105   4.105 -0.0710 -0.0034 -0.0120
23772W        W41296  15.922   7.266  14.146 -0.0745 -0.2739  0.0753
23773W        W41297  10.207   5.924  17.665  0.2115  0.0742 -0.1885
23774W        W41298  12.446  13.969  16.234 -0.0746  0.3163  0.2621
23775W        W41299   4.845   8.366   1.720 -0.2170  0.0980  0.1949
23776W        W41300  12.996   7.972  12.320 -0.2956 -0.3188 -0.1010
23777W        W41301   4.958   4.293  17.521 -0.1604 -0.2482 -0.1890
23778W        W41302   9.282  17.035   0.668  0.0915 -0.1402 -0.0385
23779W        W41303   0.258   0.338   5.351  0.0583 -0.0277 -0.1505
23780W        W41304   0.360   3.783   4.946  0.1490  0.1842 -0.2329
23781W        W41305  16.604  13.138   4.225 -0.0784 -0.4668  0.3312
23782W        W41306  11.778  13.675   4.146 -0.0548  0.3419 -0.0299
23783W        W41307  11.307  15.969  14.613  0.0331  0.1750 -0.2653
23784W        W41308   3.784   3.364   4.989  0.1920  0.2569  0.0140
23785W        W41309   9.722   7.744   2.481  0.0118 -0.1301 -0.0724
23786W        W41310  15.483  10.282  13.203  0.3397  0.0732 -0.2109
23787W        W41311  13.780   9.401   1.837 -0.2494 -0.1075 -0.2697
23788W        W41312   4.000   0.434  17.277 -0.2815  0.2079 -0.2121
23789W        W41313  14.193  14.283  16.547  0.2099 -0.0461  0.0455
23790W        W41314   5.216   5.714  12.995 -0.0153 -0.1320  0.1612
23791W        W41315   3.558   5.357  16.333  0.1928  0.2110  0.1217
23792W        W41316   4.607   5.860  11.370  0.0735 -0.1469  0.3689
23793W        W41317   0.003  10.739   5.277 -0.1417  0.0303 -0.0801
23794W        W41318  16.326   6.505   3.352 -0.1100  0.1614 -0.2159
23795W        W41319   7.862  10.703  14.356  0.0470 -0.1168 -0.2876
23796W        W41320  17.011  10.900  14.368  0.1696  0.0207  0.2411
23797W        W41321  14.200   8.007   2.931  0.0645  0.0903  0.1473
23798W        W41322  12.558   9.561   2.143 -0.1058 -0.1717 -0.1217
23799W        W41323   2.421   5.216   5.383  0.1809 -0.2564 -0.1095
23800W        W41324   4.957  12.576   4.907 -0.0869 -0.2522 -0.1672
23801W        W41325   2.622   7.797   3.105 -0.0353  0.0881 -0.3242
23802W        W41326  13.521   1.475  12.784 -0.0745 -0.0857  0.0930
23803W        W41327  16.914  15.867   2.447 -0.6055  0.0009 -0.3267
23804W        W41328   4.022   5.854  14.791  0.0199 -0.1011 -0.1687
23805W        W41329   2.423  15.048   3.817  0.0933 -0.0239  0.0850
23806W        W41330   0.608   3.155   4.195 -0.0077 -0.0258  0.3488
23807W        W41331   3.979  10.960  15.033 -0.1322  0.1944  0.0811
23808W        W41332   0.523  14.830  17.054 -0.0778  0.0097  0.2318
23809W        W41333  14.854   2.980  13.517  0.3443 -0.4231 -0.2593
23810W        W41334   2.390   6.898   2.997  0.0378  0.1139 -0.0635
23811W        W41335   2.435   7.130  12.351  0.0806 -0.0481 -0.1579
23812W        W41336  13.596   7.028   5.124 -0.0137 -0.3804 -0.0432
23813W        W41337   2.617   5.195  15.873 -0.0531 -0.0873  0.3708
23814W        W41338   7.424   4.851   1.879 -0.0874 -0.0702  0.1625
23815W        W41339   9.432   3.547  16.148 -0.0544  0.1206 -0.1529
23816W        W41340   9.287  10.161   0.828  0.0494  0.1450 -0.0362
23817W        W41341   1.752  13.706   4.915 -0.0968  0.0546 -0.1727
23818W        W41342   6.302  16.974  15.430 -0.0008  0.1541  0.2039
23819W        W41343   8.576   5.816  13.506 -0.2408 -0.0213  0.3540
23820W        W41344   0.027  17.082  15.345 -0.1292 -0.0332 -0.1885
23821W        W41345  13.928   0.291   4.847  0.2288  0.2347  0.1438
23822W        W41346  10.123  15.228  12.759  0.3316 -0.1807 -0.0628
23823W        W41347  11.947  12.163  17.705 -0.0262  0.0110  0.0573
23824W        W41348  14.923  10.643  15.336  0.0051 -0.2479  0.2069
23825W        W41349   9.871  16.316   2.004 -0.0197 -0.1549  0.1232
23826W        W41350  14.544   7.901   5.233 -0.2863 -0.1089 -0.0196
23827W        W41351   1.123   2.284  13.471  0.3690  0.2458 -0.0845
23828W        W41352   6.441   5.982  14.797 -0.1840  0.1417 -0.1599
23829W        W41353  13.588   3.209  12.383  0.2508  0.1131  0.2375
23830W        W41354   8.574   3.634  15.668 -0.1602 -0.1021  0.1946
23831W        W41355   4.773  13.009  15.782 -0.1773 -0.2461  0.0660
23832W        W41356   8.524   0.023   4.023  0.1138 -0.2326 -0.0414
23833W        W41357   2.070   8.143   6.707  0.1683 -0.0045 -0.1453
23834W        W41358   6.698   4.015   1.058 -0.0868 -0.0986 -0.2276
23835W        W41359   6.593   4.366  13.137 -0.0634 -0.1238 -0.3759
23836W        W41360   2.608  10.979   2.575 -0.2609 -0.1181 -0.1653
23837W        W41361   1.924   1.546   2.761  0.0910 -0.0513 -0.1949
23838W        W41362   5.249  15.989  15.786  0.0338  0.2264 -0.0877
23839W        W41363   8.495  11.858  13.829 -0.0659  0.1092  0.0718
23840W        W41364   1.448   3.970  13.187  0.0195  0.2471  0.2097
23841W        W41365   5.439   6.357  13.856 -0.0944 -0.1605  0.3066
23842W        W41366  15.818  10.339  14.345 -0.1203  0.0364 -0.1336
23843W        W41367   3.422  14.846   3.703  0.3453 -0.2145 -0.0551
23844W        W41368   8.569   6.294  13.959  0.0529 -0.0594 -0.1901
23845W        W41369   9.181  17.040   5.651  0.0450  0.0275  0.1845
23846W        W41370  12.719  15.465  13.139 -0.1568  0.3943  0.2038
23847W        W41371   5.676  14.106   0.988 -0.2884 -0.0997 -0.2996
23848W        W41372  16.847   5.208   6.333 -0.1551 -0.0831  0.1306
23849W        W41373  10.073   4.120   0.687  0.1212  0.3993  0.1490
23850W        W41374   6.852   5.618   1.451 -0.0791  0.1106 -0.0603
23851W        W41375   8.006   8.155   2.952  0.1811 -0.0795  0.1262
23852W        W41376  11.120   3.984  13.665  0.1299 -0.2106  0.3961
23853W        W41377  10.174   7.631   4.457 -0.0528 -0.2105 -0.1873
23854W        W41378  15.225   1.593  14.745  0.1549  0.4159  0.1898
23855W        W41379   2.052   5.454  15.093  0.1254 -0.0486  0.0244
23856W        W41380   6.316  10.501   3.874 -0.2021 -0.3471  0.0727
23857W        W41381   4.637  15.164   3.477 -0.2208 -0.0748 -0.0006
23858W        W41382   2.572  16.593   0.568 -0.0058  0.0966 -0.0400
23859W        W41383   5.395   7.271  16.167  0.3495  0.0127  0.1452
23860W        W41384  11.990  13.935   1.533 -0.0590 -0.1296  0.1873
23861W        W41385   0.140  13.501  15.279 -0.1001 -0.1046  0.0260
23862W        W41386  13.048   5.880  16.752  0.3925 -0.1582  0.0512
23863W        W41387  11.882   9.133  16.936  0.3544 -0.0408 -0.1774
23864W        W41388   5.445   8.676  17.672 -0.0596 -0.0088 -0.1574
23865W        W41389  16.044   0.215   0.242 -0.0430 -0.1041  0.0815
23866W        W41390   8.149   9.080   0.712 -0.3783 -0.1803 -0.1437
23867W        W41391  12.189  15.269   5.302 -0.0663 -0.0583  0.2264
23868W        W41392  14.068   2.825  14.525  0.0738 -0.3241  0.2153
23869W        W41393  14.223   8.194   4.963  0.3220 -0.0254 -0.0543
23870W        W41394   1.280  16.751   4.458  0.0382  0.2375 -0.0013
23871W        W41395   6.128   6.354  14.611 -0.0661  0.0270 -0.0837
23872W        W41396   5.829  15.352   1.933  0.0603 -0.0687  0.1297
23873W        W41397  11.431  13.344  12.957 -0.0999  0.0812 -0.0249
23874W        W41398   0.191   2.373   4.771 -0.4854 -0.2749  0.1384
23875W        W41399   4.861  16.786   3.110  0.3821 -0.2210 -0.2302
23876W        W41400   1.727  13.762   4.126  0.2665 -0.0899 -0.1275
23877W        W41401   2.053   0.914  16.625  0.1563  0.3269 -0.1966
23878W        W41402  14.161   9.104  15.305 -0.0398 -0.0197 -0.0153
23879W        W41403  13.995   8.379  14.427 -0.2998 -0.0390  0.0020
23880W        W41404   0.384   0.859   5.343  0.2178  0.0440  0.0350
23881W        W41405  12.996   0.394   4.471 -0.0943  0.1155  0.0575
23882W        W41406   6.701  10.053  14.863 -0.1676  0.0786 -0.1569
23883W        W41407  15.106   5.851   3.482  0.3902 -0.2596 -0.1847
23884W        W41408   4.723  12.602   4.475 -0.0417 -0.1290  0.2254
23885W        W41409  12.437  11.442  14.083  0.0776  0.0605 -0.0646
23886W        W41410   7.674   4.179  14.760 -0.0397  0.0334 -0.1802
23887W        W41411  12.677  14.941  15.472 -0.1419  0.2259 -0.3599
23888W        W41412   5.887  16.208  12.603 -0.1131  0.2255  0.2150
23889W        W41413  11.585  16.099  15.466  0.3288 -0.0389  0.1502
23890W        W41414  15.563   6.052   0.591  0.0795  0.1392 -0.1933
23891W        W41415   7.772   1.724   4.101  0.0363 -0.0912 -0.2992
23892W        W41416   2.946  14.138  13.887 -0.2359 -0.0920 -0.0293
23893W        W41417  13.009   3.428   1.799  0.0516 -0.0667 -0.1592
23894W        W41418   5.775  12.517   4.765  0.1423 -0.0583 -0.0532
23895W        W41419   8.554   0.475  14.600 -0.2134  0.2930  0.1126
23896W        W41420   0.326   1.063   1.665 -0.1689  0.1638 -0.2181
23897W        W41421   4.807   2.174  14.948  0.1450  0.0621 -0.2430
23898W        W41422   6.343   9.766  13.017 -0.0565  0.0035  0.0231
23899W        W41423  11.947  10.119  17.564 -0.0158  0.1798 -0.4225
23900W        W41424   1.652  15.637  12.111 -0.0752  0.0503  0.3582
23901W        W41425  15.136   9.878  14.101 -0.0994  0.0379 -0.1169
23902W        W41426  10.433   6.873   1.220  0.0699  0.3369  0.1587
23903W        W41427  11.869   2.731   0.817  0.0559  0.0632 -0.0179
23904W        W41428   0.226  15.230  16.715  0.2533  0.1727 -0.2805
23905W        W41429  17.156   0.378  14.187  0.0568 -0.1098 -0.0701
23906W        W41430   1.957  16.255   2.002 -0.1068  0.0800  0.0603
23907W        W41431  13.632  13.968  17.195  0.1102 -0.2622  0.1367
23908W        W41432  14.285   8.823   3.558  0.0865 -0.0787  0.1925
23909W        W41433  10.833   0.672   3.588 -0.1972 -0.1125 -0.0117
23910W        W41434  15.975   8.932   1.960 -0.2924  0.0910  0.1382
23911W        W41435  13.447   9.813  13.164  0.2098  0.0001 -0.1640
23912W        W41436  13.429   4.414   2.829 -0.3706 -0.0549  0.2947
23913W        W41437   5.900  10.219   3.702  0.0899 -0.0621 -0.0250
23914W        W41438   4.286  17.105  16.392  0.1106  0.3545 -0.0736
23915W        W41439   4.042   4.630  17.490 -0.1053  0.1003  0.1879
23916W        W41440  12.678   2.907   3.356 -0.1768 -0.3457 -0.1271
23917W        W41441   7.226   7.930  14.967  0.1680  0.0471 -0.1199
23918W        W41442   1.982   3.570  15.110  0.0393  0.0810  0.1344
23919W        W41443  11.323   5.799   1.177 -0.0352 -0.1084 -0.0582
23920W        W41444  11.465   8.608  17.507 -0.0775 -0.2526  0.0918
23921W        W41445   6.995  14.567   1.673 -0.0576  0.1598  0.2256
23922W        W41446  17.071  10.077  17.490 -0.1020  0.3822 -0.0885
23923W        W41447   9.562   1.341  13.147 -0.2413 -0.0085 -0.0600
23924W        W41448  13.437  10.861   6.035 -0.0212 -0.0137  0.1407
23925W        W41449  10.064  13.206  13.977 -0.2705 -0.4630 -0.2039
23926W        W41450   2.301  16.962   4.706  0.0677  0.0367 -0.1445
23927W        W41451   9.722  10.043  14.621 -0.1552  0.1110 -0.2076
23928W        W41452   5.768  11.015  14.737 -0.1700 -0.0565  0.0910
23929W        W41453  12.820  12.531  16.344 -0.1175 -0.0091 -0.0067
23930W        W41454   0.481   6.115  15.734 -0.1465 -0.0437 -0.3791
23931W        W41455   8.239   1.851   1.514 -0.0235  0.0452 -0.1668
23932W        W41456  12.308   6.466  13.842  0.0397 -0.0286 -0.0632
23933W        W41457   5.141  11.153  12.835  0.3147  0.0546 -0.2186
23934W        W41458  13.591   6.299  17.663 -0.1186 -0.0317 -0.0248
23935W        W41459  16.196   2.012  12.673 -0.0113 -0.2217  0.1649
23936W        W41460   7.228   9.667   0.767  0.0409 -0.0081 -0.0906
23937W        W41461  14.330   6.912  17.284 -0.0686  0.0131 -0.0262
23938W        W41462  13.829   2.229  17.316  0.0573 -0.0260  0.0844
23939W        W41463  16.083   4.806   0.410  0.0241  0.3307  0.1303
23940W        W41464   9.356   2.697  17.168 -0.0973  0.0528 -0.2097
23941W        W41465  13.775  10.653   4.775 -0.1686 -0.3937  0.3327
23942W        W41466  14.343   0.650  14.805 -0.2618  0.3796  0.1877
23943W        W41467   8.344  14.437  17.415  0.2781  0.2249 -0.1282
23944W        W41468   9.746   3.513   5.353 -0.1593 -0.2374 -0.1736
23945W        W41469  13.045  16.207   0.331 -0.0366 -0.4784 -0.1659
23946W        W41470   3.248   7.004  14.786  0.3522 -0.1244  0.3418
23947W        W41471  15.752   2.872  14.361 -0.1297  0.0750 -0.1334
23948W        W41472  13.071  12.253   5.374  0.0943 -0.0690  0.2534
23949W        W41473   2.725   0.921   0.446  0.0343  0.1813  0.2665
23950W        W41474  12.311  16.032  12.386 -0.0654 -0.0375 -0.1812
23951W        W41475   4.187   4.685   2.487  0.1817 -0.0750 -0.3363
23952W        W41476   9.676  16.117   2.519  0.0649 -0.0906  0.0796
23953W        W41477   4.474   3.279  11.766  0.0196 -0.2357  0.1288
23954W        W41478  13.950   8.553   2.844  0.0144 -0.0235 -0.1482
23955W        W41479  13.274   1.422   4.437 -0.1553  0.1397  0.3061
23956W        W41480  10.285   8.337   2.950  0.3067  0.3337 -0.1124
23957W        W41481   6.137   1.314   3.167 -0.2298  0.0200 -0.4985
23958W        W41482   9.830  15.339  13.967  0.0964  0.0419 -0.0328
23959W        W41483   1.405  11.557   1.122  0.3368  0.1515  0.0167
23960W        W41484   8.448  17.152   0.500 -0.1296 -0.1278 -0.1235
23961W        W41485   1.727   9.417  12.305 -0.0353  0.0873 -0.0395
23962W        W41486   0.786   8.012   3.570 -0.0016 -0.1890 -0.0672
23963W        W41487   8.042   7.388   5.004 -0.0299  0.1379  0.0780
23964W        W41488  15.421  14.547   0.951 -0.1583 -0.0111  0.2095
23965W        W41489   2.450  14.066  13.122 -0.3676 -0.1752  0.1136
23966W        W41490  16.699   6.722  16.602  0.2578 -0.0415 -0.1529
23967W        W41491   8.006   8.230  14.007 -0.0734  0.3924 -0.1872
23968W        W41492  14.085  15.766  14.964  0.0782 -0.0928 -0.1563
23969W        W41493   1.851   1.096   4.800 -0.0725 -0.3530  0.1735
23970W        W41494   3.229   4.492  13.322  0.0882 -0.2753 -0.2238
23971W        W41495   1.596   3.006   1.791  0.0418  0.1420  0.0543
23972W        W41496  10.881  13.809  13.438 -0.0087 -0.0617  0.0437
23973W        W41497   1.925   6.428   4.105 -0.1871  0.1192  0.2546
23974W        W41498  13.711  12.874   0.260 -0.2076 -0.0335 -0.1291
23975W        W41499  11.535  16.104   1.179  0.1246  0.2567 -0.1357
23976W        W41500  14.317  10.754   3.534  0.0183 -0.3390  0.0690
23977W        W41501  15.820  10.334  15.797  0.0641 -0.1030  0.4087
23978W        W41502   4.425   9.191  14.000 -0.0673 -0.2973 -0.0145
23979W        W41503  13.524  15.915   3.253 -0.1461 -0.0175  0.2301
23980W        W41504   0.473  16.795   0.747  0.0211  0.0383 -0.1513
23981W        W41505   5.582  14.187  15.068  0.0464  0.0791 -0.1836
23982W        W41506   9.174   2.993   1.035 -0.0261 -0.1947  0.0722
23983W        W41507   9.208   2.944  13.665 -0.2393  0.1240 -0.0131
23984W        W41508  16.166  12.253  13.759 -0.0640 -0.0635  0.1761
23985W        W41509   9.646  15.278   2.979  0.1073 -0.1723 -0.2034
23986W        W41510   3.455  13.362   2.696  0.1269 -0.3506  0.2242
23987W        W41511   2.699   0.081   1.948  0.1233  0.1011 -0.0182
23988W        W41512   0.438   9.711   0.446  0.2827 -0.2539 -0.0896
23989W        W41513  14.503   0.465  13.584 -0.0897 -0.0876  0.2151
23990W        W41514  16.324  12.931   1.923  0.0002  0.0657 -0.0755
23991W        W41515   9.355   3.410   2.317  0.2030  0.1398  0.2027
23992W        W41516  16.165   8.673  11.888  0.1824  0.0461  0.2954
23993W        W41517  11.218   8.582   4.263 -0.2352 -0.0593 -0.0169
23994W        W41518   9.464  14.423   0.902 -0.1843 -0.0665  0.1575
23995W        W41519   3.980   1.060  15.456 -0.1399  0.2644 -0.3599
23996W        W41520  12.565  10.807   4.020  0.0325  0.0342  0.1271
23997W        W41521   6.308  13.916   6.179 -0.4348 -0.0975 -0.1479
23998W        W41522   9.123  10.206  13.129  0.1971 -0.2953 -0.0821
23999W        W41523   5.976   7.323   1.210  0.0215  0.2559  0.2210
24000W        W41524  14.162   6.628  15.228  0.0996 -0.4424  0.2674
24001W        W41525   4.458   1.736   2.021 -0.1042  0.1132 -0.1062
24002W        W41526   3.303  11.629  14.756  0.0962 -0.0307 -0.1943
24003W        W41527  15.632   8.403   0.180 -0.2347  0.0072  0.0177
24004W        W41528  14.213  12.543  17.258  0.4070  0.1446  0.0468
24005W        W41529   7.008  11.322  15.082  0.1507  0.2630 -0.1495
24006W        W41530   9.726   4.116  17.433  0.0478 -0.2253 -0.3727
24007W        W41531   7.453   3.495   4.840  0.1736 -0.5182 -0.3335
24008W        W41532  16.440  13.087  14.402  0.2000 -0.1073  0.0599
24009W        W41533   1.021   8.736  15.243  0.0905  0.1954  0.0108
24010W        W41534  14.931   8.640   2.781 -0.0002  0.0203 -0.5668
24011W        W41535  11.829   9.879   3.316  0.2141 -0.1003  0.1377
24012W        W41536  14.598   7.952  12.694 -0.0837 -0.0554  0.2655
24013W        W41537   4.382   7.951  12.628  0.0872 -0.2461 -0.2145
24014W        W41538  15.170   2.078   0.498 -0.0687  0.0930  0.1673
24015W        W41539  13.828   1.256   1.917  0.0017  0.1419  0.0064
24016W        W41540   1.693  13.107   5.671  0.0366  0.2093  0.4278
24017W        W41541   2.227   9.147  16.240 -0.1833  0.0609 -0.0829
24018W        W41542  13.039   6.866   2.409  0.1342  0.0174  0.0820
24019W        W41543  15.473   2.204  15.593 -0.0723 -0.0642  0.1291
24020W        W41544   1.954  12.927   4.725 -0.2235 -0.4007  0.0041
24021W        W41545  16.156   7.219  16.365 -0.4502 -0.0380 -0.1230
24022W        W41546  12.087   0.930  14.468  0.0676  0.2170 -0.0506
24023W        W41547   7.570   2.350   2.285 -0.0623  0.1344 -0.1105
24024W        W41548   6.736   3.575   1.298 -0.2130  0.1583 -0.0618
24025W        W41549   5.252   4.205   2.218 -0.2377 -0.2006  0.0204
24026W        W41550  14.087   6.400  12.417 -0.3468  0.0085 -0.2611
24027W        W41551  15.100   3.736  15.600 -0.3536  0.0368 -0.1378
24028W        W41552   2.174  13.098   5.545 -0.1346 -0.2659 -0.0099
24029W        W41553   1.023  13.082  16.200 -0.1285  0.1470 -0.0532
24030W        W41554  14.127   9.190  12.258  0.0942  0.1652 -0.5003
24031W        W41555  13.431   9.505  15.579  0.2902 -0.2142  0.0408
24032W        W41556  10.681  16.682  16.159 -0.1549  0.0150 -0.3071
24033W        W41557  14.956  10.673  16.601  0.1910  0.0259 -0.3036
24034W        W41558  13.619   9.079  13.737 -0.3436 -0.1856 -0.0615
24035W        W41559   7.183  11.761  13.729  0.0203 -0.0739  0.0725
24036W        W41560   2.070   4.097   2.286  0.0370 -0.0675 -0.0747
24037W        W41561  11.408   3.063  15.641  0.1589  0.1402 -0.0092
24038W        W41562   5.741  12.843  15.457 -0.0165  0.1170 -0.0840
24039W        W41563   3.677  16.156   2.454  0.0301 -0.1292 -0.0414
24040W        W41564   9.127   7.279   3.850  0.3481  0.0944 -0.0217
24041W        W41565  11.426  10.772  14.155 -0.1157 -0.2486 -0.0033
24042W        W41566   2.109  10.362   4.332 -0.0968 -0.0024 -0.1273
24043W        W41567   2.692   7.290   5.595 -0.1365  0.0019  0.2263
24044W        W41568   3.156   1.237  14.773  0.1544  0.0841  0.1750
24045W        W41569   5.443  10.629  14.766 -0.0291  0.1159 -0.3547
24046W        W41570   9.153  14.685  16.061 -0.0074  0.7203 -0.2550
24047W        W41571   6.152   5.097  12.498  0.0947 -0.1235  0.0128
24048W        W41572   8.123   8.555   2.655  0.0741  0.1310  0.0074
24049W        W41573   8.089   0.765   4.354  0.2114 -0.0796  0.3498
24050W        W41574  12.240  14.105   3.244 -0.2289  0.0534 -0.1431
24051W        W41575   3.658  14.436   3.450  0.0830 -0.1328  0.0674
24052W        W41576   6.343  12.723   1.447 -0.1782 -0.0711  0.1671
24053W        W41577   8.990  11.403  16.655  0.0020  0.2013  0.0506
24054W        W41578  15.238   3.483   1.965 -0.0483 -0.1168 -0.1450
24055W        W41579  15.383  15.558   4.645 -0.1088  0.0051  0.0525
24056W        W41580  14.497   2.802  14.780 -0.1070  0.1128 -0.0923
24057W        W41581   2.286  15.610  13.874 -0.0153  0.0575  0.1365
24058W        W41582  11.563   9.878  13.988  0.0629 -0.0379  0.2648
24059W        W41583  17.115   6.129   2.152  0.0995  0.0776  0.0763
24060W        W41584  14.725  12.289   1.883 -0.0942  0.0758  0.0516
24061W        W41585  14.238   7.462   2.776  0.2623 -0.2798  0.0867
24062W        W41586  15.157   6.981  12.969 -0.1766  0.1176 -0.0609
24063W        W41587  11.796  10.396   0.260 -0.2077 -0.3857  0.1147
24064W        W41588   9.101  11.612  15.843 -0.0363  0.1250  0.1368
24065W        W41589  10.378  12.346  14.575 -0.3389  0.2031 -0.0585
24066W        W41590   4.254   6.770  17.221 -0.0182  0.2238 -0.0000
24067W        W41591   1.368   3.954   6.758 -0.0108  0.0421 -0.2717
24068W        W41592   1.556   6.796  16.544 -0.0918  0.0005  0.0136
24069W        W41593   7.947   3.751  15.806 -0.1793  0.0727  0.3492
24070W        W41594   7.004   0.849   1.422  0.4761 -0.3602  0.3183
24071W        W41595  16.932   0.717   4.346  0.1109  0.1462 -0.2860
24072W        W41596  13.937   5.447   0.896  0.0182  0.1312 -0.1483
24073W        W41597  14.860   3.111  16.234 -0.0709 -0.1357 -0.0836
24074W        W41598  15.613  12.806   4.485 -0.5004  0.2489  0.0482
24075W        W41599  10.759   3.645  12.455 -0.0442 -0.2337  0.0735
24076W        W41600  12.386  16.195  17.229  0.1873  0.0101  0.0091
24077W        W41601  16.858   7.857   1.791  0.2958  0.2520  0.1462
24078W        W41602   3.534   3.117   2.913 -0.3375 -0.0531 -0.2527
24079W        W41603  12.407  17.104  17.582 -0.2377  0.0431  0.0994
24080W        W41604   4.278  14.685   3.123 -0.1480  0.0371  0.3342
24081W        W41605  10.184  13.050   3.109 -0.1182 -0.1541 -0.0437
24082W        W41606  13.135   7.985   3.775 -0.3219  0.1915  0.1284
24083W        W41607   8.828  10.664  15.854  0.4849 -0.1407  0.1182
24084W        W41608   6.670   3.298   5.478 -0.1829  0.2954 -0.0310
24085W        W41609  13.487   3.464   0.651 -0.0830  0.0300  0.0558
24086W        W41610   9.915  10.229  16.831  0.0905 -0.0389 -0.2017
24087W        W41611   5.738   1.774  15.320 -0.0349  0.1427  0.4523
24088W        W41612   6.899  16.453  16.375 -0.0729 -0.3450 -0.0827
24089W        W41613  15.539   3.067   4.092 -0.2227  0.0271 -0.0081
24090W        W41614  15.969   9.348   3.636 -0.0628  0.0506 -0.3958
24091W        W41615   2.829  12.793  13.160 -0.2107 -0.0315  0.4082
24092W        W41616  11.643  15.840  16.729  0.1822  0.2490 -0.0980
24093W        W41617   0.613  15.929  15.883 -0.0069 -0.3265 -0.0140
24094W        W41618   0.678  14.970  13.565 -0.0571  0.0358 -0.3140
24095W        W41619   6.958  13.552  17.399 -0.0259  0.3408  0.0077
24096W        W41620  16.102  11.532  16.070  0.0159 -0.2797  0.1569
24097W        W41621   0.163  13.724  17.416 -0.0922 -0.0276  0.0846
24098W        W41622  13.569   7.636   5.001  0.0365 -0.0533  0.0346
24099W        W41623   2.097   3.501   1.472  0.0800 -0.1067 -0.3071
24100W        W41624   7.319  13.952   3.255  0.0391  0.0632 -0.1245
24101W        W41625  15.651   2.698   0.487  0.1736  0.3192 -0.0139
24102W        W41626   9.032   9.632  16.938  0.1495  0.2132  0.1612
24103W        W41627  12.536   4.929   2.573 -0.2017 -0.0354  0.1939
24104W        W41628   2.385   1.993   0.924 -0.1582 -0.2203 -0.2149
24105W        W41629   6.674  10.033  17.663  0.1146 -0.1435 -0.1836
24106W        W41630  15.557   7.465  15.617  0.0673 -0.1926  0.1337
24107W        W41631   4.278   2.752   1.323 -0.1539 -0.1686 -0.1315
24108W        W41632   5.968  12.188   6.011 -0.2102  0.0085  0.1911
24109W        W41633  13.445   8.897   2.187  0.1460 -0.0717 -0.3013
24110W        W41634   6.302   4.643   5.577  0.0520 -0.3045  0.2614
24111W        W41635  14.940   6.877  15.345 -0.0581  0.0500 -0.0589
24112W        W41636   6.113  12.721  15.883 -0.2094 -0.2720 -0.2256
24113W        W41637   3.861   6.638  17.549  0.1805  0.1465 -0.2103
24114W        W41638   8.636   0.559  14.055  0.1635 -0.3458 -0.0796
24115W        W41639   7.619  16.341  16.954 -0.1717  0.1145  0.1198
24116W        W41640   1.935  12.597   2.662 -0.0544  0.1504 -0.0849
24117W        W41641   8.114  11.572  15.681 -0.2420  0.1111  0.0426
24118W        W41642   6.409   4.672  13.504  0.0975 -0.0668  0.0261
24119W        W41643   7.056  15.821   0.452 -0.0932 -0.0850  0.1112
24120W        W41644  16.055   1.337   1.942 -0.1388 -0.1634 -0.2268
24121W        W41645   6.573  14.604   4.465 -0.3308 -0.0337  0.0833
24122W        W41646  13.781  13.649   2.159 -0.2180 -0.0532 -0.0276
24123W        W41647   1.680   5.993  13.804  0.2061  0.0779 -0.2323
24124W        W41648   3.789   2.003   2.909 -0.2362  0.0169  0.3097
24125W        W41649  11.031  16.761  12.754  0.1668  0.1812  0.1095
24126W        W41650   1.923   5.953   1.450 -0.1394 -0.1881 -0.1440
24127W        W41651   1.013  17.112   2.487 -0.3654  0.0334  0.1036
24128W        W41652   9.300   3.124  15.181  0.0071  0.3037 -0.2942
24129W        W41653   4.209   3.873  16.343 -0.0316  0.0543 -0.2019
24130W        W41654  14.280   1.989   3.113  0.2164 -0.3962 -0.0600
24131W        W41655  16.768   9.283   3.018  0.0101  0.0201  0.1544
24132W        W41656   0.224  13.174   1.463 -0.2384 -0.2601 -0.0253
24133W        W41657   1.932  13.533  13.670  0.3792 -0.1392 -0.0108
24134W        W41658  15.917  10.453  13.820 -0.0747  0.1224  0.0350
24135W        W41659   1.081  14.957   0.774  0.1961  0.1283  0.3773
24136W        W41660  10.522   1.057   4.863  0.1401 -0.1742  0.0152
24137W        W41661  17.061  15.213  15.082  0.3130  0.0556 -0.0246
24138W        W41662   6.346  11.923  15.280  0.0206  0.0488  0.0257
24139W        W41663   9.641  12.929   3.603 -0.0664 -0.1604  0.2275
24140W        W41664   8.783   5.845  14.757  0.2896 -0.2493  0.0164
24141W        W41665   5.563   0.762  15.395 -0.1621 -0.2036 -0.0515
24142W        W41666  16.771  14.345  16.487  0.0654  0.0091  0.2816
24143W        W41667   5.758   4.374  14.671  0.0890  0.1354  0.1938
24144W        W41668  11.589  12.714   1.143 -0.0037 -0.2319 -0.2109
24145W        W41669  16.263   6.670  15.657  0.3061 -0.0656  0.1523
24146W        W41670  14.974  15.644   2.387  0.2145  0.3652  0.2270
24147W        W41671  16.124  11.854  17.641  0.1082  0.2556  0.1332
24148W        W41672   1.927   8.420   1.119 -0.0895  0.1809 -0.0656
24149W        W41673  16.463  13.183   1.202  0.0439 -0.0395 -0.2818
24150W        W41674   6.311   4.936  14.264  0.0110  0.2540  0.0295
24151W        W41675  14.001  11.566   0.839 -0.0783  0.0362  0.0131
24152W        W41676  16.785   6.633   2.967  0.2313 -0.0516 -0.3356
24153W        W41677   7.865  13.208   3.459 -0.0121  0.2989 -0.0644
24154W        W41678   5.395  14.069   4.675  0.0841 -0.2274  0.3662
24155W        W41679  11.171   4.443   4.319  0.0965 -0.1358 -0.1411
24156W        W41680  13.193   0.973   0.852  0.1389 -0.1990 -0.1150
24157W        W41681  11.607  14.463   2.438 -0.0517  0.2756 -0.3264
24158W        W41682  11.544   6.217   5.590  0.3840 -0.0875 -0.1467
24159W        W41683   7.333   9.599   1.691  0.3299  0.2469  0.2301
24160W        W41684  13.611  12.025   4.143 -0.0807  0.0483 -0.0745
24161W        W41685  14.795   2.576   1.840 -0.2947 -0.0019 -0.0847
24162W        W41686  15.655   0.179   1.453  0.0299  0.1115 -0.1345
24163W        W41687   1.862   4.411   5.407 -0.1432 -0.0477 -0.1370
24164W        W41688  17.131   8.370   3.294 -0.1763 -0.3898 -0.1337
24165W        W41689   6.514   0.871  17.451 -0.0283 -0.0401  0.0804
24166W        W41690   8.172  12.897   2.056 -0.0635  0.2474 -0.0095
24167W        W41691   1.400  10.767   1.556 -0.2041 -0.0200 -0.0729
24168W        W41692  13.123   2.212   4.896 -0.1109 -0.0603  0.2639
24169W        W41693   3.132  14.094  16.829  0.1595  0.0580 -0.0163
24170W        W41694  15.354   7.522   5.032 -0.1739 -0.2670  0.2444
24171W        W41695  14.779  13.859   4.859 -0.1614 -0.1021 -0.1204
24172W        W41696   2.892  13.499   2.635 -0.1479 -0.1173 -0.3678
24173W        W41697  15.463   4.927   3.101 -0.1599  0.0363  0.5239
24174W        W41698  11.018   5.882   2.163  0.2795  0.0583 -0.1787
24175W        W41699  10.208  14.697  15.549  0.2410  0.0123  0.1279
24176W        W41700   4.199   8.795   1.099  0.1145 -0.0325  0.0697
24177W        W41701   3.566  14.548   5.053 -0.2385  0.1907 -0.1213
24178W        W41702  16.906   4.388  12.105  0.3021 -0.1773 -0.2533
24179W        W41703   7.798   8.504  16.508 -0.0157 -0.0448 -0.2104
24180W        W41704  13.039  15.718   0.449  0.1740 -0.1281  0.1325
24181W        W41705   7.702   4.161  11.941  0.0882  0.2205 -0.0087
24182W        W41706  10.697  12.349  16.425  0.0574 -0.1505  0.3339
24183W        W41707   4.291  14.018   1.476 -0.0479 -0.0186  0.5588
24184W        W41708   5.885   9.504  14.003  0.2272 -0.2037  0.0072
24185W        W41709  15.222   4.683  15.791 -0.0301 -0.1464  0.1782
24186W        W41710  12.624  17.070   2.957  0.0944  0.0670  0.4370
24187W        W41711  16.103  10.026  11.436  0.1187 -0.2347  0.0810
24188W        W41712  16.772  11.888   0.638 -0.1393  0.1169 -0.0845
24189W        W41713   6.504   9.518   2.796  0.0990  0.0925  0.3350
24190W        W41714   2.115   9.437  12.704  0.1643 -0.3002  0.1179
24191W        W41715  10.612  13.751   1.662 -0.2013  0.0341 -0.1089
24192W        W41716  13.626   6.583  12.475 -0.1722 -0.0669 -0.1090
24193W        W41717   8.134  13.060   3.903 -0.1249  0.1157 -0.1552
24194W        W41718   5.974  11.406  17.105  0.1416  0.1958 -0.2261
24195W        W41719   9.622  14.052   3.205 -0.0336  0.1352  0.0833
24196W        W41720   4.666   7.918  17.621  0.0243 -0.0553 -0.3652
24197W        W41721  15.717  14.341   1.304  0.1454 -0.1909 -0.0581
24198W        W41722  16.979   0.013  11.360 -0.3722  0.0403 -0.0141
24199W        W41723  16.992  15.097   2.677  0.2209  0.2183 -0.0406
24200W        W41724   0.531  16.501  13.356 -0.0483  0.0538  0.1442
24201W        W41725   4.624   8.373   4.707  0.1316  0.0250  0.0825
24202W        W41726   4.411   2.452  14.765  0.1218  0.1046  0.0076
24203W        W41727  13.898   1.479  15.326  0.1117 -0.1829 -0.0964
24204W        W41728  10.290   1.914  17.032 -0.1636 -0.4792  0.0060
24205W        W41729  10.534   8.614  17.256 -0.1781  0.0937  0.2741
24206W        W41730   4.019   7.826   2.574  0.1602 -0.1096  0.1716
24207W        W41731  12.804  13.115   3.572  0.1628  0.0125  0.2638
24208W        W41732   9.573   1.457  17.414 -0.1748 -0.0701 -0.2088
24209W        W41733   3.052  14.467  13.536 -0.0010 -0.0039 -0.0799
24210W        W41734   0.272   4.015   1.730  0.0444  0.1737 -0.5079
24211W        W41735   0.654   9.311   1.126 -0.1466 -0.0915 -0.0211
24212W        W41736   7.008  14.628  13.124  0.1478 -0.0182 -0.3331
24213W        W41737  15.063   0.990   2.396  0.4343  0.0562  0.0016
24214W        W41738   6.248  15.309  13.688  0.0980 -0.1377  0.2679
24215W        W41739  11.328   5.821  17.725 -0.2418  0.2559  0.1495
24216W        W41740   7.976  11.831   4.729  0.2162  0.2709  0.0562
24217W        W41741  11.652   4.582   0.592  0.0364  0.0813 -0.0138
24218W        W41742   7.575  11.142  15.777  0.2449 -0.0274 -0.1050
24219W        W41743   4.254  13.091   2.068 -0.2353  0.1801  0.1798
24220W        W41744   8.448   2.744   3.249  0.0299 -0.1077 -0.2738
24221W        W41745  10.100   1.245   5.784 -0.0928 -0.0079 -0.1590
24222W        W41746   6.140  16.010   3.274  0.1453  0.0151  0.1681
24223W        W41747   3.063   2.328   4.481  0.1077  0.0343  0.1132
24224W        W41748   9.745   7.374  14.507  0.0390 -0.0762  0.0055
24225W        W41749  14.785   9.344   0.658  0.1737  0.2027 -0.2076
24226W        W41750  15.661   4.251  14.376  0.1676  0.0480 -0.1290
24227W        W41751   5.610   6.314   2.226 -0.1376 -0.1259  0.0598
24228W        W41752   8.846  15.307  14.094 -0.1575 -0.1612 -0.1328
24229W        W41753  10.439   7.272   1.484 -0.0328  0.0422  0.3338
24230W        W41754  12.007   5.122  16.233 -0.1271  0.1957 -0.1200
24231W        W41755   4.954   0.204   4.318  0.0192  0.0990  0.0298
24232W        W41756  13.748  16.467   2.329  0.1091 -0.0364  0.0885
24233W        W41757  12.417  14.811  14.361 -0.0389  0.5563 -0.1305
24234W        W41758   7.987   1.302  13.755  0.3972 -0.0896  0.0529
24235W        W41759   2.558   8.974  15.264  0.0385 -0.2400  0.0219
24236W        W41760   1.106   1.802   2.194  0.0878  0.2840 -0.0198
24237W        W41761   1.583   3.865  14.415  0.3530 -0.0774 -0.3474
24238W        W41762  15.700   0.441   1.057 -0.1717 -0.1084  0.1246
24239W        W41763   7.812   8.154   3.461 -0.0503  0.1550  0.0174
24240W        W41764   1.012   6.888  15.234 -0.1574 -0.0843 -0.0280
24241W        W41765   7.189   0.760  12.668 -0.0718 -0.0112 -0.0403
24242W        W41766   6.395   6.975   3.935 -0.1202 -0.0348  0.1174
24243W        W41767  11.300   2.627  14.854 -0.1222  0.1053  0.0500
24244W        W41768  10.695  11.361  15.392 -0.2631  0.0186  0.1503
24245W        W41769  12.214  11.887  16.830 -0.1999  0.3566  0.1228
24246W        W41770   1.028  13.950  15.412 -0.2027  0.1557 -0.0028
24247W        W41771   7.931   7.840  14.929  0.0753  0.3263 -0.1374
24248W        W41772   9.221  16.833  14.736  0.0083 -0.3120 -0.2359
24249W        W41773   6.912  11.940   0.717  0.0090  0.0759 -0.1223
24250W        W41774   5.003  13.833   2.195  0.1039 -0.0848 -0.0062
24251W        W41775   0.998   5.891  17.538 -0.5388 -0.2389  0.1252
24252W        W41776   7.599   8.381  11.861  0.2420  0.2486 -0.0052
24253W        W41777   3.282  12.607   2.050  0.0199 -0.0466  0.1779
24254W        W41778  10.562  16.508   4.416 -0.0815  0.0559  0.0709
24255W        W41779   7.743   7.907  12.332  0.0103 -0.1388 -0.0582
24256W        W41780  13.587   3.824   3.956  0.0172 -0.0299  0.0410
24257W        W41781   1.472  10.231   2.563  0.0639  0.0149  0.0517
24258W        W41782   9.588  14.701   4.087 -0.0454 -0.2149 -0.3002
24259W        W41783  14.856   5.684  17.622  0.1695  0.0420  0.0541
24260W        W41784   4.439   0.517  13.693 -0.0818 -0.1723 -0.1529
24261W        W41785   7.756  16.345   3.706  0.0191 -0.2190 -0.1439
24262W        W41786  10.194   7.806   1.485 -0.3263  0.2089 -0.0123
24263W        W41787   9.963  13.312  14.974  0.0080 -0.0272  0.0359
24264W        W41788  14.562   6.917  14.165 -0.3224 -0.3601  0.0859
24265W        W41789  12.153   5.357   2.735  0.1458  0.2595  0.1645
24266W        W41790  11.334  12.140  15.684 -0.1492  0.1004  0.3960
24267W        W41791  13.751   0.061  15.080  0.1523  0.0082  0.2680
24268W        W41792   9.282   4.291   2.144 -0.0313  0.3560  0.2184
24269W        W41793  14.752   3.242  13.066  0.3676 -0.0536 -0.1735
24270W        W41794   8.259   7.443  13.373 -0.0466  0.0680  0.3978
24271W        W41795   7.938   4.884  16.871  0.0814 -0.2121  0.1415
24272W        W41796   0.499   9.375  14.654  0.2107  0.0882  0.0313
24273W        W41797   3.245   7.888  16.797  0.0173 -0.0712 -0.1020
24274W        W41798  12.273   4.634  12.532  0.5195 -0.1468 -0.3064
24275W        W41799  13.410   2.715  15.133 -0.1290  0.1284  0.1545
24276W        W41800  12.089   9.897   5.270 -0.1321  0.0203  0.0415
24277W        W41801   5.414   4.686  14.986  0.1123 -0.2048 -0.0000
24278W        W41802   7.415  14.478  12.778  0.1294  0.0858  0.0249
24279W        W41803  13.399   4.724   5.265  0.1884  0.0834 -0.0827
24280W        W41804   2.320  12.809   2.953  0.0508 -0.0089 -0.4599
24281W        W41805   9.053   0.979  13.275 -0.0223  0.1924 -0.1044
24282W        W41806  12.622   6.924  16.665  0.0245  0.3384 -0.0083
24283W        W41807   5.226   1.653  16.787 -0.2815 -0.0049  0.1491
24284W        W41808   9.940  11.084   5.322 -0.2551 -0.1371 -0.1104
24285W        W41809  10.032   8.476  13.978  0.2049  0.0543  0.2645
24286W        W41810   3.348   3.474  14.230 -0.2828 -0.0964  0.2875
24287W        W41811   7.328  13.173   4.133 -0.1839 -0.0429  0.0424
24288W        W41812  10.567   7.848   0.260 -0.1419 -0.5493 -0.1911
24289W        W41813  14.284   7.548   3.260 -0.1112 -0.0880  0.2961
24290W        W41814   7.178   2.676   5.243  0.0775 -0.2196  0.0006
24291W        W41815  15.286   8.088  14.271  0.1359 -0.2584  0.0045
24292W        W41816  10.906   7.075   1.497 -0.0943  0.2092  0.1769
24293W        W41817   6.695   1.239   4.431  0.2044 -0.1421 -0.2546
24294W        W41818  13.718   9.560   2.330 -0.1618 -0.1682  0.2416
24295W        W41819   3.991   5.982   5.826 -0.0329  0.0700 -0.0665
24296W        W41820   6.482   5.673  13.806  0.0074 -0.2632  0.0741
24297W        W41821   9.433  15.266   0.820  0.0801  0.1843  0.1131
24298W        W41822  15.768   3.213   2.035  0.1125 -0.1441  0.0744
24299W        W41823   2.446   4.750   0.305  0.2111 -0.0577  0.1185
24300W        W41824   2.381  16.119   0.395 -0.2430  0.1980 -0.1455
24301W        W41825  15.943  11.661   1.506 -0.2465  0.0469  0.2058
24302W        W41826  14.105  11.665   1.618  0.0694  0.0021 -0.1378
24303W        W41827  16.268  16.576  14.538 -0.1559 -0.0547  0.0577
24304W        W41828   1.346   2.044  14.558 -0.0110  0.0753 -0.2297
24305W        W41829  10.255   9.037   5.034 -0.3544 -0.1453  0.0705
24306W        W41830   6.890  13.633  15.129  0.2424 -0.0867 -0.0512
24307W        W41831   2.558   6.831   3.431 -0.0641 -0.0096 -0.3032
24308W        W41832   8.055   6.414   3.222  0.1659  0.1136  0.2182
24309W        W41833  11.414   2.626   4.985 -0.0002 -0.0031  0.0820
24310W        W41834   8.728  12.550   4.418  0.0652  0.0469  0.3595
24311W        W41835   7.260   2.258  16.234 -0.0253  0.1974  0.1546
24312W        W41836  13.000  10.536   4.254  0.1339  0.1089 -0.0939
24313W        W41837   7.754   0.291   3.332  0.0674 -0.2428  0.2092
24314W        W41838   8.798   9.719   4.612  0.2248 -0.1519  0.0285
24315W        W41839   6.554  10.103  15.576  0.0727 -0.0599  0.2558
24316W        W41840  11.861  13.929   0.665  0.0087  0.3089 -0.2081
24317W        W41841  11.695   3.080   3.950  0.0952  0.1945 -0.1452
24318W        W41842  14.225  14.606  17.004  0.1318  0.0047 -0.1357
24319W        W41843   5.361   9.029  13.047 -0.3023 -0.3856  0.2475
24320W        W41844  13.928   3.205  11.976  0.1394 -0.2348  0.1149
24321W        W41845  15.022   2.167  15.895  0.3192  0.2959  0.2000
24322W        W41846   5.167   1.934   4.930 -0.1791 -0.2239  0.3649
24323W        W41847  10.752   9.010   1.673  0.0169  0.2651 -0.0114
24324W        W41848  15.447   5.824   2.580  0.0401 -0.0862  0.3481
24325W        W41849  11.562   6.921   2.213 -0.0421 -0.2698 -0.2084
24326W        W41850   6.282   8.175   3.702 -0.0402 -0.1351  0.1814
24327W        W41851  11.392   7.956   0.494 -0.0691 -0.2702  0.0875
24328W        W41852   4.665   9.990   2.763 -0.1222 -0.3338  0.0210
24329W        W41853  13.972  10.434   3.502  0.1911  0.1315 -0.0348
24330W        W41854  11.130  12.897  12.798  0.0194 -0.0871 -0.3747
24331W        W41855  14.834   5.045  13.038 -0.0771 -0.2292  0.1133
24332W        W41856   0.810   0.131   0.616 -0.1850 -0.1081  0.2002
24333W        W41857   5.000  14.583  13.487 -0.1733  0.1075  0.1467
24334W        W41858   0.684   3.354   1.746  0.2411  0.0859 -0.1435
24335W        W41859  12.090   8.493   2.562  0.0817 -0.1307  0.3923
24336W        W41860   0.304   2.832   5.461  0.1019  0.2058  0.1364
24337W        W41861   6.946  14.493   0.024  0.1119  0.0082 -0.0119
24338W        W41862  14.923  15.445   0.280  0.2382 -0.2215 -0.1506
24339W        W41863  10.151  15.786   0.111  0.3363 -0.4390 -0.0358
24340W        W41864  13.234  14.067   5.106  0.0229 -0.0695 -0.1890
24341W        W41865   7.502   9.412  13.377  0.2836 -0.0329 -0.1723
24342W        W41866   8.648  12.198   2.611 -0.0535 -0.2193  0.1897
24343W        W41867   6.061  15.008   1.311  0.0829 -0.1839 -0.0354
24344W        W41868  11.274   7.733   2.283 -0.0120 -0.0492  0.2059
24345W        W41869   0.476  13.716   1.121  0.2015  0.0912  0.0160
24346W        W41870   8.717   6.763   1.593 -0.1329 -0.0596 -0.0473
24347W        W41871   4.217  12.217  15.928 -0.0172  0.2769  0.0801
24348W        W41872   4.155  14.865  17.125 -0.1669  0.1272 -0.0530
24349W        W41873   4.655   4.976   4.769  0.0777  0.2080 -0.1680
24350W        W41874  11.284  14.489  13.874  0.1838  0.1618  0.1287
24351W        W41875  13.060   4.062  17.369 -0.0026  0.2118 -0.0424
24352W        W41876  11.905  12.943  13.624  0.0943  0.0498  0.1198
24353W        W41877  12.240   5.086  15.070 -0.0883 -0.0753 -0.0401
24354W        W41878  14.870  16.743  13.191  0.0870  0.0504  0.0778
24355W        W41879   2.008   2.468   4.905 -0.1677 -0.0660 -0.1863
24356W        W41880   9.528  10.336  15.114  0.4346  0.1555 -0.1925
24357W        W41881   5.845   9.616  16.094 -0.0097 -0.1464  0.1243
24358W        W41882   8.574  17.066  15.453  0.0479  0.0152 -0.1152
24359W        W41883   1.757   7.810   3.450 -0.0310 -0.1462 -0.1373
24360W        W41884   6.057   1.876  16.916  0.0240  0.0827  0.0468
24361W        W41885   4.664  15.349  13.193  0.1688  0.1335  0.0997
24362W        W41886   3.109  16.728  12.554 -0.0276 -0.1924  0.3444
24363W        W41887   5.561  16.458  12.862  0.0294  0.1022 -0.1272
24364W        W41888   7.646   7.876  13.217 -0.3509 -0.1255  0.0829
24365W        W41889   8.928   3.311   4.695  0.1605  0.1033 -0.0955
24366W        W41890  14.050   2.353   5.449 -0.1083  0.2826 -0.0250
24367W        W41891   7.082   6.475   0.044 -0.1022 -0.1074 -0.0243
24368W        W41892   3.396  10.373  12.204  0.0636  0.1392  0.1830
24369W        W41893  11.403   8.345  15.680  0.3033  0.3097 -0.0527
24370W        W41894   5.906   9.988  16.939 -0.0597  0.0486  0.2251
24371W        W41895   7.296  12.679  13.439 -0.0861 -0.1609  0.1019
24372W        W41896  10.921   9.884   3.746 -0.1031 -0.0169 -0.0707
24373W        W41897  13.923   0.742   6.129 -0.1860 -0.1607 -0.0767
24374W        W41898   1.759   7.102  16.217 -0.2473  0.1339  0.1945
24375W        W41899   0.552   3.083  16.876  0.3042  0.1276  0.0750
24376W        W41900   7.198   4.976   5.216 -0.1312  0.0747  0.0059
24377W        W41901  14.814  16.135  13.919  0.2649  0.4309  0.0982
24378W        W41902  10.600   5.213   2.763 -0.0898 -0.3725 -0.0484
24379W        W41903   1.308  14.353  17.304 -0.0425  0.0866 -0.1446
24380W        W41904   8.583  13.804  13.020 -0.0426  0.1144 -0.0795
24381W        W41905   5.536  16.060   0.766  0.1545 -0.1949 -0.2067
24382W        W41906   8.786   5.861  15.511 -0.0660 -0.0497 -0.0348
24383W        W41907   8.641  12.220   1.969 -0.0006  0.0175 -0.0087
24384W        W41908   6.848   3.057   1.461 -0.0507 -0.0266 -0.0297
24385W        W41909  12.457   2.341  13.652 -0.0298  0.0782  0.1669
24386W        W41910   5.860   3.019   2.409  0.0301  0.1147 -0.0145
24387W        W41911   9.379   4.950  16.279  0.0824 -0.0444 -0.0998
24388W        W41912   1.283   7.586  15.933 -0.3002  0.0735  0.1149
24389W        W41913  10.424  14.321  12.429  0.0266 -0.1093  0.0252
24390W        W41914   8.108   9.168  16.152 -0.0153  0.1058  0.1197
24391W        W41915   3.236   6.134  16.823  0.0050  0.0257 -0.0229
24392W        W41916   0.489  13.642  14.810 -0.5387  0.0886  0.0609
24393W        W41917  16.063  13.274   2.195 -0.0276  0.2222  0.0132
24394W        W41918   1.847  13.691   0.996 -0.1446  0.0437 -0.2543
24395W        W41919   9.499  16.624   5.853 -0.1540  0.0030  0.2618
24396W        W41920   4.397   3.185   1.060 -0.1142  0.0684  0.3061
24397W        W41921   7.722  12.469   1.574  0.1079  0.0005  0.0200
24398W        W41922   0.156  15.690  12.333  0.1262 -0.2207  0.0137
24399W        W41923  12.079  15.379  17.472 -0.0080 -0.1428  0.0522
24400W        W41924  13.446  12.316   1.139  0.0093 -0.0585  0.1367
24401W        W41925   6.166  12.825   0.915  0.3446 -0.2128  0.1047
24402W        W41926   7.720   0.429   1.764 -0.1492 -0.0732 -0.0506
24403W        W41927  12.589   2.697  12.899 -0.1007 -0.0885  0.0658
24404W        W41928  16.057  16.219  15.935  0.3266  0.0955 -0.0535
24405W        W41929   9.914  12.103   3.206  0.3559  0.0513  0.0194
24406W        W41930  13.941  10.769   2.343  0.0399 -0.1658 -0.2905
24407W        W41931  13.173  15.275  14.691 -0.0507 -0.0238  0.1199
24408W        W41932  13.910   5.361  12.184 -0.3103  0.0242 -0.3518
24409W        W41933  15.213   0.427   1.382  0.1910  0.3866 -0.3153
24410W        W41934   4.847   0.184  14.727 -0.1299 -0.1880 -0.3034
24411W        W41935   0.916  10.679   5.237  0.0650  0.2380 -0.0975
24412W        W41936   7.268  14.944   1.339  0.1793 -0.3431  0.2885
24413W        W41937  10.925   0.256  13.606  0.0175  0.0653  0.2040
24414W        W41938  16.388   1.024  14.058  0.2161 -0.1592 -0.0583
24415W        W41939   4.962  15.047  14.893 -0.1740 -0.0340  0.0189
24416W        W41940   8.431   1.631  13.773  0.0571 -0.0292 -0.2397
24417W        W41941  13.741   5.854   1.556  0.0663 -0.2496  0.0768
24418W        W41942   0.004  11.033   4.784 -0.0506 -0.0834  0.0710
24419W        W41943  12.222  13.243  15.939  0.0913  0.0365 -0.3254
24420W        W41944   4.430  15.471   1.995  0.0308  0.1734 -0.2699
24421W        W41945  16.409  15.966  12.318 -0.2745  0.0242 -0.5348
24422W        W41946   4.636   0.007  16.700 -0.2270 -0.0836 -0.2039
24423W        W41947  10.246   4.777   2.792  0.0152 -0.2417  0.3045
24424W        W41948  16.008  16.835   4.854 -0.2285  0.1459 -0.2460
24425W        W41949  14.015  15.873  13.938 -0.0716  0.1424 -0.0159
24426W        W41950  13.409  14.973  13.906  0.1540  0.3176 -0.2020
24427W        W41951   2.735   6.421   3.199 -0.1151  0.1854  0.2734
24428W        W41952   5.212   8.290   3.458  0.1349 -0.1599 -0.0603
24429W        W41953  10.161   5.388   2.736 -0.0292  0.0086 -0.0406
24430W        W41954   9.112  13.818  17.004  0.0760 -0.0406 -0.1104
24431W        W41955  17.089  16.727  12.622  0.0456 -0.1663  0.0850
24432W        W41956  12.338  16.565  14.567  0.1822 -0.1055 -0.2490
24433W        W41957   9.896   2.185   2.494 -0.1955  0.2903  0.0797
24434W        W41958  13.047   7.989  13.165 -0.1238 -0.1059 -0.2654
24435W        W41959   1.365   7.787  13.005 -0.2908 -0.1243  0.1746
24436W        W41960  14.741   6.940   5.035  0.0915  0.2123  0.0576
24437W        W41961   0.019   9.574  17.438 -0.0477  0.0528  0.3176
24438W        W41962   7.603   9.372   0.722  0.3115  0.0434 -0.6012
24439W        W41963   4.342  15.177  17.527 -0.2282 -0.0396 -0.2410
24440W        W41964   2.947   7.576  15.809 -0.0395 -0.0229 -0.0312
24441W        W41965   9.105   1.547  13.374 -0.0032 -0.0500  0.0798
24442W        W41966   8.616  15.127  12.873  0.1265  0.4497 -0.1030
24443W        W41967   2.184   5.335  15.654  0.2491  0.0250 -0.0555
24444W        W41968   8.978  16.681  17.349  0.0968  0.0265 -0.3006
24445W        W41969  12.176  10.129  16.678 -0.1613  0.1662  0.1387
24446W        W41970   6.347   9.404  16.155  0.3797  0.0766 -0.0913
24447W        W41971   4.544   7.339   4.445  0.2894  0.1459  0.0435
24448W        W41972   7.365   8.504  14.197 -0.3155 -0.1465 -0.0233
24449W        W41973   0.409   7.934   1.230 -0.0314  0.0305  0.0599
24450W        W41974   7.576  14.636   5.263 -0.3385  0.1884 -0.0113
24451W        W41975   9.480   5.538  13.152 -0.2824  0.0705 -0.0005
24452W        W41976   3.773   7.122   2.854 -0.2390 -0.2073  0.2271
24453W        W41977  14.753   0.095   1.483  0.1593 -0.0745  0.1980
24454W        W41978  12.967   9.635  14.769  0.0723 -0.4672  0.1552
24455W        W41979  15.004  16.861   2.888 -0.1254 -0.0785 -0.1600
24456W        W41980   7.697   2.170  17.493 -0.1889  0.0689 -0.1368
24457W        W41981   7.121   9.188   0.782  0.1467  0.2068 -0.1059
24458W        W41982  12.258   2.373  15.975  0.3062  0.0694 -0.2581
24459W        W41983   4.827   4.661  16.560 -0.0927 -0.1849 -0.1412
24460W        W41984  15.764   4.953   1.236  0.0343  0.1988  0.1072
24461W        W41985   4.593   2.467   2.724 -0.0433  0.0173 -0.0662
24462W        W41986  13.956   1.682   4.902  0.3444  0.0622  0.1941
24463W        W41987   6.928   8.703  15.740  0.0736 -0.0016 -0.0360
24464W        W41988   3.341   0.402  15.638  0.1705 -0.0712  0.3485
24465W        W41989   3.756  15.998   1.232  0.0201 -0.1636 -0.2053
24466W        W41990  10.447   5.859   2.614 -0.0142  0.1649 -0.1630
24467W        W41991   1.672   1.838   2.344  0.0623  0.2023  0.2434
24468W        W41992  11.982  14.443   2.956  0.1230 -0.3199  0.2122
24469W        W41993   3.733   2.848  16.300 -0.0647 -0.2169  0.1004
24470W        W41994  14.459   5.287   1.082  0.1068  0.4086 -0.1696
24471W        W41995   9.714   1.748   2.376 -0.1242 -0.1021 -0.0158
24472W        W41996   3.675  10.272   5.508 -0.2313  0.1709  0.0548
24473W        W41997   2.604   0.848  13.312 -0.0954 -0.0127  0.3236
24474W        W41998  17.040   2.240  15.073  0.0700  0.4363 -0.2346
24475W        W41999  15.939   4.535  12.680  0.0727 -0.0854  0.3276
24476W        W42000  12.753   9.137  16.066 -0.2240  0.1757 -0.0490
24477W        W42001   4.437   7.260   3.853 -0.0326 -0.1040 -0.1117
24478W        W42002   0.731  13.658  12.454  0.0716 -0.0111 -0.0584
24479W        W42003  10.435  14.843   0.951 -0.0994 -0.0245 -0.2004
24480W        W42004   1.962   9.172  14.527  0.1664  0.1703 -0.1842
24481W        W42005   8.909  16.413  14.822 -0.0262 -0.1047 -0.2494
24482W        W42006   6.181  15.209   5.364 -0.2021 -0.2904  0.1879
24483W        W42007  10.825   8.974   4.783 -0.0223 -0.1238  0.0176
24484W        W42008   7.641   8.653   3.439 -0.0890  0.2008 -0.1305
24485W        W42009  11.524   3.230   5.301 -0.0420  0.0606  0.0608
24486W        W42010   1.262  10.504   1.993 -0.2137 -0.1144 -0.0748
24487W        W42011   6.546   3.865  12.995 -0.2883  0.1614 -0.2182
24488W        W42012   1.662   7.532  13.923  0.2336  0.1391 -0.3267
24489W        W42013  11.867   2.555  16.263 -0.0711  0.2074 -0.1131
24490W        W42014   3.793  16.421   0.166  0.0554 -0.1260  0.1274
24491W        W42015  10.582  13.183   5.368 -0.2547  0.0796  0.2785
24492W        W42016   7.925  11.270  16.116 -0.1926 -0.0055 -0.2712
24493W        W42017   8.970   7.429  12.007  0.1895  0.1585 -0.0099
24494W        W42018  10.633   1.639  12.442  0.0272  0.2499 -0.0027
24495W        W42019   3.316  11.470   4.952 -0.3617  0.1315 -0.1069
24496W        W42020  11.561   0.359   1.922 -0.2086  0.1375 -0.2609
24497W        W42021   4.494   6.303   5.546  0.1180 -0.2887  0.0400
24498W        W42022  15.694   9.091   3.069  0.1018  0.1887 -0.0965
24499W        W42023   2.863  12.476   0.339  0.3447 -0.1679 -0.2263
24500W        W42024   6.711   9.144   4.286  0.1370 -0.0626 -0.1941
24501W        W42025   7.092  14.565  12.307 -0.0785  0.1404 -0.0420
24502W        W42026   8.428   6.073  17.365  0.1872 -0.1147 -0.2644
24503W        W42027   7.591   0.247   3.813 -0.2366  0.0231 -0.0398
24504W        W42028   0.953   3.889   2.993  0.1953  0.0378 -0.0233
24505W        W42029   6.213   8.967  16.883  0.1144 -0.2377 -0.4722
24506W        W42030  10.218   5.589   2.246 -0.0174  0.0806  0.0765
24507W        W42031  16.359   0.037   3.272 -0.0837 -0.1524  0.0269
24508W        W42032   5.325  12.309   3.811  0.0574  0.3097  0.2376
24509W        W42033   0.487   5.082   0.570 -0.0370  0.1345 -0.2108
24510W        W42034  16.173   0.071   1.432 -0.0584 -0.4224 -0.0132
24511W        W42035  15.032   9.387   0.234 -0.0265  0.4745  0.3316
24512W        W42036  11.237   1.918  17.330  0.0351 -0.0087  0.2729
24513W        W42037   3.747   7.699  14.148  0.2369  0.0792 -0.0544
24514W        W42038   1.722  10.952   5.688 -0.1844 -0.0891  0.1168
24515W        W42039  17.068   0.824  17.487 -0.0703  0.2241 -0.0545
24516W        W42040   5.609   8.834  13.866  0.3225  0.1306  0.2412
24517W        W42041   8.740  15.548  12.566 -0.1366  0.1297  0.3468
24518W        W42042  10.604  14.092   0.336 -0.0566 -0.0786 -0.0398
24519W        W42043   2.319  15.477  16.181 -0.0212  0.0762  0.1593
24520W        W42044   3.147  14.439   1.997 -0.0575  0.1013 -0.3407
24521W        W42045   4.996   6.321  17.226  0.1632 -0.1358  0.1754
24522W        W42046   7.442   3.634  17.607  0.2586  0.3723  0.0511
24523W        W42047  11.114   5.045   0.364 -0.2029  0.3565 -0.1275
24524W        W42048   0.208  14.077   5.161 -0.0694 -0.0756  0.1497
24525W        W42049   4.384   9.499   2.586  0.0014  0.2983 -0.0267
24526W        W42050   6.464   8.875  11.897  0.4330  0.4098 -0.1803
24527W        W42051  11.601   3.521  17.139 -0.1492 -0.1132 -0.0738
24528W        W42052   8.052   4.880   4.958  0.2091  0.2121 -0.0774
24529W        W42053  13.957   9.692   4.700  0.0541  0.1984  0.0471
24530W        W42054  14.269  12.084  17.675 -0.0836 -0.4113 -0.0249
24531W        W42055  11.134  12.241   3.690  0.0038  0.0736  0.0943
24532W        W42056  15.660  10.860  17.133 -0.1052  0.3894  0.2881
24533W        W42057  14.864  12.578  13.450 -0.0632 -0.2217  0.0716
24534W        W42058   9.405   2.877   2.521  0.0637  0.2800  0.1267
24535W        W42059  15.736  13.885  13.088 -0.1537 -0.0206 -0.1182
24536W        W42060  12.314   2.740  15.622  0.2962  0.2149 -0.0225
24537W        W42061   4.992  14.229   3.275 -0.1140  0.2492 -0.0278
24538W        W42062  13.438  16.692  16.012 -0.0738 -0.0806  0.1243
24539W        W42063   2.138   7.687  17.512 -0.0048 -0.0496  0.0966
24540W        W42064   9.542  17.007  15.130 -0.1059 -0.3153 -0.0218
24541W        W42065   8.495   2.092  15.993 -0.0493 -0.1225 -0.5236
24542W        W42066  10.945   4.854   4.938 -0.1402 -0.1241  0.2822
24543W        W42067  15.628   8.578   4.044 -0.0437 -0.1747  0.3765
24544W        W42068   5.392   3.930   3.149  0.0373  0.2358 -0.3174
24545W        W42069  14.833   8.849   3.755 -0.0192 -0.3080 -0.1948
24546W        W42070  12.029   8.654  12.756 -0.0999 -0.1342  0.1004
24547W        W42071  13.054  13.190   1.177 -0.0583  0.2837  0.1542
24548W        W42072   2.486   2.901  12.726  0.0625  0.1115  0.2277
24549W        W42073   2.018   5.914  14.825 -0.2947  0.2324 -0.1972
24550W        W42074   6.387   6.306   0.796  0.1283 -0.0074  0.0775
24551W        W42075  10.228  13.077  15.331 -0.1705 -0.0649 -0.1078
24552W        W42076  15.225  12.260   1.749 -0.1841 -0.0655  0.0033
24553W        W42077   0.264   8.902   5.525 -0.0960 -0.1166  0.3594
24554W        W42078   3.249   3.161   5.402  0.1548  0.3794 -0.0030
24555W        W42079  14.763  12.829   2.408 -0.3312  0.1379 -0.0706
24556W        W42080  15.723  12.556   1.341 -0.2112  0.2134 -0.1816
24557W        W42081   2.832  12.758  12.557  0.0421 -0.0714  0.5518
24558W        W42082  13.893   8.896   1.927  0.2498  0.0099  0.0380
24559W        W42083   8.130   8.063  13.508 -0.0165 -0.1564 -0.0454
24560W        W42084   2.537  11.338  12.902 -0.0497 -0.1836  0.2130
24561W        W42085  16.229  17.091  14.721  0.0565 -0.0008  0.0834
24562W        W42086  16.127  15.572   3.511  0.0239  0.2339  0.1260
24563W        W42087  11.649  10.765  17.605 -0.4646 -0.0918 -0.1354
24564W        W42088   1.174   1.743  14.193  0.1962  0.0658 -0.0650
24565W        W42089  14.219  15.103  17.105  0.4254 -0.1480  0.0712
24566W        W42090   8.155   8.338  15.057 -0.2256  0.3084 -0.1517
24567W        W42091   6.823  10.442   3.852 -0.0592  0.0513  0.1430
24568W        W42092   8.827   0.118  14.770  0.4749 -0.0897  0.1217
24569W        W42093  13.111   2.275  15.442 -0.2404  0.0042  0.1090
24570W        W42094   6.584   5.095  15.887  0.2640  0.0907 -0.0023
24571W        W42095  13.751   5.391  13.210 -0.1637  0.2246  0.0664
24572W        W42096  13.137  12.188  13.860 -0.0892  0.0200 -0.1019
24573W        W42097   9.090   6.187   0.329 -0.0156  0.1733 -0.0979
24574W        W42098   7.222   4.575  14.564 -0.2454  0.1686 -0.2215
24575W        W42099   0.042   8.803  16.290 -0.2283  0.2385 -0.0499
24576W        W42100   6.233   9.248  12.871 -0.0058 -0.0619  0.0668
24577W        W42101  14.609  13.348  14.069  0.0045 -0.1498  0.3243
24578W        W42102   3.682   1.564   2.741 -0.1443  0.1521 -0.3424
24579W        W42103  13.566   7.267   0.010  0.2730  0.1334  0.1116
24580W        W42104  14.152   2.888   5.490  0.0040  0.1501 -0.3238
24581W        W42105   4.835  12.124  17.424  0.0647 -0.1001  0.1332
24582W        W42106   9.533   9.742  12.427  0.1754  0.0557  0.1220
24583W        W42107  10.354   4.610   2.059  0.1410 -0.1691  0.0029
24584W        W42108  10.134   4.527  17.503  0.0954  0.0834  0.1933
24585W        W42109  14.748  11.028   1.293 -0.2014 -0.3530 -0.1145
24586W        W42110   4.414   9.341  12.518  0.0308  0.0856  0.0822
24587W        W42111   8.156  15.326  15.341  0.0486 -0.1594  0.1747
24588W        W42112   5.901   1.091   3.620  0.0608 -0.3284 -0.0923
24589W        W42113   8.666  14.537  16.822  0.0757  0.0430  0.0178
24590W        W42114   3.918   2.802   5.526  0.1873  0.0091  0.3149
24591W        W42115   8.712   7.103   1.117  0.1403 -0.1927  0.2750
24592W        W42116   5.096  12.466  16.685  0.4242 -0.1854  0.0859
24593W        W42117   9.912  15.618  15.625  0.3886 -0.1614 -0.1002
24594W        W42118  15.347  13.821  15.141 -0.2054 -0.0241  0.1453
24595W        W42119   1.567  10.243   1.637  0.2257 -0.0895 -0.0996
24596W        W42120  16.395  10.451  15.093  0.2314  0.0216 -0.1108
24597W        W42121   9.274  11.945  15.480  0.1067 -0.0343  0.1250
24598W        W42122   0.264  12.341  12.585 -0.2306  0.2530  0.2310
24599W        W42123   9.498   3.031  11.127  0.1235 -0.2263 -0.1138
24600W        W42124  13.446  11.092   0.291  0.3489  0.0044 -0.1055
24601W        W42125  12.693   2.521   1.616 -0.0608 -0.1634  0.1967
24602W        W42126   0.198   4.727  17.228 -0.2649  0.0549  0.2964
24603W        W42127   7.771   6.939   4.020  0.0058 -0.0081  0.1449
24604W        W42128   2.196   0.935  12.990 -0.2748 -0.0721 -0.3050
24605W        W42129  11.382   9.439  13.340  0.0604 -0.1069 -0.0320
24606W        W42130   1.807  15.841   4.809 -0.1116 -0.0033  0.0859
24607W        W42131   9.687   5.280   0.409 -0.1777 -0.2962  0.0642
24608W        W42132  10.138  12.305   2.778  0.3601  0.0903  0.1309
24609W        W42133  17.119  12.366   2.622 -0.0396  0.0631 -0.2193
24610W        W42134   0.920   9.211  13.250  0.1774  0.0487  0.3339
24611W        W42135  12.226  14.875   4.728 -0.0826 -0.1146  0.2680
24612W        W42136  11.834   1.173  14.871 -0.2851  0.1650  0.0968
24613W        W42137   9.834  12.345   0.224 -0.0006 -0.1533 -0.2285
24614W        W42138   2.035  16.041   3.677  0.1921  0.0300  0.1496
24615W        W42139  13.238   7.057   3.711  0.0305 -0.0562 -0.0512
24616W        W42140   6.820   0.889  13.053 -0.3591  0.1580 -0.4430
24617W        W42141   1.415   8.615  12.500  0.2945  0.2999 -0.2846
24618W        W42142  13.944  15.581   3.142  0.0617  0.0566  0.1124
24619W        W42143  13.892   3.406  13.594  0.0867 -0.2112  0.0964
24620W        W42144   5.296   2.255  12.617  0.1678 -0.2701  0.2476
24621W        W42145  15.027   1.578  12.832  0.3513 -0.1066  0.1714
24622W        W42146   2.475  13.600   5.721  0.0002  0.0807 -0.1137
24623W        W42147   0.649   3.056   5.043  0.1640  0.0512 -0.3033
24624W        W42148   1.832   0.512  15.036  0.0609  0.2699 -0.0612
24625W        W42149   4.102  13.588   3.709  0.0789 -0.0168 -0.1578
24626W        W42150   1.174   7.657  14.107 -0.0195  0.0221 -0.2600
24627W        W42151  13.982   8.397   0.595 -0.1353  0.1623 -0.1351
24628W        W42152   4.181   5.985  15.893 -0.0435 -0.2142 -0.1079
24629W        W42153   7.577  10.332  13.960 -0.2297  0.0978  0.3886
24630W        W42154  13.631  14.659   3.942 -0.4922 -0.1474 -0.0457
24631W        W42155   0.240  11.999  14.211  0.0234  0.0324 -0.1963
24632W        W42156  16.875  13.733  13.274  0.0341 -0.2753 -0.0888
24633W        W42157  15.910   6.659   1.970  0.0133  0.1673 -0.0343
24634W        W42158   1.415  16.912  13.976 -0.1447 -0.1141 -0.2760
24635W        W42159   1.983  16.323   5.130  0.1524 -0.1135 -0.1699
24636W        W42160  12.775  16.206  12.526  0.1569  0.1256 -0.0065
24637W        W42161   4.932   9.731  15.786 -0.1816  0.0556  0.2734
24638W        W42162  16.299   2.805  15.032  0.1124  0.2565 -0.2125
24639W        W42163  11.016  14.757   1.330 -0.3161 -0.1255  0.0511
24640W        W42164   1.210  10.246   5.442 -0.0495  0.0705  0.0669
24641W        W42165   3.408  10.746  15.885  0.0140 -0.1221  0.1391
24642W        W42166   9.269   8.830   1.738 -0.0630 -0.1303 -0.2139
24643W        W42167   3.209   5.766  13.413  0.1540  0.1871  0.1395
24644W        W42168   4.527  11.157  15.664 -0.0561 -0.1579  0.2961
24645W        W42169   8.297  11.384  16.507 -0.0232  0.0068  0.0405
24646W        W42170   4.156   6.257  15.150  0.2615 -0.1718 -0.1416
24647W        W42171   8.173   1.828  17.380 -0.1063  0.1630  0.0209
24648W        W42172   4.868  16.343  15.606  0.0122  0.0893  0.1884
24649W        W42173  14.913   8.546  12.620 -0.2049 -0.0866  0.0211
24650W        W42174  16.700   7.182  12.611 -0.1055  0.0018 -0.0031
24651W        W42175   9.748   3.871  16.248 -0.0867  0.0808  0.1038
24652W        W42176   2.211  11.662   0.717 -0.2737  0.0239  0.3089
24653W        W42177  17.125  13.548   5.143 -0.0598 -0.1789  0.0150
24654W        W42178   5.766   5.333  15.580  0.1375 -0.1771  0.2254
24655W        W42179  17.160  12.282   1.345 -0.0746 -0.3857 -0.0263
24656W        W42180  12.760   1.757  13.059  0.0554  0.0988 -0.4311
24657W        W42181  14.948   7.024   0.812  0.3982  0.2598  0.1870
24658W        W42182   1.058  11.181   3.421  0.0591 -0.0196  0.2036
24659W        W42183  11.124   1.476  17.719 -0.1461  0.0949 -0.0871
24660W        W42184   4.779   9.961  14.394  0.0846 -0.0208  0.0137
24661W        W42185   4.438   4.227   4.381 -0.0295  0.0237  0.2885
24662W        W42186  12.042   5.098   2.326  0.2583  0.1900  0.0253
24663W        W42187   8.029   9.513  14.793  0.1554  0.3354  0.1716
24664W        W42188   5.503   3.064  15.469 -0.1374  0.0853 -0.0605
24665W        W42189   0.004   8.203   1.105 -0.1725  0.1172  0.0759
24666W        W42190  15.616  16.474   0.355  0.0289  0.2381  0.1870
24667W        W42191   3.674   2.984  12.962  0.0673  0.0562  0.0075
24668W        W42192  10.079  13.972  13.757 -0.3474  0.0191  0.4272
24669W        W42193   4.753  15.009  16.299 -0.3152  0.1432  0.1803
24670W        W42194   6.102  11.860   0.410  0.0557  0.0824 -0.1893
24671W        W42195   4.950   8.050   2.574 -0.0601 -0.2579  0.2328
24672W        W42196   6.721   5.199   2.166  0.0670  0.1592 -0.3537
24673W        W42197   1.901   3.036   1.231  0.0578 -0.0307  0.0004
24674W        W42198   8.231   5.633  17.326  0.1415 -0.2926 -0.0315
24675W        W42199   5.876   4.009   1.074  0.2618  0.2435 -0.2658
24676W        W42200  13.982  15.081  13.276  0.2959  0.1813 -0.2182
24677W        W42201  14.496   5.852  15.427  0.4015  0.2680  0.1229
24678W        W42202  10.858  10.903   4.800 -0.0908 -0.1389  0.0080
24679W        W42203   1.576  10.705   2.350 -0.0587  0.2393 -0.2040
24680W        W42204  14.095   8.010   3.483  0.0134 -0.0425 -0.0689
24681W        W42205  14.732   0.418   0.040  0.3100 -0.3262 -0.1218
24682W        W42206   3.641   2.877   5.080  0.1038  0.0289 -0.0871
24683W        W42207  15.661   9.894  12.255 -0.0503  0.0822  0.0383
24684W        W42208  15.291   2.591  16.467 -0.2470 -0.3742 -0.2179
24685W        W42209   1.613   9.623   5.895  0.1450 -0.1819  0.3155
24686W        W42210   8.428  13.664   1.579 -0.2504 -0.0001 -0.0746
24687W        W42211  15.568   9.394   5.429 -0.0063  0.0865 -0.0586
24688W        W42212   4.114  12.058  13.986 -0.2297  0.0326  0.0899
24689W        W42213   0.531   0.684   4.348  0.0664 -0.2533  0.0081
24690W        W42214   6.077  11.136   1.251  0.0704 -0.2013  0.1397
24691W        W42215   7.473   1.205  15.297  0.0368 -0.1190  0.0873
24692W        W42216   4.028   0.142   4.351 -0.0565 -0.0777  0.1974
24693W        W42217  13.086   2.790  12.960 -0.0317  0.2829 -0.1915
24694W        W42218  14.012  14.684   3.564 -0.1206  0.0891 -0.0861
24695W        W42219  14.952  11.412   0.355  0.0090 -0.0220 -0.2857
24696W        W42220   2.472  16.708  12.779 -0.4133 -0.1203 -0.0300
24697W        W42221  11.850  11.613  13.268  0.2556  0.0585  0.0451
24698W        W42222  10.204   4.842  11.013  0.0202 -0.3018  0.2266
24699W        W42223   6.170   2.449   0.467  0.0034 -0.5105 -0.0761
24700W        W42224   4.260   3.179   0.034 -0.2309  0.1161 -0.0214
24701W        W42225  10.201  14.300  15.269  0.0888  0.2251  0.1846
24702W        W42226  11.559   6.124   2.246 -0.0927 -0.0668 -0.0736
24703W        W42227   6.650   2.040  12.515  0.5206  0.1217  0.0619
24704W        W42228   4.209  11.572  13.120  0.0208  0.0784 -0.2277
24705W        W42229   3.395  11.902  17.452  0.1172 -0.0046  0.0083
24706W        W42230   0.144   9.531  15.558 -0.0510  0.2515  0.0656
24707W        W42231   9.699   8.292  13.326 -0.0937 -0.1305 -0.0523
24708W        W42232  15.053   0.903   0.003  0.0451 -0.0404 -0.2345
24709W        W42233   1.887  11.925   1.002 -0.0918  0.4778 -0.0023
24710W        W42234  13.021   9.341  14.389 -0.0089 -0.0907 -0.3189
24711W        W42235  15.426  13.287   2.789 -0.0869  0.0758 -0.1917
24712W        W42236  12.311  11.798   3.656  0.0511  0.0374  0.1229
24713W        W42237   2.068   6.299  15.165 -0.0377  0.4113  0.0531
24714W        W42238  12.426   0.910   5.778  0.0943  0.3886 -0.3362
24715W        W42239  13.146   8.424  13.478  0.2157  0.0448  0.1331
24716W        W42240  16.876  15.992  15.915  0.0342  0.3381  0.0887
24717W        W42241   9.711  15.970  16.876 -0.1127 -0.2076  0.1353
24718W        W42242  16.572  13.613  17.235  0.2551  0.0618 -0.0069
24719W        W42243  13.993   2.387   2.935  0.0428  0.0617 -0.1263
24720W        W42244   1.291   9.566   1.950 -0.0697  0.2397  0.0618
24721W        W42245   7.483  10.346   3.929  0.4308 -0.4753 -0.0003
24722W        W42246   9.590   3.680   2.728 -0.1647 -0.0756  0.0243
24723W        W42247   1.060   6.020   4.368 -0.0021 -0.0031 -0.1930
24724W        W42248   8.573   5.548  16.363 -0.0521  0.0449  0.1702
24725W        W42249   7.275   9.080   1.956 -0.0136  0.2075 -0.1019
24726W        W42250   3.645   5.268  15.420 -0.1067 -0.3113 -0.2311
24727W        W42251  12.283   3.600  15.125  0.0009  0.0220  0.0859
24728W        W42252  13.701   4.315   3.876 -0.1998  0.1137  0.0670
24729W        W42253   2.393   3.634  16.304  0.1164  0.1562  0.0180
24730W        W42254   2.850   6.014  14.558 -0.0018 -0.0173  0.2314
24731W        W42255  11.694  12.551  12.373  0.2340  0.1700  0.2199
24732W        W42256   7.709  15.876  15.193 -0.2805 -0.1452  0.2965
24733W        W42257   9.647  13.188   2.539 -0.1400  0.0241  0.2071
24734W        W42258  15.279  10.946  12.660  0.1349 -0.1993  0.2182
24735W        W42259   0.757  10.275   5.027  0.0709 -0.0234  0.2466
24736W        W42260   5.275   0.281  17.495 -0.1118  0.0960  0.1295
24737W        W42261   6.361   5.648   4.995 -0.1073 -0.1527  0.0524
24738W        W42262  14.639   9.716   2.775 -0.0029 -0.3514 -0.0653
24739W        W42263   9.399   9.682   5.727 -0.1466 -0.0674  0.0436
24740W        W42264  10.980   9.934   2.718  0.0751  0.1310  0.1690
24741W        W42265   2.506  15.512   2.941  0.1492 -0.1395  0.1354
24742W        W42266   7.723  10.765   3.238 -0.3871 -0.1260 -0.0825
24743W        W42267   4.306  14.205   0.574  0.1031 -0.3980  0.2110
24744W        W42268   0.046  16.007  11.916  0.1250 -0.1526  0.0511
24745W        W42269   5.887   2.207  17.333 -0.1020  0.2277  0.2916
24746W        W42270  11.655   1.648   4.495  0.1453  0.0076 -0.2291
24747W        W42271  14.887  10.370   5.473  0.1733 -0.0077 -0.0325
24748W        W42272  15.139   0.912   3.416  0.2193 -0.0951  0.1272
24749W        W42273   1.767   2.250   3.954  0.0705 -0.0896  0.2054
24750W        W42274  11.805  12.110  12.775 -0.1369  0.0560 -0.2709
24751W        W42275  17.133   1.670  16.362 -0.0509 -0.1196 -0.0534
24752W        W42276   9.953   0.441   1.360 -0.1194 -0.2446  0.0956
24753W        W42277  13.930   6.329   4.831 -0.0206  0.0965  0.0219
24754W        W42278   8.240  11.886  12.924 -0.2954  0.0060 -0.0216
24755W        W42279   0.858   8.265  13.605 -0.0399 -0.3265 -0.1653
24756W        W42280   3.147   2.389  15.301  0.2495 -0.1637  0.0124
24757W        W42281  12.892   2.207   0.006 -0.0527 -0.1628 -0.0210
24758W        W42282   3.788  13.524   5.059 -0.0336  0.1499 -0.0702
24759W        W42283  13.672  12.622  15.957 -0.0837 -0.1236  0.3586
24760W        W42284  16.868   0.254  15.651 -0.1347 -0.2196  0.0170
24761W        W42285   2.181   0.087   3.274  0.0842  0.1126 -0.0705
24762W        W42286  15.244   6.846  14.862 -0.2943 -0.2165 -0.0022
24763W        W42287   4.250   2.012  12.971 -0.0509 -0.0168  0.2179
24764W        W42288   6.901  11.176  12.429 -0.0246  0.1865 -0.1918
24765W        W42289  12.819  11.331  15.798  0.1253  0.1877  0.0677
24766W        W42290   4.325   3.455  16.661 -0.0263  0.0178 -0.0581
24767W        W42291  12.348   3.198   3.134  0.2034 -0.4948  0.1103
24768W        W42292  17.010   9.901  17.053  0.1457  0.3232  0.0060
24769W        W42293  13.313  11.487  14.562 -0.1196  0.1567  0.0308
24770W        W42294   6.866   0.158   0.674  0.0660  0.1770 -0.3406
24771W        W42295  12.737  14.528  12.807  0.1003 -0.4363 -0.1063
24772W        W42296   4.551  11.921  16.201  0.1254 -0.2441  0.1469
24773W        W42297  15.098  14.324   4.299 -0.2613 -0.1530 -0.0046
24774W        W42298   2.796   7.406  14.966 -0.0915 -0.1253  0.1739
24775W        W42299  14.948  13.028   2.890  0.0386  0.0004 -0.0610
24776W        W42300   6.131  12.689  14.521 -0.0072 -0.2844 -0.1946
24777W        W42301   1.656   1.899  17.558  0.0351 -0.1019 -0.2436
24778W        W42302   1.404   8.577  13.807 -0.1873 -0.1272  0.2700
24779W        W42303   6.118  11.155   0.718  0.0833 -0.0587  0.1139
24780W        W42304  13.793   8.117  14.045  0.3089 -0.1194 -0.1123
24781W        W42305   1.669   4.290  17.430 -0.0199  0.1691  0.1173
24782W        W42306  12.244  15.695  16.530 -0.2636 -0.0495  0.0486
24783W        W42307   4.702   2.900  15.387  0.1772 -0.2987 -0.0347
24784W        W42308   1.129  11.349  14.005  0.0596 -0.0648 -0.1425
24785W        W42309   4.032  14.042   4.381 -0.0215 -0.2447 -0.1496
24786W        W42310   7.770   6.093  16.249  0.0844  0.1798  0.0231
24787W        W42311  12.644  13.972   4.703  0.0183 -0.2151 -0.0716
24788W        W42312   7.469  11.108  12.361  0.0391  0.0679 -0.0569
24789W        W42313   2.601  14.525  12.201  0.0044 -0.0003 -0.1578
24790W        W42314   5.465   3.808  16.319 -0.0297  0.0957 -0.0347
24791W        W42315  14.108  13.786  16.424  0.1765 -0.0325 -0.1542
24792W        W42316  13.208  16.092  16.122  0.1400  0.0812 -0.0390
24793W        W42317  11.019  15.583  15.942  0.4840  0.2380  0.0003
24794W        W42318  12.346   1.093   4.258  0.0931  0.1675 -0.1004
24795W        W42319  15.603  11.734  17.528  0.1264  0.0989  0.0997
24796W        W42320  15.920   5.643  14.263  0.1281  0.1023 -0.1938
24797W        W42321  14.505  11.494  12.352 -0.0039  0.1032 -0.1485
24798W        W42322   0.946  11.738   4.285 -0.3422  0.3062 -0.0236
24799W        W42323  13.612   3.794  14.722 -0.0864 -0.0744  0.1170
24800W        W42324   6.523   2.212   1.600  0.1183  0.0169  0.1029
24801W        W42325  14.024  12.373  11.919 -0.0316 -0.0765  0.0058
24802W        W42326   2.155   9.243   4.665 -0.3418  0.0323  0.1553
24803W        W42327  15.526   9.441   3.860  0.0110 -0.0129 -0.0471
24804W        W42328   7.314   8.142   3.570  0.0004  0.1442 -0.0477
24805W        W42329   4.497   9.439  14.970 -0.3440  0.3831 -0.1732
24806W        W42330   7.275   6.912  16.559  0.3929 -0.2483 -0.0562
24807W        W42331   9.327  11.447   1.171 -0.1294 -0.0292  0.1540
24808W        W42332  12.281   2.692   3.185 -0.0786  0.0021  0.0863
24809W        W42333   4.205   3.413   3.124  0.2172  0.0102  0.1463
24810W        W42334   2.263   3.693  17.189 -0.2772 -0.0619  0.0699
24811W        W42335   5.568   4.946  14.472 -0.1393  0.1054  0.4776
24812W        W42336  10.786  16.565   3.269 -0.1994 -0.0272  0.0711
24813W        W42337   9.616   7.790  14.186 -0.3937 -0.0125  0.0541
24814W        W42338  13.790   7.367  17.130 -0.0426  0.3244 -0.2330
24815W        W42339   9.664   5.913   1.098 -0.1329  0.0493 -0.1065
24816W        W42340   4.326  12.660   3.940  0.1766  0.0828 -0.1568
24817W        W42341   0.408  14.857  16.461 -0.3179  0.3160 -0.1129
24818W        W42342  13.589   4.544   4.792  0.2746 -0.0791  0.1406
24819W        W42343  10.244   9.141   3.664  0.2320  0.4385  0.1679
24820W        W42344   7.577   4.359  14.326 -0.1205 -0.1053  0.4800
24821W        W42345  16.364   6.665   0.290  0.0997 -0.0236 -0.2722
24822W        W42346   3.142  16.327  14.838 -0.1471 -0.0309 -0.6062
24823W        W42347  14.812   0.184  16.469  0.1901  0.0338 -0.0323
24824W        W42348   2.661   6.634  15.882  0.0513  0.1916 -0.2334
24825W        W42349  12.016   5.337  12.962  0.0729  0.2081  0.1331
24826W        W42350  15.474   0.151   4.054  0.0738  0.1186  0.0471
24827W        W42351   4.659  15.240   2.446 -0.1210  0.0167  0.3045
24828W        W42352  16.769   0.417   1.036  0.0657 -0.1880  0.0925
24829W        W42353  17.047  12.203  12.955 -0.1438  0.2941 -0.2050
24830W        W42354   3.682   1.009   4.532 -0.1941 -0.1307 -0.1019
24831W        W42355  10.729  16.112   3.539 -0.0229  0.2865 -0.1703
24832W        W42356   1.791   8.184  15.350 -0.0900 -0.0966  0.0272
24833W        W42357   4.198   4.429  16.065  0.1155 -0.0271  0.0237
24834W        W42358   5.766  13.295   3.917  0.0438 -0.0333  0.2732
24835W        W42359   9.600   6.628   1.434  0.1224 -0.1828  0.1499
24836W        W42360  10.717  16.926   2.832 -0.2493  0.0944  0.1043
24837W        W42361   2.710   6.038  16.788  0.1018 -0.0749  0.0953
24838W        W42362   0.490  14.345   1.181 -0.2548  0.1249  0.1664
24839W        W42363   3.538   8.641  15.142 -0.2198 -0.0038  0.2049
24840W        W42364   3.138   4.440  16.235  0.1300 -0.1131  0.1250
24841W        W42365   3.274   3.387   4.871  0.1428  0.0544  0.1748
24842W        W42366   2.856   1.474   1.402 -0.3796  0.0162  0.0788
24843W        W42367   6.203  11.354  14.252 -0.0854  0.0539  0.0976
24844W        W42368   1.931   1.010  12.499  0.1271  0.1678  0.1032
24845W        W42369   5.313  15.918  14.043 -0.3095 -0.2477 -0.1614
24846W        W42370  13.155   0.308  13.951  0.1189 -0.1108 -0.0195
24847W        W42371  15.956  13.198  16.644  0.3218 -0.3573 -0.0516
24848W        W42372  14.890  13.126  12.187  0.0110  0.0553 -0.0932
24849W        W42373  12.284  17.128   1.456  0.1339 -0.0158 -0.2353
24850W        W42374  11.661   6.987  17.058  0.1045  0.1837  0.3473
24851W        W42375   3.240   8.578   4.901 -0.0694 -0.2115  0.0056
24852W        W42376   5.310   2.660  17.010  0.2312 -0.4596 -0.1029
24853W        W42377   5.566   2.877  16.585 -0.0691 -0.3408  0.0689
24854W        W42378  14.906  15.984  15.086  0.2961  0.0482 -0.2731
24855W        W42379  14.740   3.363   4.605 -0.0057 -0.0966 -0.0705
24856W        W42380  11.229  12.072  17.106  0.0538 -0.1889 -0.0092
24857W        W42381  15.553   5.746   1.065 -0.0463 -0.0704 -0.1296
24858W        W42382   7.169   0.570  14.026  0.2032 -0.0980  0.2615
24859W        W42383   2.834   8.387   0.051  0.0401 -0.0660 -0.1883
24860W        W42384  12.348   7.962  17.509  0.1954  0.0356 -0.2392
24861W        W42385   0.645   7.360   2.005  0.2025 -0.0674  0.0419
24862W        W42386   4.171  17.137   1.994  0.0461  0.0332  0.1998
24863W        W42387  13.642   3.567   4.410  0.2730  0.3169  0.0670
24864W        W42388  13.467   3.140  15.443  0.1588 -0.3003  0.1690
24865W        W42389  10.965   0.535  16.012  0.2531 -0.2644 -0.0008
24866W        W42390   3.411  16.940   2.852 -0.0380  0.1061 -0.0831
24867W        W42391  16.272  17.028  15.843  0.2895  0.2328  0.0451
24868W        W42392   1.739  14.212  15.852 -0.1997 -0.2065  0.0499
24869W        W42393   6.696  15.051  16.838  0.0136 -0.1930 -0.1040
24870W        W42394   1.382  13.944   0.920  0.0811  0.2923 -0.3099
24871W        W42395   1.226  15.150   5.343  0.0941 -0.1215  0.0515
24872W        W42396   4.742   0.343   4.804  0.5778 -0.2404 -0.1665
24873W        W42397   1.466  17.091  17.052  0.0146 -0.1533 -0.2087
24874W        W42398   2.669   8.187   2.792 -0.1811 -0.1359 -0.1453
24875W        W42399   6.356   7.971   1.436 -0.0332 -0.1021 -0.0643
24876W        W42400   8.138   7.444  16.728  0.0433 -0.2187 -0.0218
24877W        W42401   6.249  12.088  17.703 -0.1182  0.2658  0.4176
24878W        W42402  10.540   7.745  14.648  0.0551 -0.1653 -0.0062
24879W        W42403   2.851   6.772   1.483  0.0073 -0.3234 -0.2645
24880W        W42404   7.620   3.921   3.612  0.1101 -0.1902 -0.1774
24881W        W42405   4.074   3.060  13.237 -0.2643  0.1169 -0.0343
24882W        W42406   6.227  15.059  14.160 -0.1367  0.0509 -0.2101
24883W        W42407   3.576   9.813  13.050  0.2193 -0.0728  0.2443
24884W        W42408   0.262   2.919   2.513  0.0048  0.0122  0.1849
24885W        W42409  11.791   5.931   1.200 -0.2344 -0.2212  0.0720
24886W        W42410  15.318  16.804  12.128  0.2125  0.2229 -0.0563
24887W        W42411  12.903   2.292   1.100  0.1327  0.1008  0.0355
24888W        W42412  16.536  13.628   4.453  0.0829 -0.3025  0.0909
24889W        W42413  15.007  12.046  15.716 -0.0672 -0.3488  0.0540
24890W        W42414  16.420   5.766  14.237  0.0770  0.0467  0.4518
24891W        W42415   9.318   8.202  16.766 -0.1798 -0.0272  0.0064
24892W        W42416  13.874   7.672   1.390  0.1011  0.1838 -0.0543
24893W        W42417  15.187  11.026   3.885 -0.1050 -0.3879  0.0822
24894W        W42418  15.766  10.131  16.238  0.0585  0.0416  0.2245
24895W        W42419   9.296   0.867  14.259 -0.1669 -0.0598  0.1432
24896W        W42420  17.161  11.679   4.040 -0.2657 -0.0190  0.1277
24897W        W42421  12.015   1.665   6.419  0.1069  0.1985  0.3812
24898W        W42422   1.989   9.516   3.943 -0.1057  0.2297 -0.1112
24899W        W42423   9.259  13.333   2.887 -0.0726 -0.0431 -0.2376
24900W        W42424  12.468   0.562  15.326  0.1140  0.1713 -0.0966
24901W        W42425  15.573   5.133  16.109 -0.0426  0.0447 -0.1022
24902W        W42426   2.164   4.706   1.290 -0.1196 -0.1170  0.0383
24903W        W42427   9.118   0.905   3.868 -0.0165 -0.0382 -0.1800
24904W        W42428   9.735  11.097  16.948 -0.0991 -0.0559  0.1230
24905W        W42429   0.065  12.224  17.043  0.2396  0.0946 -0.1002
24906W        W42430  12.635  16.674  12.305 -0.1150  0.2443 -0.0344
24907W        W42431  15.382  14.855   2.185  0.2220 -0.1407  0.1317
24908W        W42432   4.192  11.626  15.798  0.1057  0.0114  0.2959
24909W        W42433   0.231   8.066   2.096 -0.2341 -0.0477 -0.0945
24910W        W42434   1.206  14.896   2.202 -0.1771  0.1047 -0.2530
24911W        W42435   6.555  14.866   4.003 -0.0580  0.0249  0.2958
24912W        W42436   0.360   9.664  12.148 -0.1979  0.1020  0.0637
24913W        W42437   8.206  10.859   3.905  0.0537 -0.0104 -0.0228
24914W        W42438  10.704   0.323  13.027 -0.0011  0.1350  0.2609
24915W        W42439   3.499   2.081  12.616 -0.0009  0.0425  0.3179
24916W        W42440   9.922  16.679   4.515  0.4139  0.0939 -0.0770
24917W        W42441  13.947   8.549   1.532  0.1381 -0.3760  0.0538
24918W        W42442   3.912   9.779   2.504  0.0553  0.2776 -0.1405
24919W        W42443   5.356   8.026   6.330  0.3277  0.2935 -0.1052
24920W        W42444   5.966   1.509   0.812 -0.0946 -0.0218 -0.0437
24921W        W42445   4.507   2.148   2.327 -0.2044  0.0058  0.2978
24922W        W42446   3.676   9.524  17.223  0.0290  0.1791  0.1533
24923W        W42447  12.686   9.228  13.483  0.2735  0.0760 -0.2722
24924W        W42448  16.212  12.680   0.622 -0.3689 -0.1915 -0.0132
24925W        W42449   0.992  16.760  17.691  0.1455  0.0221  0.0058
24926W        W42450  16.099   9.349   0.464  0.1052 -0.1363  0.2818
24927W        W42451  14.297  12.044   3.042 -0.0296  0.2220 -0.1216
24928W        W42452   6.680  14.464  15.651 -0.1524 -0.0920  0.0209
24929W        W42453   5.304   4.103   3.956  0.0065  0.0607  0.0736
24930W        W42454  14.522   3.874  16.245 -0.0351  0.0089  0.2267
24931W        W42455   5.192  14.283  12.745  0.2734  0.1014 -0.0150
24932W        W42456   2.087  12.133   5.735 -0.0254 -0.0128 -0.0340
24933W        W42457   1.617   5.743   3.012 -0.1492 -0.0789  0.1268
24934W        W42458   1.515  11.505  13.186  0.2234 -0.0786 -0.0407
24935W        W42459   0.177   8.163   5.363 -0.3317  0.2729  0.3525
24936W        W42460   4.980  17.037  17.430 -0.0718  0.0874  0.0540
24937W        W42461   8.171  12.611  13.504  0.0072 -0.1019  0.3699
24938W        W42462  16.092  10.692  12.786  0.2348 -0.1547  0.0031
24939W        W42463   5.641  10.848  15.205  0.2316  0.3988  0.1826
24940W        W42464   3.593  13.256   1.305  0.2869  0.0440 -0.1669
24941W        W42465   3.501   9.168   2.053  0.1942  0.2245  0.2647
24942W        W42466  11.714  16.305   0.045 -0.0615 -0.0653 -0.1345
24943W        W42467  10.091   9.312   4.573  0.0468  0.4843 -0.1804
24944W        W42468  10.092  13.258  13.432 -0.0879  0.0492  0.0883
24945W        W42469  14.353  12.686   1.392 -0.1807 -0.0851 -0.0829
24946W        W42470   6.393   0.046   2.062  0.1608  0.2144 -0.0752
24947W        W42471  12.368  10.661  16.910  0.2604  0.1035 -0.1988
24948W        W42472   2.814   0.480  13.525  0.1829 -0.0621  0.0652
24949W        W42473   4.831  10.043  17.022  0.0148 -0.1402  0.1478
24950W        W42474   8.652   5.806   1.038  0.1369 -0.3014 -0.0169
24951W        W42475  10.853  10.112   4.964 -0.5365  0.0074 -0.2119
24952W        W42476   1.740   0.142   5.121  0.3282  0.2795  0.2269
24953W        W42477  11.141   3.587   3.631  0.1492  0.0362 -0.0519
24954W        W42478  12.089   2.107  13.990  0.2744 -0.1012 -0.2710
24955W        W42479  13.271   2.737   4.134  0.2192 -0.1028 -0.0651
24956W        W42480   9.803   1.937   3.366 -0.0151  0.2042 -0.2204
24957W        W42481  16.237   0.293  13.261 -0.2650  0.0121  0.0636
24958W        W42482   5.296  11.451  17.566 -0.1878 -0.3754  0.0981
24959W        W42483   3.239   8.361   2.593  0.1407  0.2607  0.2105
24960W        W42484  16.286  15.724   5.707 -0.1091  0.0723  0.2341
24961W        W42485  14.090   0.996  15.101  0.0064  0.1349 -0.2519
24962W        W42486   8.606   9.799   3.028 -0.1450  0.1239  0.3194
24963W        W42487   2.113  16.601   5.624 -0.2447  0.0037 -0.0299
24964W        W42488   6.021  16.671  12.919  0.0473  0.1383 -0.2125
24965W        W42489  11.244  16.508  17.650 -0.1491 -0.2785  0.4697
24966W        W42490   5.628   2.990   3.603 -0.1873  0.1911  0.0858
24967W        W42491  10.656  15.211   1.440  0.0104 -0.0303 -0.0379
24968W        W42492  16.949  12.441   3.694 -0.0151 -0.0529  0.3121
24969W        W42493   6.486  10.198  13.251 -0.1815  0.0409  0.2158
24970W        W42494   7.955  16.580   1.278 -0.0013  0.1757  0.0927
24971W        W42495   4.494   3.095  17.092 -0.0593  0.1825 -0.0148
24972W        W42496   5.974   9.632  14.837 -0.0744  0.0614  0.0298
24973W        W42497   8.864   1.994  13.670  0.3644  0.1997 -0.0523
24974W        W42498   3.695   8.875   1.187  0.3860 -0.2458  0.1240
24975W        W42499   9.679  12.649   1.644 -0.1055  0.0884  0.2065
24976W        W42500  16.071   3.764   2.744 -0.2424 -0.3042 -0.2919
24977W        W42501   1.945   7.661  15.991  0.1473  0.0761 -0.1031
24978W        W42502   2.780   9.889   0.110 -0.0458 -0.1333 -0.0073
24979W        W42503   3.438   7.223   3.660  0.1368 -0.0274 -0.1905
24980W        W42504   9.598   8.594  16.795  0.3374 -0.1440  0.0618
24981W        W42505  15.354  16.137   0.073 -0.1199 -0.0801  0.4385
24982W        W42506   6.073  11.792   4.823  0.0275  0.0472 -0.0071
24983W        W42507   2.242   3.161   3.575  0.0895 -0.0821  0.4239
24984W        W42508  13.680   8.351  15.572  0.0469 -0.1183  0.1121
24985W        W42509   5.812   1.576   1.272 -0.1274  0.4325  0.1298
24986W        W42510  10.087   7.380  15.389 -0.0962  0.3347 -0.0685
24987W        W42511  12.678   9.869   2.666 -0.2496 -0.0537 -0.1507
24988W        W42512   2.090   5.435   0.338  0.2686  0.0384  0.0703
24989W        W42513   8.550   1.087   4.205 -0.0074 -0.1805  0.0625
24990W        W42514   2.902   3.377   2.381  0.1448  0.0149  0.2811
24991W        W42515  14.463  11.847  15.366  0.0225 -0.0780 -0.0283
24992W        W42516  12.865  12.982  13.960 -0.1062 -0.1388  0.0199
24993W        W42517  11.614   6.148  13.215  0.2720  0.0076  0.1377
24994W        W42518  12.532  16.403  15.795  0.1324  0.0754 -0.0579
24995W        W42519  11.847  10.352   3.278 -0.0133  0.1121  0.1259
24996W        W42520   5.800   9.974   5.369 -0.2966 -0.1553  0.0057
24997W        W42521   2.782   1.649   0.956 -0.3522 -0.0588  0.1495
24998W        W42522  13.943  12.057  13.278  0.1541  0.2123 -0.0675
24999W        W42523  16.519   1.018   2.799  0.0572  0.0856 -0.2623
25000W        W42524  14.803   2.044  14.445  0.1671  0.0314  0.1262
25001W        W42525   4.583  15.211   4.104  0.2695  0.1075 -0.0692
25002W        W42526  14.568  15.235   0.607 -0.1148  0.0626 -0.1580
25003W        W42527  12.536  16.706   1.504  0.2912 -0.0091  0.0543
25004W        W42528  14.709   0.739   3.056  0.0977 -0.1583 -0.1108
25005W        W42529   0.882   3.759   1.506 -0.4564  0.0937  0.1236
25006W        W42530   6.234   1.723  14.480  0.2324  0.1220 -0.1507
25007W        W42531  14.858   3.277   3.177 -0.2310  0.0514 -0.1331
25008W        W42532  10.328   6.567  16.248  0.0568  0.1070  0.1187
25009W        W42533  10.111  16.699  12.759  0.0279  0.1712  0.1045
25010W        W42534   6.557   7.400   0.618  0.1592 -0.0091  0.1032
25011W        W42535  13.876   1.901   5.369 -0.1639 -0.4240  0.3641
25012W        W42536   8.751   1.368  17.176  0.1441 -0.1965  0.2587
25013W        W42537   0.641   9.888  12.492  0.1860  0.0313  0.0107
25014W        W42538  16.353   9.882   3.696 -0.0956 -0.0115  0.0322
25015W        W42539  10.912   6.996  16.823  0.3396 -0.1633 -0.0585
25016W        W42540  14.649  13.452  12.853 -0.2188  0.0205  0.3953
25017W        W42541   6.098   6.254   1.928  0.1609  0.3102 -0.1094
25018W        W42542   2.918  10.545   2.689  0.1237 -0.2259  0.0334
25019W        W42543   9.437   1.214  14.711  0.0141  0.0941  0.1217
25020W        W42544  12.951   8.244  12.749 -0.2277 -0.1384 -0.0008
25021W        W42545   1.016   9.564  14.554 -0.2119 -0.0748  0.0549
25022W        W42546  17.138  10.463   0.452  0.0389 -0.2499  0.2168
25023W        W42547   0.804   5.923   4.901 -0.0903 -0.3235 -0.1797
25024W        W42548  12.644  10.406   2.645 -0.0942 -0.1248  0.0172
25025W        W42549  12.879  16.524   3.067 -0.2285  0.2301 -0.1118
25026W        W42550  14.372  10.318  16.021 -0.0065 -0.0468  0.1916
25027W        W42551  15.773   3.098  15.709 -0.0225  0.1610 -0.0123
25028W        W42552   7.380   3.609  16.607 -0.1283  0.1365  0.1238
25029W        W42553   9.773   0.411  12.990  0.0299  0.1015  0.1119
25030W        W42554   9.216   1.493  15.057 -0.0356 -0.2510 -0.1039
25031W        W42555   4.906  12.062  16.887  0.1514 -0.1110  0.1207
25032W        W42556  12.065  16.213   3.244 -0.0889 -0.3164 -0.0068
25033W        W42557  16.058   1.935  13.144 -0.1405 -0.0431  0.0743
25034W        W42558   0.910   6.806  16.402 -0.2083  0.1394 -0.4157
25035W        W42559  12.042   4.702   4.013 -0.2523  0.2877  0.0882
25036W        W42560   5.658   9.608  11.232 -0.1635  0.0544  0.0053
25037W        W42561   3.298   4.949   1.346  0.0265 -0.1344 -0.0047
25038W        W42562  16.166   8.546   0.884  0.1834 -0.0798 -0.0301
25039W        W42563   8.275   5.719   2.230 -0.0618 -0.0351  0.0228
25040W        W42564   8.494  14.258  11.250 -0.1290 -0.2825 -0.0988
25041W        W42565  10.271   3.445  17.484 -0.0821  0.1138  0.1246
25042W        W42566  13.137   9.865  15.800  0.1580  0.1052  0.3985
25043W        W42567  11.731   9.001  13.240  0.0644 -0.0258 -0.0833
25044W        W42568  16.453   7.147   1.672  0.0260  0.4159 -0.0044
25045W        W42569  16.403   8.010   2.806 -0.0515  0.1596  0.0139
25046W        W42570   0.673  15.130   2.160  0.2017  0.1801 -0.2829
25047W        W42571   2.981   3.799  12.611 -0.0635 -0.0223 -0.0413
25048W        W42572   6.750   0.202  16.753  0.0801  0.0255  0.0431
25049W        W42573   1.286   7.241   0.407  0.3165  0.2158 -0.1189
25050W        W42574  13.161  13.963  17.293  0.1649 -0.0717  0.0084
25051W        W42575   7.977  10.345  14.833  0.2277 -0.0228  0.3317
25052W        W42576   4.087  16.843  15.837  0.1398 -0.0570  0.2575
25053W        W42577   5.963  14.903  15.842  0.0132  0.0123 -0.0388
25054W        W42578  10.187  16.774   3.008  0.2833 -0.0260 -0.0332
25055W        W42579   7.743  17.130   2.059  0.1421  0.0730  0.2246
25056W        W42580  16.722  11.856  14.330 -0.2889  0.0498 -0.1084
25057W        W42581   3.095   6.212  17.693 -0.0740 -0.1512 -0.2719
25058W        W42582   5.789  17.030  15.967  0.1737  0.0563  0.0773
25059W        W42583   6.742  15.408   4.498  0.1652  0.1107  0.0595
25060W        W42584  16.849  15.758  14.342  0.1465  0.0328 -0.0874
25061W        W42585   0.615   7.324   1.505 -0.3036 -0.1334  0.1043
25062W        W42586  13.038  11.904   4.166  0.1425  0.0927  0.2570
25063W        W42587  15.558   3.904  12.176 -0.3793  0.2501  0.3720
25064W        W42588  12.155   0.750   2.595 -0.1341 -0.2912 -0.0571
25065W        W42589   8.576   4.809   3.369 -0.0474  0.1227  0.2775
25066W        W42590  12.055   9.383  14.655  0.5541 -0.1184 -0.1730
25067W        W42591   5.373   9.842   4.463 -0.0943 -0.1988 -0.1812
25068W        W42592   8.224   8.630  14.677 -0.2904 -0.1222 -0.2768
25069W        W42593   1.598   8.425  15.851  0.0771  0.0150  0.1976
25070W        W42594  14.877  12.342   4.217 -0.0471  0.2708 -0.0640
25071W        W42595   3.639   9.381  17.702  0.0092 -0.1950  0.0189
25072W        W42596  10.428  14.705  13.574  0.0951  0.0860 -0.1242
25073W        W42597   9.835  16.012  16.321 -0.0952  0.0007 -0.2103
25074W        W42598   7.845   8.879  12.730  0.6150 -0.1043 -0.3719
25075W        W42599  15.962  11.139  16.882 -0.0069 -0.1124  0.3253
25076W        W42600  15.953  11.476  13.061 -0.0535 -0.2331 -0.1912
25077W        W42601  12.328   1.102  15.009  0.0507  0.0952 -0.2659
25078W        W42602   3.894   5.230   6.860  0.2222  0.0185 -0.3770
25079W        W42603   0.343   3.525   0.572 -0.2913  0.3299  0.0873
25080W        W42604   4.198  10.414   0.406 -0.1125  0.2001 -0.2212
25081W        W42605   6.814  11.119  17.132 -0.1335 -0.0002  0.3712
25082W        W42606  14.851  16.715  16.380  0.2197 -0.1544  0.1573
25083W        W42607   3.598  10.166   5.040  0.0641 -0.0403 -0.0207
25084W        W42608   9.469  16.554  12.008  0.0207 -0.0417  0.1552
25085W        W42609  12.500   9.593   5.294  0.0554  0.1127  0.0421
25086W        W42610   9.230  16.699  13.100  0.1514 -0.0264  0.0257
25087W        W42611   8.929   3.152  12.877  0.0341  0.1392 -0.0465
25088W        W42612  15.407  10.014   3.299 -0.2022  0.1655  0.0318
25089W        W42613   3.146   1.941  13.395  0.2378 -0.0454 -0.3328
25090W        W42614   7.308   1.901   0.739  0.1918  0.0898 -0.1691
25091W        W42615   2.686   6.480   3.717  0.0742  0.2372  0.3878
25092W        W42616   1.169  14.131   3.249  0.1068 -0.0465 -0.2621
25093W        W42617   6.791   8.317   2.822  0.2915  0.1021 -0.2362
25094W        W42618  11.304   8.483  16.188 -0.1253  0.0316 -0.0305
25095W        W42619   1.112   1.316  13.162  0.0761  0.0594  0.3223
25096W        W42620   1.046  11.559  17.224  0.0226 -0.0191 -0.0291
25097W        W42621   3.490   4.880  11.875 -0.0053  0.0854  0.1736
25098W        W42622  15.286  15.640  16.668 -0.1334  0.0584  0.0456
25099W        W42623   5.708   8.632  12.825  0.2731  0.0077 -0.5020
25100W        W42624   7.150   5.824  16.880 -0.0306 -0.0041 -0.4402
25101W        W42625   1.031   5.628   5.629  0.1621 -0.4184  0.2276
25102W        W42626   3.074   2.068  14.496 -0.2505  0.0892 -0.1256
25103W        W42627  13.128   3.943  15.496 -0.0974 -0.1319  0.3057
25104W        W42628   4.016   1.860  14.352  0.1847  0.0737  0.0483
25105W        W42629   8.298  12.412  11.262  0.0417  0.0562  0.3710
25106W        W42630  13.185   4.732   0.666 -0.3240  0.1793 -0.1651
25107W        W42631   8.133  12.948  12.898  0.1156  0.1925  0.0563
25108W        W42632   7.033   2.929   4.376  0.0839 -0.0073  0.2573
25109W        W42633   7.891   7.430  13.071  0.1337 -0.0262 -0.2519
25110W        W42634   3.260  12.775  12.850 -0.0274 -0.0035 -0.2210
25111W        W42635  13.180   8.094  15.710  0.3264  0.1021 -0.2779
25112W        W42636   7.849  17.114  14.183 -0.0367 -0.3688  0.0026
25113W        W42637  11.985   0.742  15.563 -0.2330 -0.0578 -0.0261
25114W        W42638  15.487  14.677   0.360 -0.1182  0.1109  0.0358
25115W        W42639  10.836  11.168  12.299  0.0688 -0.2088 -0.0401
25116W        W42640  14.434  11.573  16.855 -0.0363  0.0813 -0.0237
25117W        W42641   0.770   5.852   1.561 -0.0988  0.0220 -0.0358
25118W        W42642   9.791   3.677   0.940 -0.3391  0.0683  0.1805
25119W        W42643   9.201   6.501  17.049  0.1061 -0.0239 -0.0282
25120W        W42644   1.241   0.120  16.556 -0.1510  0.0295 -0.0505
25121W        W42645   2.889   5.942   1.073 -0.1159  0.0798 -0.0896
25122W        W42646   9.022  17.092  13.898 -0.4875 -0.1127  0.3035
25123W        W42647  16.870   8.615  12.653 -0.2817 -0.1447  0.1224
25124W        W42648  13.573   1.970  15.437  0.0538 -0.2980 -0.0313
25125W        W42649   3.452   8.957   5.289  0.4316  0.1365  0.0205
25126W        W42650   5.024   3.981  12.590 -0.0518  0.0867 -0.0768
25127W        W42651   2.493   6.604  14.468  0.2567  0.0867  0.0710
25128W        W42652   6.479   2.822  16.351  0.1765  0.2769  0.1761
25129W        W42653   9.042   9.318   0.094 -0.2431 -0.2627  0.2243
25130W        W42654  12.480  14.803  16.282  0.1685 -0.1783  0.2470
25131W        W42655  17.045   0.907   0.695 -0.2303  0.0008  0.3959
25132W        W42656  11.003  10.950   2.357 -0.0199  0.1535  0.0970
25133W        W42657  11.434   2.233  15.535  0.1060 -0.2177 -0.2371
25134W        W42658   6.201  12.105  11.842 -0.0655 -0.1365  0.1256
25135W        W42659  17.119   9.091   6.361  0.1990  0.0637  0.0752
25136W        W42660  14.677   3.200   0.275 -0.2699  0.1209 -0.0734
25137W        W42661   5.340   8.266  14.704 -0.0744 -0.1100  0.0775
25138W        W42662   3.856   0.759   2.424  0.2593  0.1312  0.0117
25139W        W42663  10.144   5.369   1.802 -0.0923  0.3367  0.0277
25140W        W42664   1.997   3.472   5.317  0.0551 -0.1724 -0.0083
25141W        W42665   7.963  11.941  12.160 -0.2103  0.4906 -0.1276
25142W        W42666  13.340   5.872   0.136  0.0309 -0.3143 -0.0956
25143W        W42667   9.054  11.246  13.074  0.1115  0.2137 -0.1963
25144W        W42668   3.196  16.628   5.572 -0.1056 -0.1128  0.2072
25145W        W42669   9.940   7.389   1.596  0.2085  0.0039 -0.1974
25146W        W42670  16.949  15.777  17.714  0.2607  0.5197  0.2411
25147W        W42671   7.878   9.166   1.118 -0.2332  0.0425 -0.0534
25148W        W42672   3.734   3.141  13.711 -0.0654 -0.1352 -0.1068
25149W        W42673   3.397  12.668   0.353  0.1386  0.3371 -0.2304
25150W        W42674  11.368  15.093  13.729  0.1973 -0.0204  0.0656
25151W        W42675  14.450   8.406   5.417  0.0769  0.1795  0.0291
25152W        W42676   5.053   3.856  17.726 -0.0409 -0.1097 -0.0042
25153W        W42677   6.810   3.007  17.112 -0.0115 -0.1416 -0.2550
25154W        W42678  10.461  14.901  14.611 -0.1516  0.2152 -0.1018
25155W        W42679  13.327   7.650  14.488 -0.1355  0.0492  0.2304
25156W        W42680  16.982  16.523   3.688  0.2910  0.1798  0.1124
25157W        W42681  14.694   3.127   1.176  0.0083  0.0784  0.0821
25158W        W42682  17.158   6.442   4.950  0.1388 -0.0958  0.2652
25159W        W42683   9.325  17.057   4.442  0.0381 -0.1889  0.0488
25160W        W42684  14.484  14.439  12.882 -0.0409  0.1561  0.2661
25161W        W42685   4.516   6.828  16.392  0.0724  0.0568  0.0547
25162W        W42686  16.797  16.896   0.672 -0.1342  0.0750 -0.1174
25163W        W42687   3.418  10.771   3.330  0.1308 -0.1020 -0.0052
25164W        W42688   8.616   4.468  12.410  0.4319  0.0021 -0.3360
25165W        W42689  15.375   3.316  15.536 -0.0828  0.1320  0.1779
25166W        W42690  13.884  16.853   0.520  0.0634  0.0268  0.1771
25167W        W42691   7.854  14.109   1.189 -0.2749 -0.1094  0.1360
25168W        W42692   6.781  16.052  14.756 -0.3510  0.0612  0.0405
25169W        W42693   1.468   4.768  15.509 -0.0668 -0.0135  0.3231
25170W        W42694  12.553   6.539   3.470 -0.0393  0.1851  0.0016
25171W        W42695  10.337  14.232  12.920  0.1208  0.1875 -0.1104
25172W        W42696   7.445   9.535  15.895  0.1428 -0.2662 -0.1457
25173W        W42697   4.746   5.296  15.226 -0.1514  0.0833  0.1486
25174W        W42698   7.043   4.018   3.513  0.1283  0.1131  0.1013
25175W        W42699   8.970  14.217  12.482  0.1757 -0.2254 -0.1324
25176W        W42700   8.163   4.440  14.624 -0.0436  0.3393  0.0579
25177W        W42701   3.927   9.028  14.091 -0.0710  0.2536  0.0502
25178W        W42702   1.257  10.444   4.971 -0.2152 -0.3447 -0.0510
25179W        W42703   2.248   4.798   3.880  0.0706 -0.2096  0.1084
25180W        W42704  14.129  16.805  12.628 -0.0004  0.0770  0.4499
25181W        W42705   8.231   6.357  15.130  0.0647  0.0935  0.0391
25182W        W42706   3.720   6.977   4.142 -0.0388  0.0352 -0.0028
25183W        W42707   0.062   6.319   3.055  0.1674 -0.2655  0.1508
25184W        W42708  13.914  15.083   1.293 -0.5480  0.0017  0.1327
25185W        W42709   2.906  15.414  12.671  0.1243 -0.0396 -0.1117
25186W        W42710   2.770   4.096  14.733 -0.2345 -0.0581  0.1299
25187W        W42711  11.800   9.366   1.418  0.0433 -0.1290  0.0975
25188W        W42712  16.684   2.282   2.911  0.1225  0.2128 -0.1746
25189W        W42713  15.414   5.171   4.917 -0.0361 -0.2677 -0.1694
25190W        W42714   9.013  15.244   4.650  0.1971 -0.0633  0.2836
25191W        W42715  16.532   0.913   3.314 -0.1138  0.3445 -0.1226
25192W        W42716   4.879   1.029  12.640 -0.2454  0.1754  0.0103
25193W        W42717   2.278   3.974   1.406  0.1040  0.1131  0.0739
25194W        W42718   2.500  11.822  13.320  0.0867  0.0250 -0.1195
25195W        W42719  16.967   9.267   5.581 -0.0918  0.2983  0.0348
25196W        W42720   8.292  11.594  14.226 -0.1152  0.0757 -0.1272
25197W        W42721  17.118  10.543  15.672 -0.0965 -0.0011  0.2381
25198W        W42722   1.589   5.626  16.463 -0.1994  0.0688  0.2958
25199W        W42723  11.894  14.994  16.304  0.0200 -0.1348  0.0200
25200W        W42724   3.586   1.093  15.125 -0.0273  0.1034  0.2488
25201W        W42725   6.173   2.546   4.539  0.0650  0.0720 -0.0986
25202W        W42726  10.215   0.247   5.017  0.0724 -0.2286 -0.2837
25203W        W42727  13.025   8.673   0.458 -0.0056 -0.1243  0.2756
25204W        W42728   6.979   2.782  13.679  0.2694 -0.1031  0.1814
25205W        W42729   5.434   8.180   2.621 -0.2056 -0.2058  0.1433
25206W        W42730  13.274   6.675   0.928  0.0200  0.0492 -0.1266
25207W        W42731   7.860   4.347  12.708  0.0297 -0.0318  0.1367
25208W        W42732   1.110   0.034   5.802 -0.1803  0.0421 -0.0865
25209W        W42733  16.571  12.601   4.194  0.2675 -0.0167  0.4871
25210W        W42734   7.788  14.870   2.291 -0.2408 -0.2272  0.0147
25211W        W42735   8.076  13.273   4.887  0.0642  0.1209 -0.3994
25212W        W42736  13.120  10.218   3.883  0.0311  0.0308 -0.1899
25213W        W42737  15.877   2.491  13.609 -0.0222  0.0984  0.3134
25214W        W42738  13.239   2.790   1.092  0.1076 -0.2174  0.0388
25215W        W42739  10.400  12.566   2.315  0.2218  0.0123 -0.0918
25216W        W42740  16.476   1.742  17.072  0.0237  0.2069 -0.0864
25217W        W42741  17.124  14.274   4.048  0.1673 -0.0931  0.2498
25218W        W42742  15.692  16.584   3.661 -0.1741  0.5350  0.3594
25219W        W42743   3.733   2.439  13.104 -0.2800  0.0485  0.0789
25220W        W42744  11.990   7.988   4.394 -0.1122 -0.0085  0.1423
25221W        W42745   8.624   2.405   0.560 -0.0732 -0.2399  0.1815
25222W        W42746   2.370   7.180  15.016  0.1227 -0.0103  0.0555
25223W        W42747   0.705   0.742   5.690 -0.0522  0.3020  0.2008
25224W        W42748   1.033  16.529   2.198 -0.1495  0.0042  0.2423
25225W        W42749  10.356   9.322  13.764 -0.3158 -0.0142 -0.1102
25226W        W42750   3.110  14.150  17.383  0.1728 -0.3591  0.1248
25227W        W42751  12.362   9.694  13.236  0.1692  0.0743 -0.1707
25228W        W42752   8.127  16.942  11.697 -0.1230  0.0427  0.0914
25229W        W42753   6.923   3.640  14.682  0.0233  0.0782 -0.0721
25230W        W42754   0.795   0.613   0.946 -0.0604  0.0659  0.2463
25231W        W42755  14.656   7.518   4.404 -0.0361  0.1563  0.0889
25232W        W42756  13.439  12.213  12.495 -0.0220  0.3607  0.0090
25233W        W42757  14.292   9.214   0.420 -0.2280  0.0687 -0.1262
25234W        W42758   6.586  16.024   5.733  0.1960 -0.0842 -0.2050
25235W        W42759  11.613   6.837   4.660 -0.1868 -0.0933  0.0811
25236W        W42760  16.103  14.174   3.418 -0.0567 -0.0128  0.0216
25237W        W42761   8.819   4.931  15.654 -0.1017 -0.0200  0.3104
25238W        W42762   3.092   5.306   0.408  0.0093  0.1737 -0.0911
25239W        W42763   1.213   5.942   6.430  0.0870 -0.1277  0.2579
25240W        W42764  14.305  16.017  16.873  0.2652  0.1714  0.1110
25241W        W42765  13.814  10.144   0.296  0.2498  0.0252  0.2230
25242W        W42766   6.071   3.899   1.972 -0.2067  0.2607 -0.0215
25243W        W42767  15.514   3.833  13.056 -0.2880  0.0729 -0.0979
25244W        W42768   7.155   1.684   4.977 -0.1946  0.1084 -0.2850
25245W        W42769  10.194   2.400   3.404 -0.0230 -0.0342  0.1318
25246W        W42770   4.623  11.459   0.880  0.0454 -0.2793  0.0192
25247W        W42771   1.706   2.746   3.179  0.0539 -0.1043  0.3973
25248W        W42772   2.350   3.672   5.640  0.0529 -0.0577 -0.0724
25249W        W42773   6.404  11.379   5.405 -0.3665 -0.0439 -0.0832
25250W        W42774   6.609  14.672  16.521 -0.0218  0.2008  0.2918
25251W        W42775  16.867  16.919   5.747 -0.2716 -0.0778  0.2380
25252W        W42776   3.965   0.537   1.020 -0.1557 -0.4857 -0.1911
25253W        W42777  11.323   4.603   2.017 -0.0029  0.1452 -0.0976
25254W        W42778  10.430  12.645   4.842 -0.1165 -0.1745 -0.2854
25255W        W42779  13.076   9.911   4.820  0.0910  0.1284  0.1053
25256W        W42780   7.291   1.618  13.347 -0.1308 -0.0389  0.0696
25257W        W42781   1.979   9.574  13.217 -0.0722 -0.0994 -0.0252
25258W        W42782   6.097   2.742  15.911 -0.0803 -0.0417 -0.0087
25259W        W42783  15.219   3.713   5.238  0.0855 -0.2157 -0.0386
25260W        W42784  16.217   2.363  12.279 -0.0685 -0.4671  0.0513
25261W        W42785  14.651  15.923   2.086 -0.2284 -0.0726 -0.1717
25262W        W42786   4.629  11.313   4.432 -0.1592  0.1270  0.1610
25263W        W42787   0.238  14.012  16.936 -0.2676 -0.0144  0.0461
25264W        W42788  16.066   5.186   5.724 -0.1106  0.1214  0.1337
25265W        W42789  14.411  16.025   5.570 -0.1934  0.0829  0.3065
25266W        W42790   9.292  16.111  14.108  0.0975 -0.0369  0.2133
25267W        W42791   0.169  11.103   5.746 -0.2012 -0.3090  0.0061
25268W        W42792  17.070  10.914  13.492 -0.0995  0.0748 -0.3908
25269W        W42793   2.215  11.275  12.519 -0.2724 -0.2150  0.1972
25270W        W42794  13.849   0.730  17.400 -0.2232 -0.2455  0.0946
25271W        W42795   1.494   6.869  15.329 -0.1819  0.2644  0.1022
25272W        W42796   0.845  12.797  16.665 -0.1764 -0.0835  0.0881
25273W        W42797  13.753   7.320  14.519 -0.0612 -0.0501 -0.3821
25274W        W42798   7.430  15.726   5.065 -0.0442 -0.1836 -0.0894
25275W        W42799   9.239  12.898  14.294  0.0718  0.0984  0.0269
25276W        W42800  15.163   2.208   1.001 -0.2096  0.0097  0.0334
25277W        W42801  10.109  13.289   1.062 -0.1799 -0.1101  0.0580
25278W        W42802   0.718   1.224   1.303 -0.0352 -0.1864  0.0008
25279W        W42803  10.885  13.941   2.575  0.0422 -0.3551 -0.0095
25280W        W42804   9.550   4.036  15.373 -0.0354  0.1391  0.0636
25281W        W42805  15.078   9.881  15.546 -0.2330  0.1047 -0.0311
25282W        W42806   7.195   0.480   0.481  0.0302  0.2155  0.1089
25283W        W42807  10.439  11.575  12.394  0.0720  0.0376 -0.2796
25284W        W42808   2.735  10.049   2.497  0.1996  0.0312  0.0518
25285W        W42809   9.920   3.790  17.140  0.0353 -0.1131 -0.1815
25286W        W42810   4.536  16.149   0.367 -0.0980 -0.0971  0.1114
25287W        W42811   0.871  10.610   0.288  0.2111 -0.1102 -0.2609
25288W        W42812  15.759   5.912  16.693  0.0727 -0.2087  0.2194
25289W        W42813   6.916  15.106   2.598  0.1227 -0.2009 -0.0013
25290W        W42814  14.535  11.702   0.643 -0.2463 -0.1187 -0.0807
25291W        W42815   9.097   1.508   1.606  0.3019  0.0181  0.1017
25292W        W42816   5.039  10.006   2.032 -0.0806  0.0974 -0.1803
25293W        W42817   2.264   7.033  14.537 -0.2290 -0.0793 -0.1343
25294W        W42818   8.755  10.472   3.365 -0.0467  0.0992 -0.0745
25295W        W42819  14.863  12.112  14.650 -0.0685  0.0625 -0.0487
25296W        W42820   3.314   7.483   1.035 -0.0033 -0.1109 -0.0613
25297W        W42821   4.653   6.872  14.130 -0.4712  0.2248  0.3298
25298W        W42822  10.044   2.940   3.193 -0.0372  0.1401 -0.0616
25299W        W42823  10.304   9.090  17.131  0.1982 -0.1485 -0.1537
25300W        W42824   0.923   9.863   0.416  0.0178 -0.0209  0.1739
25301W        W42825   8.698   1.369   5.752  0.2042 -0.1121 -0.2736
25302W        W42826   4.549  16.080  14.028 -0.2232 -0.0968  0.3220
25303W        W42827  14.842   1.869   2.446  0.2736 -0.0169 -0.2005
25304W        W42828   5.052   8.402  15.655 -0.1482 -0.3539  0.5561
25305W        W42829  10.209  12.073   0.920 -0.1405 -0.0507  0.0710
25306W        W42830   8.866   0.960   0.964 -0.3413  0.0323 -0.0217
25307W        W42831  11.143   5.327  13.234 -0.0548 -0.1580  0.0125
25308W        W42832   1.167  16.415  14.141  0.1600  0.0390  0.0106
25309W        W42833   0.571   8.502   2.298  0.0242 -0.0854 -0.0490
25310W        W42834  16.117   5.575  13.811 -0.1550  0.3100  0.3737
25311W        W42835   8.091   0.617  14.796  0.0822 -0.3077  0.2261
25312W        W42836   2.752   6.683  14.002 -0.0928  0.1400 -0.1420
25313W        W42837   2.100   2.473  14.831  0.1468  0.1879  0.1134
25314W        W42838  14.060  10.197  12.200 -0.1492  0.0160  0.0597
25315W        W42839   5.984   8.882  11.142 -0.1300 -0.0909 -0.2433
25316W        W42840   7.030   7.271   4.654  0.0505  0.0058  0.3036
25317W        W42841   4.391   1.298  12.419 -0.1538  0.0205  0.1154
25318W        W42842   9.329   3.856  14.419 -0.0943  0.3888 -0.1093
25319W        W42843   2.829  13.879  12.318  0.1311  0.0070  0.0909
25320W        W42844   0.133   3.068   1.345  0.0877 -0.1333  0.1224
25321W        W42845  12.551  14.224   2.909 -0.2487  0.0649  0.0301
25322W        W42846   7.213   3.119   3.960  0.1238 -0.1001  0.1095
25323W        W42847  12.473  11.240   4.330  0.1311 -0.1203 -0.0860
25324W        W42848   8.297  15.809  14.374 -0.1065  0.0026  0.1539
25325W        W42849  11.030   5.916  12.457  0.3098  0.0636 -0.0145
25326W        W42850  13.167   4.003  12.492  0.1848  0.1466  0.0865
25327W        W42851  17.058   8.101  15.698 -0.1402 -0.0403  0.2827
25328W        W42852   9.131  10.589  12.157 -0.0468  0.0837  0.2423
25329W        W42853  16.593  13.960   5.248 -0.1501 -0.0386 -0.3392
25330W        W42854   4.348  10.764   3.303 -0.0232 -0.0225 -0.0278
25331W        W42855  15.252  13.886   0.150  0.3047  0.2047 -0.1652
25332W        W42856   6.660   5.613   5.371 -0.3394  0.2557 -0.1381
25333W        W42857   4.122   1.187   5.179 -0.0079 -0.1281 -0.0677
25334W        W42858   7.344   9.251  16.730 -0.1097  0.1078  0.1107
25335W        W42859   5.371   5.414  15.896  0.2489 -0.0792  0.2769
25336W        W42860  11.891  11.011  14.513  0.0151 -0.1717 -0.0559
25337W        W42861   9.766   6.967  13.621  0.0775  0.2471  0.0687
25338W        W42862  13.356   7.577  16.871 -0.0223 -0.0491  0.3054
25339W        W42863   5.030  14.085   1.386  0.4981  0.1883  0.1239
25340W        W42864   5.135  13.629  17.429  0.0253  0.1119 -0.1480
25341W        W42865   9.157  11.575  12.630  0.2897  0.0908  0.0138
25342W        W42866   3.645   3.104  14.865 -0.0373 -0.0196 -0.0698
25343W        W42867   7.976  16.590   2.779  0.1665  0.0574  0.0625
25344W        W42868   0.570   3.566   5.369 -0.2309 -0.1796 -0.0509
25345W        W42869  13.563   8.756  15.851 -0.2577  0.1510  0.0675
25346W        W42870  16.650   8.539  16.814 -0.0190 -0.1156  0.0325
25347W        W42871  10.549  12.977   2.698  0.2082 -0.3136 -0.0294
25348W        W42872   4.452   4.601  16.887 -0.1277  0.0573 -0.2619
25349W        W42873  14.864   7.878   0.068  0.2115  0.0223  0.1739
25350W        W42874  15.991  10.239  13.027  0.1033 -0.3974  0.0651
25351W        W42875   9.660   4.500   2.833  0.3292  0.1891 -0.2857
25352W        W42876   5.664  16.208   4.064 -0.0137  0.0591 -0.2105
25353W        W42877  12.300   3.120   0.823 -0.2561 -0.0646 -0.3064
25354W        W42878  15.526   0.328  16.105  0.1821 -0.2005 -0.0817
25355W        W42879  15.027  13.537   2.919  0.1804 -0.0211  0.1412
25356W        W42880   4.590  15.935   5.089  0.1219 -0.1568 -0.0913
25357W        W42881   3.107  13.695   4.603 -0.1255  0.1714 -0.0056
25358W        W42882   4.492   3.049   4.015  0.0204  0.1878 -0.4179
25359W        W42883   7.264  11.992  15.630  0.1179  0.0911  0.1475
25360W        W42884   1.532   9.540  12.753 -0.1368 -0.1077 -0.0500
25361W        W42885  15.157  12.833  17.116  0.0399 -0.4777 -0.1544
25362W        W42886   6.555  13.482  12.434  0.1295  0.0784 -0.2224
25363W        W42887  13.702  12.093  14.101 -0.1737 -0.0800  0.0140
25364W        W42888   6.349   0.163   2.548 -0.2673  0.0177  0.2446
25365W        W42889  16.735   6.767  15.203 -0.0176  0.0811  0.0558
25366W        W42890  14.354  12.314  16.218 -0.0305 -0.1079  0.0407
25367W        W42891   7.227  13.202   0.337 -0.0494 -0.0019  0.3919
25368W        W42892   0.784  14.994   2.641 -0.0217 -0.0873 -0.2293
25369W        W42893  11.265  15.251   4.281 -0.2862 -0.0660  0.1083
25370W        W42894  12.887  10.670  16.845  0.1581  0.2080 -0.2672
25371W        W42895   1.779   9.844   0.891 -0.1755  0.2316 -0.0931
25372W        W42896   5.359   3.279   1.221 -0.3356 -0.1824  0.2640
25373W        W42897   9.226   7.721   0.368  0.0639 -0.1014 -0.1016
25374W        W42898   7.555  12.402  15.188  0.1272 -0.1940  0.1344
25375W        W42899   8.155  12.429   1.868 -0.0168 -0.0110  0.0421
25376W        W42900  13.859   6.033  14.533  0.1430 -0.1049 -0.0637
25377W        W42901   8.101   2.882  11.373 -0.0316  0.1999  0.2353
25378W        W42902  14.563   4.877  15.112  0.0440  0.0310  0.0064
25379W        W42903  10.960   5.262   4.581 -0.1163 -0.1679 -0.1335
25380W        W42904   4.763   6.445   4.122  0.0540  0.2622 -0.4851
25381W        W42905  12.071  13.835  15.281  0.2068  0.3786 -0.1656
25382W        W42906  14.581   3.961   2.421 -0.0153  0.0804  0.1777
25383W        W42907  13.585  16.706  14.319 -0.1071 -0.1338  0.1517
25384W        W42908  12.568  13.914   4.214  0.0562 -0.2909  0.3295
25385W        W42909   3.729   5.084   1.143  0.0676 -0.0285 -0.0310
25386W        W42910   4.665  13.861  12.793  0.0128 -0.0848  0.0884
25387W        W42911  13.882   8.723   0.148 -0.0622  0.0539 -0.3373
25388W        W42912   1.433   4.521   3.430  0.0538  0.2250 -0.2591
25389W        W42913  11.655  15.847  13.636 -0.0100 -0.0717 -0.0184
25390W        W42914   4.863  12.145   4.631  0.2210  0.3850 -0.0594
25391W        W42915  13.121   6.775  16.487  0.1642  0.0305  0.0326
25392W        W42916   4.094  15.756   4.862 -0.0460 -0.0170 -0.1757
25393W        W42917   5.014   0.690   5.123  0.0052 -0.1124  0.1236
25394W        W42918   0.631   1.951   4.197 -0.1333 -0.1152  0.1836
25395W        W42919  11.142   1.086   3.687 -0.2967 -0.1472  0.3193
25396W        W42920   4.377  14.160  16.614  0.0310 -0.1262 -0.0042
25397W        W42921  14.628   1.181   0.760 -0.0726 -0.0298  0.1070
25398W        W42922   2.937  13.230  12.829 -0.1047 -0.1053 -0.1258
25399W        W42923  14.444   7.348   3.933 -0.2122 -0.0221 -0.0339
25400W        W42924   8.414  10.830   2.267 -0.0997  0.0062  0.2058
25401W        W42925   5.114  10.626  15.954 -0.0256  0.1119 -0.1126
25402W        W42926   1.439   3.887  17.559  0.2470  0.4253 -0.1859
25403W        W42927   0.625  12.355  13.482  0.2315  0.0998  0.1484
25404W        W42928   1.865  15.392  14.048  0.3327 -0.0728  0.2076
25405W        W42929  15.947   3.338   4.586  0.2945  0.1503 -0.3309
25406W        W42930  13.827  16.456   0.963 -0.2393  0.0336  0.1456
25407W        W42931   5.071  15.034   4.911 -0.3667  0.3129 -0.0797
25408W        W42932   4.303  15.662   5.443 -0.1425 -0.2582  0.0879
25409W        W42933   6.297   2.868   2.251 -0.0104 -0.0778  0.4212
25410W        W42934   0.659  10.428   4.525 -0.2187  0.0528  0.1578
25411W        W42935   3.827   3.638  14.097 -0.0943 -0.0334  0.1101
25412W        W42936  10.764   7.896  16.783 -0.1098 -0.1122  0.1335
25413W        W42937   2.526   8.903  14.466 -0.1750  0.0030 -0.0841
25414W        W42938   3.715  15.004   5.337 -0.0872  0.0788  0.1878
25415W        W42939  15.452  12.674  15.856 -0.0188  0.2372 -0.3491
25416W        W42940   4.107   8.124   2.076 -0.1643  0.3223  0.3043
25417W        W42941   5.626  13.038  17.598 -0.1145  0.3026 -0.1283
25418W        W42942   4.915   4.563   2.189 -0.2683  0.2453 -0.0039
25419W        W42943   2.777   8.314  15.444  0.1538  0.2305 -0.1238
25420W        W42944   3.544  11.101  14.747 -0.0110 -0.0332  0.2771
25421W        W42945   2.104   9.914  12.797  0.0274  0.0458 -0.0011
25422W        W42946   8.541  12.037  16.119  0.1198  0.0882 -0.1225
25423W        W42947   6.204   6.898   4.998  0.1678  0.1434 -0.2604
25424W        W42948  14.811  13.684   2.195  0.0418 -0.2362  0.2627
25425W        W42949   2.425   1.053  15.424 -0.1595 -0.1121 -0.1385
25426W        W42950  15.026   9.781  14.621  0.0116  0.0908 -0.1643
25427W        W42951   3.826   6.810   3.307  0.1357  0.4371  0.0442
25428W        W42952   5.564   1.059  16.536  0.1768  0.4177 -0.0181
25429W        W42953   2.367  10.244   0.197  0.0133 -0.0723 -0.4284
25430W        W42954  11.847   8.105  15.716 -0.0319 -0.2897 -0.3618
25431W        W42955  15.501   8.266  13.392  0.0347 -0.2198  0.1755
25432W        W42956   2.733  10.919  14.936 -0.1556 -0.0878  0.1953
25433W        W42957   6.910   8.141  16.512 -0.0519  0.2350 -0.1854
25434W        W42958   3.101  12.634   3.204 -0.2170  0.0341  0.1233
25435W        W42959   9.949   4.372   0.228  0.3277 -0.0094  0.2680
25436W        W42960  14.694  15.140  13.916 -0.2459  0.0504  0.1315
25437W        W42961   8.365  14.469  13.960 -0.0602  0.2692  0.0629
25438W        W42962   0.111  14.445  17.195  0.0978  0.1686 -0.0519
25439W        W42963   2.196  15.917  13.035  0.2134  0.1924 -0.0443
25440W        W42964   1.286   7.106   5.239 -0.1321 -0.3099 -0.2970
25441W        W42965  15.430   6.576  14.095 -0.0265  0.0435  0.0119
25442W        W42966  17.010  11.397  13.696  0.2265 -0.0464 -0.0116
25443W        W42967  13.576   3.179   1.090  0.0647  0.2877  0.1843
25444W        W42968  16.669   4.909   2.103 -0.4314  0.3887 -0.4062
25445W        W42969  16.248  14.120  15.700 -0.4492  0.1731  0.0014
25446W        W42970   6.237   0.277  17.059 -0.0020  0.1755  0.2102
25447W        W42971   5.384  13.135   4.236  0.0324  0.0911 -0.0862
25448W        W42972  14.480   2.888   3.214 -0.0196  0.0964 -0.1104
25449W        W42973  15.135   3.602   5.807  0.0164  0.2779 -0.0436
25450W        W42974   6.621   8.360   5.407  0.0456 -0.0377 -0.1977
25451W        W42975   7.736   7.148  16.652 -0.3357  0.3041  0.0644
25452W        W42976   5.383   5.840   5.430  0.0529 -0.1098  0.1018
25453W        W42977  15.712   9.025   5.015 -0.2003  0.0154 -0.0194
25454W        W42978  13.344   5.896   5.633 -0.2196 -0.0145  0.3591
25455W        W42979   3.812  16.176  16.428 -0.1248 -0.2339 -0.0039
25456W        W42980   1.874   6.149   0.972 -0.1662 -0.2294 -0.0240
25457W        W42981  11.999   7.360   1.168  0.3579 -0.2028  0.1776
25458W        W42982   7.298  16.298   1.604  0.0354 -0.0241  0.1626
25459W        W42983   7.916   8.097  17.349 -0.0353  0.0460 -0.1227
25460W        W42984   6.588   5.332  12.441  0.0232 -0.0404  0.2322
25461W        W42985  11.330  12.895   2.620 -0.1319  0.1535 -0.0737
25462W        W42986   7.265  11.216   2.940  0.2082 -0.0732 -0.0216
25463W        W42987   5.261   8.880  12.558  0.0298 -0.0457  0.2305
25464W        W42988   3.008   7.591  13.577  0.1900 -0.0033  0.0305
25465W        W42989   4.997  12.905   0.990  0.0695  0.2645 -0.3506
25466W        W42990   4.457  15.679  13.555  0.1901 -0.1552  0.0967
25467W        W42991   7.486  11.050  15.320 -0.1885 -0.2061  0.0541
25468W        W42992   5.247   7.108   3.743 -0.3126 -0.1834 -0.4289
25469W        W42993   8.917   9.838   0.870 -0.0007 -0.0111 -0.0566
25470W        W42994  10.674   8.871  16.798 -0.0713 -0.0624  0.1035
25471W        W42995  13.313   0.648  17.269 -0.0901 -0.4677 -0.3555
25472W        W42996   8.789   4.373   2.656  0.1560 -0.2128  0.2755
25473W        W42997  12.641   1.624   0.521 -0.0909  0.0731  0.2263
25474W        W42998   3.776   7.938  17.590 -0.1128  0.0108  0.1081
25475W        W42999   3.046  10.667   1.042  0.2723 -0.1720  0.0349
25476W        W43000   1.701   0.843   3.344  0.4439 -0.0837  0.0050
25477W        W43001  14.648   2.394   3.122  0.0192 -0.1333  0.0459
25478W        W43002   3.979  16.887  14.683  0.1295  0.0487  0.0642
25479W        W43003  15.607  10.850   3.353 -0.1539  0.0393  0.1022
25480W        W43004   9.218  12.843  13.393 -0.0432  0.2019  0.3068
25481W        W43005  10.666   0.458  16.968  0.1150  0.0138 -0.1705
25482W        W43006  11.663  13.657  16.582 -0.2788  0.2151 -0.1287
25483W        W43007  16.951   6.729  12.425  0.0285  0.0399  0.1881
25484W        W43008   7.839  13.480  13.223 -0.0547 -0.0987 -0.0778
25485W        W43009  14.008   0.500   4.375 -0.1825 -0.1147 -0.1013
25486W        W43010  14.312   0.012  13.464  0.2871  0.1835  0.1332
25487W        W43011   0.583  13.497  17.111 -0.1526  0.0235 -0.4146
25488W        W43012   6.293  14.835  14.794  0.1623  0.3204 -0.0774
25489W        W43013   1.453  16.826   5.735 -0.1545  0.0252  0.0454
25490W        W43014  10.167  12.629  13.905  0.0242 -0.1611  0.1394
25491W        W43015   9.873  16.937  16.247 -0.3018  0.4539 -0.0024
25492W        W43016   2.292   4.942   2.362 -0.0818 -0.0942 -0.0111
25493W        W43017   9.729   7.242  15.726 -0.1646  0.0792 -0.1537
25494W        W43018   9.879   9.128   2.487  0.0004 -0.1598  0.1473
25495W        W43019  13.175  15.700  13.370 -0.1392  0.1060 -0.3698
25496W        W43020  14.867   2.799   4.035 -0.0114  0.0034 -0.1204
25497W        W43021   3.391   9.411  15.746  0.0466 -0.0752  0.0776
25498W        W43022   6.221  15.939   2.334  0.2497  0.1280 -0.0859
25499W        W43023   4.824   1.341   1.559  0.0109 -0.1573  0.2536
25500W        W43024  10.501   9.593   0.830 -0.2586  0.1813  0.0358
25501W        W43025  15.902  13.184   3.679 -0.0413  0.1383 -0.1483
25502W        W43026   1.891  11.608   2.251  0.1052 -0.0266 -0.0180
25503W        W43027   3.309  10.927  16.809  0.0354  0.3704  0.1687
25504W        W43028   0.989   4.323   3.313 -0.4575  0.2476  0.3076
25505W        W43029   3.497   8.321  14.745 -0.1636 -0.2460 -0.3328
25506W        W43030   9.425   6.076  13.316  0.3855  0.0719 -0.1158
25507W        W43031   7.138   7.590  14.183  0.0617 -0.1367 -0.1078
25508W        W43032   6.079   1.818  13.506  0.3982 -0.4121 -0.0879
25509W        W43033  13.916  12.412  12.398  0.2257 -0.0027  0.0739
25510W        W43034   5.767   9.044   6.194 -0.0864  0.1579  0.0013
25511W        W43035   2.017   5.395  17.156 -0.0539  0.2303  0.1412
25512W        W43036   8.245   9.741  13.472 -0.1502 -0.0952  0.2225
25513W        W43037   0.206   9.879  12.930  0.3488 -0.2921  0.0809
25514W        W43038  17.064   7.392   0.961 -0.3656  0.0939  0.1129
25515W        W43039   9.870   0.685   4.077  0.0635  0.1861  0.0416
25516W        W43040  10.339   7.386   2.821  0.0516  0.1071  0.1411
25517W        W43041   2.616   0.300  14.023 -0.1415 -0.2315 -0.0013
25518W        W43042  10.021   3.294   0.612 -0.0121  0.0387  0.0472
25519W        W43043   3.403   3.459  16.647  0.0882 -0.1358 -0.0846
25520W        W43044   1.226   1.116   1.416 -0.0360  0.1620  0.0133
25521W        W43045   8.658   4.059  16.902  0.1624  0.1206 -0.1865
25522W        W43046   7.769  15.896  11.881  0.3200  0.1927  0.2222
25523W        W43047   9.237  13.926   4.750 -0.2712 -0.0749 -0.3834
25524W        W43048  17.010   9.394   1.939 -0.1485  0.1510 -0.2263
25525W        W43049   3.300  12.821   4.882  0.1988  0.1388  0.1728
25526W        W43050   4.724   5.050  14.610  0.0306 -0.2684  0.0673
25527W        W43051   4.145   0.550  15.547 -0.3576  0.2029  0.2737
25528W        W43052   1.457   3.922   5.755  0.2687  0.1392  0.1388
25529W        W43053   0.729   5.703   0.718  0.2758 -0.1743  0.0890
25530W        W43054  14.415  16.165  15.811  0.0228 -0.4348 -0.2619
25531W        W43055  12.388   1.508   1.403  0.2922 -0.3335  0.0590
25532W        W43056   9.326   5.671  13.625  0.2417  0.0139  0.0952
25533W        W43057   4.420   6.601   2.726 -0.2661  0.1191  0.2421
25534W        W43058  17.069  10.802   1.949 -0.0708  0.1040 -0.4185
25535W        W43059   7.828  10.108  12.110  0.1300  0.1129 -0.2383
25536W        W43060  17.122   3.521  11.704  0.3212  0.0874 -0.2266
25537W        W43061  15.569  15.104   1.446  0.0539 -0.0735 -0.1877
25538W        W43062  15.683   1.553  14.553 -0.1894 -0.1493 -0.1974
25539W        W43063  14.694   4.250  13.382  0.0338  0.1582 -0.1015
25540W        W43064   5.463   4.823  16.343 -0.0527  0.0750 -0.0197
25541W        W43065   5.091  10.681  13.958 -0.1596 -0.1490  0.2689
25542W        W43066  12.655  14.804  16.795 -0.1194 -0.3240  0.2499
25543W        W43067   6.503   6.520   3.700  0.0275  0.1652 -0.0185
25544W        W43068  11.134   9.595  17.176  0.3819  0.2042  0.3780
25545W        W43069   3.587  12.014  13.970  0.0671 -0.0730 -0.1576
25546W        W43070   7.557  17.062  13.260  0.2778 -0.1637 -0.3113
25547W        W43071   7.028   8.561  13.118 -0.3121  0.1976  0.1142
25548W        W43072  16.577   7.824   2.374 -0.2295  0.0238  0.0519
25549W        W43073  16.744  15.515  13.270 -0.0298  0.1725 -0.1484
25550W        W43074  10.069  15.378  11.458  0.1853 -0.2309 -0.1805
25551W        W43075  10.323   3.357  12.742 -0.0472  0.0407  0.1699
25552W        W43076  13.708  13.166   2.391  0.1543 -0.1751 -0.2233
25553W        W43077   5.501  10.435   2.705  0.0675  0.2868 -0.0347
25554W        W43078   2.287   8.194   4.292  0.4109  0.1042  0.0237
25555W        W43079   0.856   6.832   2.698  0.0092  0.0306  0.0098
25556W        W43080   3.063   6.777   3.405 -0.2225 -0.2338 -0.2451
25557W        W43081   0.082   1.278  17.497  0.1039  0.0983 -0.3739
25558W        W43082  15.749  12.659  13.597  0.1023 -0.2455 -0.2891
25559W        W43083   4.253  14.422   3.575 -0.0460  0.0720  0.0687
25560W        W43084   8.937  11.924  16.672  0.4119  0.0713 -0.1357
25561W        W43085  12.084   3.271  13.152 -0.1415  0.0701  0.3075
25562W        W43086  14.316   1.929  14.676 -0.0771  0.1375  0.0166
25563W        W43087  13.724   7.473   4.183  0.1334  0.3339  0.0051
25564W        W43088  14.452   4.355   0.499  0.1952 -0.1199  0.1453
25565W        W43089  14.481   1.353  13.618  0.1321  0.0065 -0.0441
25566W        W43090  11.411   0.567  16.726 -0.0173  0.0968  0.1219
25567W        W43091  10.240   7.684   2.406 -0.1480 -0.0520 -0.1587
25568W        W43092   2.946  14.534  16.464  0.0281  0.0404 -0.4529
25569W        W43093   8.629  10.920  16.335 -0.0239 -0.0766 -0.1059
25570W        W43094   2.292  13.172  16.061 -0.2729  0.2764 -0.3564
25571W        W43095   8.393  10.378   0.492 -0.0070  0.0331  0.1627
25572W        W43096  11.559   8.879   0.311  0.0826  0.3365 -0.2024
25573W        W43097  12.571   0.818  15.993  0.1876 -0.0631 -0.3560
25574W        W43098   4.436  10.412  13.358  0.0858  0.0746 -0.0089
25575W        W43099  11.952   3.915   3.768 -0.1639  0.1635 -0.1653
25576W        W43100  10.492  10.076  16.279 -0.0801 -0.1293  0.0035
25577W        W43101   5.120  15.010   3.099 -0.1068 -0.2025 -0.0203
25578W        W43102   1.186   4.838  17.304 -0.2297  0.1431 -0.2109
25579W        W43103   6.305   0.850  16.080 -0.3211 -0.0085  0.1579
25580W        W43104  10.880  12.348  15.598 -0.1794 -0.2522  0.0421
25581W        W43105   1.371   2.410  14.251  0.0581  0.0239  0.0352
25582W        W43106  15.590   0.347   0.018  0.1264 -0.1655 -0.1979
25583W        W43107  11.159   6.301  13.312  0.0747 -0.1987  0.2439
25584W        W43108   9.734   2.726   1.727  0.0435  0.1212 -0.1236
25585W        W43109  15.461   6.763   3.291  0.0259 -0.1326  0.0486
25586W        W43110   8.894   6.673   3.180 -0.0309  0.0777  0.0401
25587W        W43111   4.587   0.706  13.176 -0.1681 -0.0978 -0.0451
25588W        W43112   9.863   9.521  15.538 -0.2986 -0.1121  0.0067
25589W        W43113   4.059  14.517   0.979  0.2674  0.0768  0.2173
25590W        W43114   5.520  12.624  17.040 -0.1223  0.0249  0.0778
25591W        W43115   8.779   9.284   3.646  0.3833  0.3944  0.2188
25592W        W43116   5.171  14.010  17.045 -0.0734 -0.2334 -0.0010
25593W        W43117   7.856  13.577  16.389  0.1666  0.3366  0.2187
25594W        W43118   4.637  12.901  16.413  0.1086  0.3397 -0.1220
25595W        W43119   8.352  15.578   0.829  0.0389 -0.1405 -0.0376
25596W        W43120  10.658   2.421   2.097 -0.1491  0.2092  0.0505
25597W        W43121   9.594  10.319   5.061  0.2779  0.2515 -0.1374
25598W        W43122   3.138   1.120   4.609  0.0381  0.1316 -0.3602
25599W        W43123  10.431   7.956  13.314  0.0505  0.0184 -0.3388
25600W        W43124  16.962  11.785  17.062 -0.2319  0.2501 -0.0035
25601W        W43125   7.061  12.995   4.560  0.1946  0.0555 -0.2703
25602W        W43126   0.016   3.860   3.437  0.0804 -0.2758 -0.1078
25603W        W43127   6.281  15.730  15.666 -0.0605 -0.0943 -0.0436
25604W        W43128   0.072  11.438   1.408 -0.1033 -0.1515 -0.0161
25605W        W43129   8.573  12.440  15.178  0.1632  0.0837 -0.0684
25606W        W43130   5.713   0.301   3.859  0.0407  0.1172 -0.1944
25607W        W43131   4.953  11.275   0.133 -0.1303  0.0094  0.1125
25608W        W43132   1.151  10.147  13.275  0.2258 -0.1557 -0.0697
25609W        W43133  13.914  12.625  13.216 -0.2555  0.1019 -0.0969
25610W        W43134  13.531  14.395  17.427 -0.1662  0.0370  0.2466
25611W        W43135   2.341  12.839  16.929  0.1624  0.0648 -0.0532
25612W        W43136  12.412   4.876   5.387  0.2260 -0.0205 -0.2593
25613W        W43137   6.724  13.032   5.135  0.1801 -0.1178  0.3477
25614W        W43138   6.476   3.082  13.701 -0.0801 -0.0550  0.0644
25615W        W43139   9.356   4.834  12.400  0.1790 -0.1193  0.2364
25616W        W43140  14.121   6.123   0.630 -0.2629  0.1008 -0.0525
25617W        W43141   3.110   7.702   0.591 -0.0130  0.0518 -0.0550
25618W        W43142   1.171  12.607  16.232  0.0492  0.1544 -0.1592
25619W        W43143   6.443  15.369  12.077 -0.2823  0.0956  0.0150
25620W        W43144   4.496  14.593  15.477 -0.0082  0.0511 -0.0117
25621W        W43145   4.929   0.322  13.372 -0.1507  0.2066  0.2560
25622W        W43146  15.325   7.931  15.520 -0.2477 -0.1223 -0.0255
25623W        W43147   6.257  14.639   3.684 -0.1792 -0.2814  0.2679
25624W        W43148  14.766   5.861   1.355  0.0334  0.0742 -0.1743
25625W        W43149  14.363  11.842   5.411 -0.0745 -0.1453 -0.3191
25626W        W43150   9.464  15.936  10.796 -0.1966 -0.0758 -0.0654
25627W        W43151   7.313   9.057  15.867  0.1621 -0.3549  0.0257
25628W        W43152   9.793  15.686   2.747 -0.3464 -0.1786 -0.4002
25629W        W43153  13.187   6.004  14.803 -0.1234 -0.1792 -0.1143
25630W        W43154   3.787  15.972  12.576 -0.1942 -0.3524 -0.1298
25631W        W43155   9.404  14.471   1.429 -0.1543  0.3251 -0.0904
25632W        W43156  13.409  10.868   2.070 -0.2109  0.1981 -0.2367
25633W        W43157   9.942  16.546   0.521  0.2041  0.2706  0.2153
25634W        W43158  16.466   3.302  14.269 -0.2290 -0.0209 -0.0578
25635W        W43159   0.519  15.647   4.883  0.1521  0.0603 -0.0914
25636W        W43160   3.940   6.050   3.141  0.0484 -0.1210 -0.1232
25637W        W43161   0.081  10.044   1.304  0.1873 -0.0589 -0.0271
25638W        W43162  16.594   9.558   1.480 -0.2241  0.2305  0.1378
25639W        W43163   3.754   2.895   2.363 -0.1530  0.0426 -0.0278
25640W        W43164  13.592  14.348  16.453  0.1815 -0.0546  0.1271
25641W        W43165  15.018   4.618  12.693  0.4535 -0.2206 -0.0122
25642W        W43166   4.994  11.289   3.013  0.0752  0.1754  0.1116
25643W        W43167  12.933   6.708  15.416  0.0880  0.2314 -0.1523
25644W        W43168  14.112   3.433   4.577  0.1604 -0.1717  0.1476
25645W        W43169   9.966  13.663  14.166 -0.0102  0.2893  0.1351
25646W        W43170  13.657   9.084  15.400  0.1353  0.0833  0.1325
25647W        W43171  16.737  17.049  13.460 -0.2510  0.4304 -0.1804
25648W        W43172   5.001   9.017  17.419  0.1571  0.1896  0.2750
25649W        W43173  14.557   1.322  16.338 -0.0272 -0.0074  0.2450
25650W        W43174   8.012   7.314  15.173  0.2139 -0.2370  0.2057
25651W        W43175   2.225  12.298  16.147  0.2795  0.2811 -0.1508
25652W        W43176  14.373  14.092   5.033  0.0443  0.0080 -0.0858
25653W        W43177   7.425   3.702  13.160 -0.0810 -0.0303 -0.0378
25654W        W43178   8.638   1.585   4.751  0.0552  0.1758  0.1479
25655W        W43179   2.962  16.366  16.890 -0.1660  0.1404  0.3679
25656W        W43180  16.619   6.812  14.418 -0.0563  0.2158  0.2911
25657W        W43181  10.068   0.115  14.434 -0.0101  0.3506  0.1613
25658W        W43182   2.875   0.042   4.567 -0.1499  0.0005 -0.2753
25659W        W43183   1.585  11.359  15.063  0.3309 -0.1148 -0.2939
25660W        W43184   0.280  15.220  12.178  0.0898 -0.1243  0.0622
25661W        W43185   7.925   6.242  14.700  0.1481  0.0315 -0.0893
25662W        W43186   7.127   6.183   4.192 -0.1367 -0.1087 -0.0961
25663W        W43187   1.860   9.285   3.521  0.1482  0.2060  0.0967
25664W        W43188  15.006   6.721  14.402 -0.1436 -0.0647 -0.0087
25665W        W43189   3.711   2.914   1.447  0.0003 -0.0885 -0.0633
25666W        W43190  13.483   5.849   2.185  0.0905 -0.2070 -0.0701
25667W        W43191   0.397  14.158  14.543 -0.2138  0.2307  0.1328
25668W        W43192  11.627   3.183   2.637 -0.0306  0.0563  0.1624
25669W        W43193   1.990   0.221   3.944 -0.0456  0.1482  0.2617
25670W        W43194   4.274   1.590  16.819 -0.2747 -0.1342 -0.3978
25671W        W43195   3.728  14.961  14.138 -0.2786  0.3693  0.0257
25672W        W43196   3.925  14.064  16.915  0.0035  0.1214 -0.2089
25673W        W43197   5.473   1.832  15.929  0.0109 -0.2658 -0.1160
25674W        W43198  11.171  10.866  15.505 -0.0415  0.0942 -0.0359
25675W        W43199  11.093   9.939  16.765 -0.4208  0.1157  0.1856
25676W        W43200   4.437   5.034  12.262 -0.1152  0.0077  0.2060
25677W        W43201  12.687   6.572  14.212 -0.1585 -0.0384 -0.1162
25678W        W43202   5.934  10.780  16.492 -0.0064  0.0221 -0.0056
25679W        W43203  10.559  15.645  15.765 -0.4430  0.0552  0.2140
25680W        W43204  11.964   2.615   3.794  0.0026 -0.2112  0.2453
25681W        W43205   9.743  13.677  13.142 -0.0431 -0.3022  0.2230
25682W        W43206   0.328   9.005  17.235 -0.2013  0.1468 -0.3188
25683W        W43207   4.818   8.001  12.257 -0.2694 -0.1105 -0.1758
25684W        W43208   1.751  11.143   2.331  0.3510 -0.2425  0.2317
25685W        W43209   1.497   3.485  17.230  0.0286 -0.3556  0.1788
25686W        W43210  15.562  12.207  17.651  0.0527 -0.2188 -0.2976
25687W        W43211   9.707   0.562   5.248  0.0231  0.1256 -0.1472
25688W        W43212   2.598   5.431   3.236  0.0248  0.0995  0.1491
25689W        W43213   3.403   1.943  16.123 -0.1176  0.0178 -0.0472
25690W        W43214   3.459   4.780  17.610  0.0143  0.0489  0.1027
25691W        W43215   5.003   5.248  13.703  0.0498  0.0930  0.1174
25692W        W43216  16.200   9.662   4.981  0.1173  0.3754 -0.2849
25693W        W43217   4.975  12.264  15.282 -0.0322 -0.3016 -0.0393
25694W        W43218  14.507  11.724   1.334 -0.3118  0.2118  0.0102
25695W        W43219   5.179   9.054  13.624 -0.0158  0.0747  0.1224
25696W        W43220   0.335  17.060  12.605  0.1006 -0.1124 -0.0016
25697W        W43221   9.869   2.564  14.632 -0.1398  0.4315 -0.1936
25698W        W43222   7.777  13.480  15.819 -0.0873 -0.1639  0.1816
25699W        W43223   3.234   5.444   6.208  0.0551 -0.1570 -0.1813
25700W        W43224   7.108   2.922   0.528  0.0524 -0.0839  0.1353
25701W        W43225  15.049   1.920   3.418  0.0720 -0.1886 -0.3891
25702W        W43226  15.659   9.136  14.250 -0.3639  0.0655 -0.0983
25703W        W43227  11.742   0.975   2.915 -0.1030  0.1346 -0.1436
25704W        W43228   8.266   3.673  12.650  0.0168  0.2465  0.1511
25705W        W43229   0.931  10.770   3.703  0.0083 -0.1053  0.3264
25706W        W43230  16.440  14.141   2.954  0.2156 -0.0200 -0.0875
25707W        W43231   2.810  16.219   2.411  0.1352 -0.0330  0.3588
25708W        W43232  12.851   4.706  13.402  0.3063 -0.2728 -0.0138
25709W        W43233  15.073   6.333  15.014  0.1418 -0.0889 -0.4317
25710W        W43234   6.961   8.982  12.218 -0.0992 -0.0962 -0.0027
25711W        W43235  10.364  12.036   4.038 -0.0638 -0.2648 -0.1439
25712W        W43236   9.546   8.379  16.114 -0.0184  0.0521 -0.0912
25713W        W43237  15.079   3.558   0.425 -0.1884  0.0400  0.2216
25714W        W43238   9.157  12.719   5.182  0.2996 -0.1557 -0.0351
25715W        W43239  15.313   9.114  17.638 -0.6268 -0.0732 -0.1605
25716W        W43240  14.550  11.709  17.381 -0.0539  0.2729 -0.1601
25717W        W43241   4.355   2.452   5.640 -0.1826  0.2536  0.1056
25718W        W43242  16.483   2.613  12.677 -0.1845  0.0812 -0.2111
25719W        W43243   5.883   6.162   2.571 -0.0257  0.0289 -0.3695
25720W        W43244  15.360   6.673  12.607 -0.1678 -0.1336 -0.0936
25721W        W43245   1.251   6.063   5.382 -0.0088  0.1055 -0.1820
25722W        W43246  12.404  13.229  15.407 -0.1272 -0.1589  0.3375
25723W        W43247   6.394   7.814  12.565  0.1950  0.1085  0.0770
25724W        W43248   7.408  12.009   2.276 -0.0651  0.1679  0.0793
25725W        W43249   5.659  11.972   0.158 -0.2297 -0.4106 -0.1039
25726W        W43250   9.642   3.283  14.231  0.1394  0.0632 -0.0977
25727W        W43251   0.046  13.114   0.577  0.2692 -0.0562 -0.0592
25728W        W43252  12.521   9.913   1.710 -0.0015  0.1247 -0.0696
25729W        W43253   8.442   8.615   1.385 -0.1053  0.0439 -0.0807
25730W        W43254   6.752   0.383   4.755  0.3571  0.2300  0.1648
25731W        W43255  14.029   9.926   3.581 -0.0654 -0.0724  0.0368
25732W        W43256   3.865  13.532   0.838  0.2103  0.0071 -0.0287
25733W        W43257  11.827  10.084   2.690 -0.3510 -0.2322 -0.2928
25734W        W43258  16.728  15.792  16.982  0.2524  0.1389 -0.0835
25735W        W43259   0.056  14.409  13.738  0.2266 -0.2628 -0.0250
25736W        W43260  12.886   1.103   4.347 -0.1101  0.3331 -0.2224
25737W        W43261   8.190  14.602   2.438  0.3929 -0.1546  0.1095
25738W        W43262  12.009   9.310  14.128 -0.3972  0.1753 -0.2218
25739W        W43263   4.023  11.094  17.128 -0.0630  0.0745  0.1719
25740W        W43264   3.785  10.908   4.828  0.3118 -0.2066 -0.0162
25741W        W43265   5.834   6.548   1.656 -0.5143  0.0260 -0.0779
25742W        W43266   9.054  16.993   4.878  0.1796 -0.0082 -0.0760
25743W        W43267   8.130   9.005   2.899 -0.0630 -0.0200 -0.0119
25744W        W43268   8.909   8.181   2.087 -0.1164 -0.1513  0.1406
25745W        W43269   3.715  11.890   1.427  0.0591  0.0203  0.0652
25746W        W43270  15.997   5.486  16.593 -0.0973  0.0010 -0.0452
25747W        W43271   0.801   9.140   4.258 -0.0147  0.0203  0.1227
25748W        W43272   8.919   5.969   4.287  0.1691  0.1034 -0.2725
25749W        W43273  11.627   1.700  17.526 -0.0322 -0.0503  0.0920
25750W        W43274  10.053   4.129   2.042 -0.0165  0.0636 -0.1766
25751W        W43275  11.326  12.447   1.985  0.0073  0.0075 -0.1917
25752W        W43276   8.593  12.830   1.825  0.1453 -0.1810  0.2743
25753W        W43277  15.785  13.209   4.758  0.1475  0.0242  0.0747
25754W        W43278   4.598   6.436   3.638  0.0493  0.0980  0.4059
25755W        W43279   4.134   5.457  12.974  0.1680 -0.3045  0.0502
25756W        W43280   6.602  14.836  12.828 -0.0621  0.1503  0.0931
25757W        W43281   9.806   0.063  15.865  0.1089 -0.2637  0.1827
25758W        W43282  11.342   9.781   1.421  0.0257  0.0944 -0.1384
25759W        W43283  14.774   7.718   2.038  0.2542 -0.3722 -0.2901
25760W        W43284   5.072   0.631   4.549 -0.2067 -0.2246 -0.1445
25761W        W43285  14.156  13.146   3.282 -0.0582  0.1806  0.2578
25762W        W43286   4.836   0.688  16.482  0.3319 -0.0838 -0.1257
25763W        W43287   0.150   9.337   4.324 -0.1859 -0.2184  0.1410
25764W        W43288  13.391   8.511  12.872 -0.0103  0.3083  0.1436
25765W        W43289   1.883  15.653   2.567 -0.2430  0.1835 -0.2845
25766W        W43290   2.344   1.891  16.517 -0.0211  0.3450  0.1468
25767W        W43291   9.420  14.581   0.184 -0.1145  0.1068  0.0457
25768W        W43292  11.393  16.160  17.088  0.2497 -0.1317 -0.1212
25769W        W43293  12.030  12.432  16.904  0.0074  0.2560  0.2189
25770W        W43294   2.784   3.188  16.084  0.2270  0.0242  0.3371
25771W        W43295   9.910   3.720   1.591  0.2378 -0.0292  0.1804
25772W        W43296  16.787   6.147   0.584  0.2807  0.0558  0.3726
25773W        W43297   1.435  10.043   0.550  0.1134 -0.0406  0.0195
25774W        W43298   4.891   1.398  14.088  0.0871  0.2264  0.0962
25775W        W43299   8.596  14.231   3.503  0.0192 -0.0589 -0.1867
25776W        W43300   2.822   5.363  16.404  0.2235  0.0170  0.0091
25777W        W43301   0.013   4.058   2.935 -0.2020  0.1525  0.0049
25778W        W43302   1.531   4.813   5.450  0.3912  0.1048 -0.1697
25779W        W43303   7.657   8.859  17.316  0.4099  0.1275  0.0143
25780W        W43304   8.604   1.515  12.085 -0.4153 -0.0228 -0.1697
25781W        W43305   8.580  10.570  12.568 -0.2042  0.1285 -0.1409
25782W        W43306   2.184   3.997  15.334  0.2612 -0.0643 -0.2331
25783W        W43307   0.726   9.369   0.148 -0.2633  0.0585  0.4526
25784W        W43308   7.195  15.811   1.385  0.0086  0.1311 -0.3493
25785W        W43309  15.742   3.297   3.586  0.0951  0.3789  0.2005
25786W        W43310   7.999   4.682  13.659 -0.1126 -0.0053  0.0129
25787W        W43311   5.050   4.459  13.904 -0.0021  0.0173 -0.2314
25788W        W43312   9.065   2.467  13.599 -0.0456  0.1248  0.2130
25789W        W43313   6.156  10.451   4.632  0.3903  0.2063  0.1486
25790W        W43314   8.556   2.528  12.832 -0.2683 -0.3278 -0.0990
25791W        W43315   5.082  10.509   3.500 -0.2237 -0.0981  0.2353
25792W        W43316  12.867   0.577  17.078 -0.2635  0.1556  0.0625
25793W        W43317  13.806  13.535   3.850 -0.0710  0.1028 -0.1113
25794W        W43318  15.634   2.910   2.746  0.3268  0.1105 -0.0289
25795W        W43319   1.299   0.466  17.003 -0.2352  0.0838 -0.0776
25796W        W43320   7.720  15.800   2.414 -0.0998 -0.2396  0.1546
25797W        W43321  14.632  12.593  14.800 -0.1241  0.0784 -0.2236
25798W        W43322  10.449   1.795   0.286 -0.2238 -0.1247  0.2212
25799W        W43323   6.222   5.984   2.841 -0.1333  0.3414 -0.0450
25800W        W43324   6.526   7.767   3.462  0.0435 -0.0312 -0.4823
25801W        W43325   2.297   9.440  15.420 -0.2297 -0.2603  0.2288
25802W        W43326   2.440  12.007   2.001  0.1383  0.3754 -0.1817
25803W        W43327  14.203   6.570  16.929  0.1440  0.3248  0.0933
25804W        W43328   2.461   8.538  14.165 -0.0982 -0.1900  0.2930
25805W        W43329   3.569   4.101   4.496 -0.1104 -0.0534  0.1679
25806W        W43330   2.285   2.127   4.278  0.1727  0.1490 -0.0511
25807W        W43331   7.949  15.130  17.170  0.3148  0.1509  0.1275
25808W        W43332   9.422   6.578   6.326 -0.1073 -0.0266 -0.2589
25809W        W43333   4.579  10.461  12.799  0.1897  0.3901 -0.0646
25810W        W43334   3.769  12.491  13.789  0.0567  0.3013 -0.3669
25811W        W43335   9.506   8.350   1.540  0.2571  0.0797  0.0766
25812W        W43336  12.270   5.844  15.976 -0.0820 -0.2431 -0.1562
25813W        W43337   9.967  10.139  13.148 -0.2010  0.0583 -0.0342
25814W        W43338  16.276  15.867   4.751  0.0321 -0.0563  0.0489
25815W        W43339   8.116  12.088   2.382 -0.2107 -0.1961 -0.0705
25816W        W43340  15.869   6.421   1.497  0.0231  0.0581 -0.1219
25817W        W43341   5.171   9.976  16.631 -0.1875 -0.0595 -0.4966
25818W        W43342  10.118   3.487   3.471  0.0631 -0.3127  0.0971
25819W        W43343  11.068   3.726  16.969  0.2409  0.1432  0.2270
25820W        W43344   3.606  14.847  16.033 -0.1445  0.1332  0.0665
25821W        W43345  16.001   8.730  14.374  0.0192 -0.2126  0.1082
25822W        W43346  10.448   3.770  17.050  0.1021 -0.2244  0.0846
25823W        W43347   3.882  10.831   3.059 -0.1826  0.3261  0.3051
25824W        W43348  14.700  14.369   1.500 -0.0379  0.1079 -0.1796
25825W        W43349  11.590   7.684  17.298  0.3434  0.1731 -0.0781
25826W        W43350  13.443   1.716   4.829  0.1614 -0.1131  0.2569
25827W        W43351   4.442   0.153  17.263 -0.2582 -0.2510 -0.0757
25828W        W43352   3.904  11.104  15.895 -0.1677 -0.0276  0.1473
25829W        W43353   7.715   8.923   0.538 -0.1111  0.1134 -0.0819
25830W        W43354  10.914   1.447   3.867  0.1136 -0.0537  0.2962
25831W        W43355  11.275   0.740   3.345  0.2519 -0.3357  0.1731
25832W        W43356  15.344  10.407  14.137 -0.1010  0.4799 -0.0222
25833W        W43357   8.722  15.102  15.489 -0.1075  0.0224 -0.2013
25834W        W43358   3.497   2.305  16.526 -0.2005 -0.0999  0.0951
25835W        W43359   2.130   3.937   0.540 -0.1320  0.3782  0.1014
25836W        W43360   2.398   7.736   4.044 -0.1787 -0.0595  0.2162
25837W        W43361  11.827   9.982  16.973 -0.3135  0.1697  0.3787
25838W        W43362   2.318   4.991   4.773  0.0232  0.1597 -0.2371
25839W        W43363   0.723   5.773  14.216 -0.0245 -0.0515  0.1427
25840W        W43364  11.430  15.240   2.690 -0.0791 -0.0168  0.2768
25841W        W43365   2.626   4.348  17.683  0.0296 -0.0818  0.0647
25842W        W43366   2.755   0.471  12.397 -0.0944  0.0733  0.0399
25843W        W43367   3.739   6.851  14.712 -0.1156  0.2742 -0.0883
25844W        W43368   4.182  15.014   2.040  0.0801  0.3022  0.3355
25845W        W43369   3.850  13.568  16.919 -0.1691  0.2269 -0.0842
25846W        W43370   1.377   3.112  13.093  0.0101 -0.1537  0.0842
25847W        W43371   8.110   1.748  12.782 -0.2936  0.0446 -0.0890
25848W        W43372   6.650   5.457  16.319 -0.1378 -0.1419 -0.1845
25849W        W43373  15.172  15.014  15.163  0.2125 -0.1476 -0.0183
25850W        W43374  13.850   1.690  16.428  0.0903  0.0817  0.0443
25851W        W43375   1.220   5.206  16.410  0.1998 -0.1658 -0.1169
25852W        W43376  15.743   1.973  17.678 -0.0263 -0.2993  0.0569
25853W        W43377   1.573   8.448  16.467  0.2405 -0.0446  0.0322
25854W        W43378   6.511   2.628  16.809  0.2454  0.0379 -0.3277
25855W        W43379   1.759   6.369   2.391  0.0353 -0.0837  0.1281
25856W        W43380  14.334  15.832   2.905  0.2684  0.1853  0.1851
25857W        W43381  11.949   4.715  16.533 -0.1002  0.0058 -0.0962
25858W        W43382   1.706   8.170  12.675  0.3355 -0.0886  0.3527
25859W        W43383  12.241   5.132  13.949  0.0939  0.0983  0.1563
25860W        W43384   4.532   4.158  11.917  0.0478 -0.1524 -0.3607
25861W        W43385  11.275  14.038  15.793 -0.3168  0.1873 -0.1978
25862W        W43386  12.257  12.369  14.638 -0.1190 -0.0883  0.0154
25863W        W43387   7.158   3.496  14.243 -0.0544  0.1546 -0.0898
25864W        W43388  12.404  13.064   2.325  0.1629  0.0411 -0.1315
25865W        W43389   2.591   8.607   0.460  0.2679  0.0720  0.0773
25866W        W43390   4.600   2.252  16.693 -0.3057  0.0936 -0.1941
25867W        W43391  12.297   0.521  13.246  0.0497 -0.0337 -0.1142
25868W        W43392   8.089   2.844  16.155  0.1871  0.1096  0.1057
25869W        W43393  11.164   7.579   3.734  0.0217 -0.0280 -0.1283
25870W        W43394  12.020   0.385  17.664 -0.0718  0.2205 -0.0916
25871W        W43395  12.803  16.365  13.064  0.1212 -0.1053  0.2243
25872W        W43396   7.456   0.594   5.545  0.1222  0.0892 -0.1215
25873W        W43397   0.632  14.007   5.897  0.0986  0.1403 -0.1510
25874W        W43398  17.056   1.092   3.746 -0.0787  0.0292  0.0979
25875W        W43399  15.056   8.319   3.222  0.0344  0.2848  0.3314
25876W        W43400   0.443   4.603   0.440  0.0327 -0.0118 -0.2083
25877W        W43401  11.002   0.866  12.705 -0.0504 -0.1110  0.2098
25878W        W43402   9.296  10.973   4.305 -0.2446 -0.4097  0.1837
25879W        W43403  13.136  11.339   4.856  0.3286  0.1510 -0.0447
25880W        W43404   7.326  14.994  13.402  0.1706 -0.2752 -0.2445
25881W        W43405  16.602   7.073   4.927  0.2774 -0.1565  0.1622
25882W        W43406   8.924   6.162  14.419 -0.1711 -0.1144 -0.1566
25883W        W43407   0.169   6.064   4.162 -0.0909  0.1918 -0.1035
25884W        W43408   2.729  16.902   1.038 -0.1172  0.1007  0.0399
25885W        W43409  11.427   0.150  13.633 -0.2140  0.2409  0.2893
25886W        W43410  12.281  12.291  17.337  0.0224  0.1063 -0.2908
25887W        W43411   9.441  16.245  12.362 -0.2726  0.0550 -0.0520
25888W        W43412  14.345   2.993   4.554 -0.2133 -0.0142 -0.1211
25889W        W43413   4.447  11.535   0.360 -0.2257 -0.0631  0.0155
25890W        W43414   8.716   3.973   3.490 -0.1936  0.0377  0.1663
25891W        W43415   9.903   9.010  16.812  0.2148  0.1779 -0.0643
25892W        W43416   9.123  13.316  16.749  0.0316 -0.1907  0.0118
25893W        W43417   8.453  13.829  15.153 -0.0114  0.0288  0.1234
25894W        W43418   7.802   3.411  12.502 -0.2349 -0.3327 -0.0836
25895W        W43419   8.527   6.210   2.331 -0.0258 -0.0379 -0.0441
25896W        W43420   3.736  10.115  14.284  0.1160 -0.0982 -0.0876
25897W        W43421  10.301  12.123  16.284  0.3003 -0.1240  0.0169
25898W        W43422   5.616   6.637  14.386 -0.0982 -0.0726 -0.0817
25899W        W43423   7.894   9.954  15.112 -0.2063 -0.1354 -0.3141
25900W        W43424  14.560  12.835  16.088  0.0060  0.0520 -0.0698
25901W        W43425   9.851   6.579  12.519 -0.0642  0.1251 -0.0897
25902W        W43426   0.154   1.347  14.232 -0.1333  0.0609 -0.3347
25903W        W43427  10.143   1.179  17.426 -0.1525 -0.1752 -0.0496
25904W        W43428  13.719   0.996   0.914 -0.1496 -0.3890 -0.0292
25905W        W43429  15.588   2.722   1.374 -0.0225  0.0356  0.0668
25906W        W43430  10.580  12.279   0.075 -0.2371 -0.2171  0.2213
25907W        W43431   6.117  15.161   3.977  0.0144  0.1523 -0.1768
25908W        W43432   1.725   1.412  15.299  0.1480 -0.0810 -0.0339
25909W        W43433  16.141  13.625  16.895  0.0985 -0.2651 -0.1469
25910W        W43434   4.144   2.531   2.930  0.1195 -0.0638 -0.1949
25911W        W43435   6.046  10.613   1.985  0.0436  0.0153  0.2885
25912W        W43436  12.113  11.252   4.642 -0.1910  0.1271  0.1423
25913W        W43437   0.931   3.447   3.380  0.0901 -0.2248  0.3081
25914W        W43438   7.643   2.811   2.119 -0.2422  0.1727 -0.0632
25915W        W43439   1.961  15.701   5.323  0.3187  0.1481 -0.0191
25916W        W43440   6.591   1.138   0.948  0.2017 -0.0934  0.0390
25917W        W43441  13.278  15.101   3.121  0.0348  0.0899 -0.1742
25918W        W43442   4.448   8.900   4.457  0.0235 -0.0434  0.0550
25919W        W43443  11.282  15.379  12.923  0.0425 -0.0517  0.0106
25920W        W43444  12.445   5.091   4.464  0.3527  0.1177  0.2081
25921W        W43445  10.536   9.678   4.101 -0.1346 -0.1145 -0.0010
25922W        W43446  10.660  13.455   2.470 -0.1122 -0.1715 -0.0043
25923W        W43447   1.249   9.266   2.944 -0.4418  0.3079  0.1046
25924W        W43448  14.181   4.879   3.249 -0.1579 -0.0955 -0.0042
25925W        W43449   2.540   7.468  14.468 -0.1980 -0.0446 -0.2987
25926W        W43450  14.416  15.528   4.411 -0.0981 -0.1302 -0.0816
25927W        W43451   3.065  13.640  17.039 -0.2983 -0.1246 -0.1021
25928W        W43452  14.960  11.507   1.427 -0.0633  0.1156  0.1449
25929W        W43453   7.686   7.666  16.945 -0.0162 -0.1802  0.0093
25930W        W43454   6.838   8.421   2.353 -0.2386  0.0471 -0.2183
25931W        W43455   1.544   1.255   2.946  0.3463  0.0658 -0.0971
25932W        W43456  10.699   8.026  12.851  0.2165  0.0452  0.2362
25933W        W43457   9.547  12.521  13.621 -0.1631 -0.1622 -0.0785
25934W        W43458  11.297  11.296   1.325  0.2450  0.0522  0.1060
25935W        W43459  11.745   5.785  12.791  0.0129  0.0171 -0.0644
25936W        W43460   5.702   9.115  12.333 -0.0498 -0.4831 -0.0064
25937W        W43461   3.628   6.605   0.692 -0.0918  0.1129  0.0084
25938W        W43462  10.319  10.985   1.389  0.1436 -0.1644  0.3877
25939W        W43463   3.109   3.024  16.992 -0.1302  0.1006 -0.0937
25940W        W43464   4.644  12.888  14.084 -0.4175  0.0140 -0.1848
25941W        W43465   6.071  11.517  17.670  0.2632 -0.0984 -0.1070
25942W        W43466   5.582   4.982   1.058 -0.0016 -0.2779 -0.1200
25943W        W43467   3.760  13.894   3.471 -0.0621 -0.0385 -0.3136
25944W        W43468  13.204  15.548   4.596  0.1855 -0.0805 -0.2209
25945W        W43469  12.534   7.091  12.423 -0.1364 -0.1259 -0.1813
25946W        W43470  11.213  14.252   2.975  0.0738  0.1658 -0.1082
25947W        W43471  16.877   0.149   6.119  0.0337  0.2150 -0.1501
25948W        W43472   6.113   5.572  15.075  0.1322 -0.1952  0.1022
25949W        W43473  14.712   5.166   5.908  0.0915 -0.0506 -0.2640
25950W        W43474   5.085   0.549  12.852 -0.1233 -0.2155 -0.0634
25951W        W43475   6.860  14.333  12.778  0.2228 -0.3797  0.0174
25952W        W43476   6.644  10.662  12.435 -0.1870 -0.2831 -0.2318
25953W        W43477  16.275  10.178   1.843 -0.0201  0.3310  0.3735
25954W        W43478   3.747   6.334   3.478 -0.0459 -0.0236  0.0209
25955W        W43479   9.304   8.749   2.363  0.0862  0.0225 -0.2391
25956W        W43480  13.488   1.480   1.585 -0.2458  0.1230 -0.1093
25957W        W43481  10.876   7.246   4.038 -0.2042  0.1602  0.2320
25958W        W43482  14.363   2.316   1.879  0.3184 -0.1681  0.0462
25959W        W43483   0.908   5.605   3.431 -0.3451  0.1139  0.3337
25960W        W43484  12.835   9.798   1.273  0.1506  0.1979  0.2581
25961W        W43485   9.602  13.926  15.561 -0.2552  0.3532 -0.0959
25962W        W43486   1.144   8.038   1.637  0.1421 -0.0941 -0.0691
25963W        W43487   5.278  16.395  11.831 -0.1097 -0.0624 -0.1537
25964W        W43488  16.305  13.923  14.082 -0.1479  0.0245 -0.1659
25965W        W43489   3.869   2.707   1.907 -0.2298  0.0452 -0.1554
25966W        W43490  14.521   4.974  14.113  0.4011  0.0469 -0.5127
25967W        W43491   3.609  11.244  15.223 -0.0333  0.1943  0.1225
25968W        W43492   8.666   8.823  15.861 -0.2365  0.1265  0.1169
25969W        W43493   4.480   1.936  15.662 -0.0414 -0.1407 -0.1794
25970W        W43494   7.110  14.000  13.671  0.1755  0.1805 -0.3036
25971W        W43495  15.572   8.049  15.103 -0.0641 -0.0143  0.3353
25972W        W43496   5.193   9.113   2.063 -0.0574 -0.0621  0.2347
25973W        W43497  10.570   2.751  16.408 -0.0308 -0.0767  0.0800
25974W        W43498   2.060   1.346   1.702 -0.1194  0.1745  0.2277
25975W        W43499  14.747  11.266  14.836  0.2455 -0.0215  0.0048
25976W        W43500   7.839   9.678  17.724  0.0021 -0.2744  0.0196
25977W        W43501   0.013   2.836  15.872 -0.3408 -0.1587 -0.1422
25978W        W43502   2.935   2.359  17.681 -0.1669 -0.4562 -0.1733
25979W        W43503   6.226  14.102   1.438  0.1481 -0.1320 -0.0048
25980W        W43504   7.559  15.824   1.733  0.0618 -0.0600 -0.0736
25981W        W43505  16.322   2.651   4.912 -0.3926 -0.1610 -0.1449
25982W        W43506   8.680  15.057   3.244 -0.0072 -0.1747 -0.1439
25983W        W43507   0.263  16.792  15.797 -0.0648  0.1434 -0.0213
25984W        W43508   2.197  10.398  14.499 -0.0855 -0.0926 -0.1017
25985W        W43509   9.597  13.384   2.095  0.4153  0.2380 -0.1279
25986W        W43510   9.373   3.804  13.534 -0.0298  0.0035 -0.0486
25987W        W43511   9.358  17.075   2.673  0.0509 -0.3046 -0.0290
25988W        W43512  10.919   4.364   2.121 -0.0960 -0.2774  0.1480
25989W        W43513   7.573  12.129  16.682 -0.0897 -0.3785 -0.4149
25990W        W43514  14.152  12.561   4.758  0.0370 -0.1447 -0.1102
25991W        W43515  16.652   9.645  13.966  0.0531  0.0802 -0.1198
25992W        W43516   4.982  16.538   0.427  0.3043  0.0488 -0.1642
25993W        W43517   7.686   4.772   0.083 -0.1315 -0.3489 -0.2004
25994W        W43518   9.991  14.692   3.774  0.0455  0.0382 -0.0660
25995W        W43519  15.864   7.722   3.401 -0.0186 -0.0941  0.1259
25996W        W43520  11.113   5.003  12.808 -0.2560 -0.1439  0.1865
25997W        W43521   6.599   1.368  14.598  0.0812  0.2541  0.1897
25998W        W43522   8.822   9.325   3.156 -0.3232  0.0028  0.1305
25999W        W43523   4.426  13.429   1.642  0.2083 -0.4190 -0.0903
26000W        W43524  12.122   5.499   0.118 -0.1116  0.0084 -0.2027
26001W        W43525   7.173   8.107  13.892 -0.1237  0.1510 -0.2943
26002W        W43526  13.233  13.437   2.335  0.1172 -0.0048 -0.1043
26003W        W43527  11.726  14.373   5.246  0.3884  0.3251 -0.2763
26004W        W43528  10.589   6.718  13.692  0.3074 -0.0124 -0.0209
26005W        W43529  15.854   1.517  16.824 -0.0113 -0.0377 -0.0576
26006W        W43530   5.544   0.626   4.785 -0.4997  0.0114  0.0836
26007W        W43531   7.132   2.839  13.239 -0.1463 -0.3966  0.0938
26008W        W43532  13.882  13.731  12.825  0.0754 -0.0998 -0.1540
26009W        W43533  14.107   2.137   4.961  0.0084 -0.1000 -0.0421
26010W        W43534  15.778   6.875  13.924 -0.2960  0.1701 -0.2460
26011W        W43535   5.478  16.955  17.308 -0.0900 -0.1432  0.1724
26012W        W43536   2.147  12.744  15.124  0.0867 -0.2927  0.0536
26013W        W43537  16.540  12.212  16.539  0.1141  0.0462  0.0825
26014W        W43538   0.394   0.170  13.084 -0.0173 -0.0129  0.1357
26015W        W43539  16.934  16.549   5.010 -0.1289 -0.0112 -0.0890
26016W        W43540  14.479  17.072   2.031  0.0189 -0.1493 -0.2803
26017W        W43541   3.678   3.891  13.069  0.3174 -0.2036  0.1626
26018W        W43542   0.334  14.352   1.698  0.0100 -0.1124 -0.1911
26019W        W43543  16.836   5.688   2.363 -0.0734 -0.2205  0.3269
26020W        W43544   3.246  16.906  16.171  0.2916  0.1584 -0.0577
26021W        W43545   7.526  16.964  17.714 -0.0170  0.0702 -0.3339
26022W        W43546  10.964  15.193  14.122 -0.0935 -0.1422 -0.0245
26023W        W43547   5.495   7.846   5.746 -0.0173 -0.2076  0.0369
26024W        W43548   2.157   6.420   2.938  0.2769 -0.2075 -0.0214
26025W        W43549   3.148   3.948   5.837 -0.2127  0.1558  0.2790
26026W        W43550  16.007   7.304   4.169 -0.0858 -0.2263  0.0556
26027W        W43551   3.994   1.687  12.612 -0.1396  0.1014 -0.0520
26028W        W43552  10.100   4.591   3.766 -0.1234  0.0891 -0.0874
26029W        W43553  13.293   5.887  17.368  0.0054 -0.0366 -0.0487
26030W        W43554   9.696  10.939   3.493  0.0739  0.0436  0.1671
26031W        W43555  16.951   3.081   4.691 -0.0214 -0.1113  0.2840
26032W        W43556   3.368  14.447   5.520  0.0255  0.0531  0.0383
26033W        W43557   5.839  11.304  16.604  0.0986  0.0493  0.1387
26034W        W43558  16.888   8.947  16.637 -0.0521  0.1872 -0.0311
26035W        W43559  10.023   4.594  16.547  0.3537  0.1591  0.0771
26036W        W43560  11.192  13.348   6.188 -0.0547 -0.0440 -0.1736
26037W        W43561   8.092   8.841   0.168 -0.2998  0.0864  0.2040
26038W        W43562   1.449   7.919  15.654 -0.0611  0.0315 -0.1151
26039W        W43563  11.761   3.047  16.060  0.0641 -0.1224 -0.2243
26040W        W43564   6.147   2.922  12.670  0.0185  0.0792  0.5518
26041W        W43565   0.198   6.957   4.071  0.0659 -0.0950 -0.0540
26042W        W43566   5.069  10.833   1.014 -0.0005  0.1890  0.0764
26043W        W43567  16.664  13.328   1.944  0.1503 -0.0967 -0.1512
26044W        W43568   2.334  14.577  13.150 -0.1488 -0.1236  0.1720
26045W        W43569  14.986   6.801   3.146 -0.1419 -0.0650 -0.0319
26046W        W43570  14.481   6.463  17.346 -0.2495  0.4822  0.0271
26047W        W43571  16.343  14.524   0.533 -0.1265  0.2353  0.3523
26048W        W43572  11.556   0.938  17.059 -0.1338 -0.1658 -0.0018
26049W        W43573  12.412   7.533  15.351  0.1097 -0.0143  0.0018
26050W        W43574   8.111   9.681   1.951  0.0287  0.1625 -0.2555
26051W        W43575   8.666   2.475   3.753 -0.0916 -0.2219 -0.0368
26052W        W43576  14.461   3.881  17.329 -0.0391  0.1989 -0.3607
26053W        W43577   8.772   6.638  14.339  0.1594  0.0690 -0.0384
26054W        W43578   0.119  11.789  17.424 -0.1163 -0.0686 -0.1036
26055W        W43579  15.416   5.245   0.916 -0.3514 -0.0574 -0.1891
26056W        W43580   5.615  11.742  15.538 -0.2676  0.0856 -0.1084
26057W        W43581  15.211   8.909  12.334  0.1089  0.1086  0.1794
26058W        W43582  12.085  16.086   1.361 -0.0682 -0.1335 -0.2789
26059W        W43583  12.738  15.112   0.567 -0.1223  0.1484  0.1132
26060W        W43584   1.506  11.723  16.086  0.1855 -0.1120  0.1220
26061W        W43585  11.425   4.982   4.543 -0.0677 -0.0708  0.0294
26062W        W43586   2.222   5.817  15.369  0.0708 -0.0531 -0.3570
26063W        W43587   1.867   7.730  13.402 -0.2169  0.2378 -0.3181
26064W        W43588   1.836   8.960   2.421 -0.2023  0.1329 -0.0764
26065W        W43589   0.935  13.270   0.219  0.0937 -0.0754  0.0202
26066W        W43590  13.564   9.657   3.378 -0.0344 -0.0493  0.2237
26067W        W43591   9.035  13.579  14.067 -0.0473 -0.1057  0.1094
26068W        W43592  13.930  12.802   5.524  0.1603 -0.1711  0.0907
26069W        W43593  12.159   5.038  14.552  0.0533  0.1815  0.2493
26070W        W43594   4.883   0.029  14.265 -0.0339 -0.0852 -0.0103
26071W        W43595   8.918  17.085   2.947 -0.0066  0.0158  0.0130
26072W        W43596  13.811   6.719   0.225  0.1939 -0.1903  0.2022
26073W        W43597   1.536   7.979  16.195 -0.3373 -0.2137 -0.0209
26074W        W43598   7.890  12.181  13.138 -0.0518 -0.1362 -0.2069
26075W        W43599  15.054  12.995   5.421 -0.1131 -0.0831 -0.2339
26076W        W43600  12.454  16.142  13.758  0.1049 -0.2826  0.3335
26077W        W43601   1.015  10.598  14.091  0.1165  0.4919 -0.1428
26078W        W43602   6.000  14.698   4.304 -0.0415 -0.0107 -0.0494
26079W        W43603  17.063   6.921   5.059 -0.2873 -0.2058 -0.0109
26080W        W43604  11.973   4.561   3.152  0.1878  0.0385 -0.0591
26081W        W43605   1.195   9.569   4.219  0.0656  0.2151  0.1452
26082W        W43606   1.883  17.145  16.723 -0.1343  0.3815 -0.2650
26083W        W43607  10.219   5.168   0.570  0.0732 -0.0636  0.3849
26084W        W43608   2.790  13.751   5.311 -0.0608 -0.2873 -0.0717
26085W        W43609  10.237  14.236   3.927 -0.2967  0.3388  0.0787
26086W        W43610   4.404  12.042  13.193 -0.1081  0.2416  0.1397
26087W        W43611   0.535  12.956   3.597 -0.0992 -0.0242  0.4495
26088W        W43612  11.040   3.175   5.755  0.1663  0.1077  0.1933
26089W        W43613  12.374   9.148   2.309  0.2276  0.3042 -0.2743
26090W        W43614   2.302   1.523  14.591  0.0454 -0.0988 -0.0481
26091W        W43615   8.082   4.356  13.230  0.1717  0.2260  0.0635
26092W        W43616  13.778   2.824   2.262 -0.0963 -0.3270 -0.1399
26093W        W43617   2.948  12.573   2.458  0.2094  0.0237 -0.1499
26094W        W43618  14.110  15.731  16.032  0.2384 -0.1767 -0.1659
26095W        W43619   1.388  14.047   4.929  0.0052 -0.1840 -0.0804
26096W        W43620   3.978  16.072  15.821  0.4094 -0.0842 -0.0675
26097W        W43621   1.504   3.579  12.916 -0.0650 -0.1978  0.1627
26098W        W43622   5.201   7.794  12.735 -0.2260  0.1137  0.3524
26099W        W43623   1.652   4.195   4.125  0.0114 -0.0072 -0.1956
26100W        W43624  12.924   0.007  14.755 -0.3328  0.2848 -0.2178
26101W        W43625   2.693   3.120  16.676 -0.0938 -0.1914  0.0061
26102W        W43626  13.098   7.665   1.238 -0.0053 -0.0333 -0.0238
26103W        W43627   9.283  12.846   2.877  0.0831  0.1665  0.2094
26104W        W43628  16.239   1.427  17.424 -0.1721  0.1833 -0.2211
26105W        W43629  11.305   0.150  16.414  0.1113  0.0656  0.0452
26106W        W43630  16.452  15.927  17.402 -0.0207 -0.0314  0.2791
26107W        W43631  11.341  13.129   3.287 -0.1440 -0.3013 -0.0337
26108W        W43632  10.189   3.578   3.945 -0.2430  0.0006 -0.1163
26109W        W43633   3.340   1.670   5.573  0.0203  0.1550  0.2679
26110W        W43634   8.259  11.409   3.153  0.4481  0.0388  0.0683
26111W        W43635  14.857  16.069  14.503  0.5220  0.4650 -0.1910
26112W        W43636  16.028  15.823   4.011  0.1353  0.2336  0.4362
26113W        W43637  12.505   8.008   3.489 -0.2241  0.1852  0.1977
26114W        W43638   8.265  13.702  14.672  0.1522 -0.0534  0.0781
26115W        W43639   4.838   4.854  13.130  0.0581  0.3520  0.0880
26116W        W43640   2.378  12.943  12.491 -0.1484  0.1129 -0.2476
26117W        W43641   6.416  15.604   0.638 -0.1111 -0.0740 -0.0209
26118W        W43642  15.955  14.077   4.467 -0.0980 -0.2559 -0.0310
26119W        W43643  16.284   8.257   1.365  0.2702  0.1967 -0.1868
26120W        W43644  10.873  14.071  16.797 -0.3133  0.2695  0.1556
26121W        W43645   1.781   3.088  13.710  0.1004 -0.1455  0.0645
26122W        W43646  16.608   2.327  16.511  0.1126 -0.3137 -0.0458
26123W        W43647   6.053  10.388  12.216  0.1237 -0.0497  0.0190
26124W        W43648  12.324   6.249  14.337  0.2280 -0.0315 -0.0080
26125W        W43649   3.781   8.540  15.706 -0.2350 -0.1440 -0.0912
26126W        W43650   9.968   0.402  14.820  0.0400 -0.2615  0.1963
26127W        W43651  10.722   5.681  12.118 -0.0651  0.0429  0.1098
26128W        W43652   8.123  17.121   1.375  0.2413 -0.1253 -0.4754
26129W        W43653   2.943   4.539   3.422  0.0537 -0.1969  0.0940
26130W        W43654   1.580   6.712  15.806 -0.2192 -0.3593 -0.2538
26131W        W43655  12.562  10.986  12.618 -0.0576 -0.1676  0.1483
26132W        W43656  15.220   4.856   5.253 -0.2014  0.1744  0.0090
26133W        W43657  13.314  13.232  15.873  0.0438  0.0825  0.0901
26134W        W43658   1.752   5.528   1.719 -0.0105  0.1833 -0.0191
26135W        W43659  13.966  10.771   3.919 -0.1483  0.0369 -0.1354
26136W        W43660   6.964   0.836   3.186  0.0055 -0.1980 -0.0436
26137W        W43661   8.798   1.186  16.293  0.1168 -0.0811  0.2364
26138W        W43662  13.302   3.958  11.988 -0.3434  0.0184  0.2244
26139W        W43663   2.367   2.517   1.028  0.1642 -0.3184  0.0954
26140W        W43664  15.129   4.561   2.817  0.1669  0.0939 -0.2358
26141W        W43665   2.847  10.166  12.896  0.0557 -0.1611  0.1281
26142W        W43666  12.777  10.484  15.237  0.0736 -0.0111  0.0051
26143W        W43667   2.420   8.487  15.152 -0.0252  0.2072 -0.0398
26144W        W43668   2.784   2.009   4.215  0.2564  0.1306 -0.1445
26145W        W43669   0.708  10.660   3.011  0.1239  0.0035 -0.0359
26146W        W43670  11.495   8.494  12.785  0.3494  0.1925 -0.2832
26147W        W43671  16.434   1.778  14.321 -0.0637 -0.0621 -0.0466
26148W        W43672   4.557   5.568   4.584 -0.0565 -0.0051  0.0321
26149W        W43673  14.761   6.089   0.524 -0.0418  0.0746  0.2021
26150W        W43674  13.787   4.632   2.414  0.0040 -0.4820  0.0405
26151W        W43675   9.605   0.703   0.261 -0.0043 -0.2066  0.1675
26152W        W43676   2.438  15.091   4.699  0.1191  0.1517 -0.1821
26153W        W43677   2.710   6.181  15.016 -0.2469 -0.0031  0.2866
26154W        W43678   0.201   7.283  16.936 -0.0272  0.0491 -0.1222
26155W        W43679  14.052  12.007   4.489  0.1718 -0.0880  0.0328
26156W        W43680   4.208   2.368  16.262 -0.0984 -0.1533  0.1224
26157W        W43681   2.538   5.258   3.710 -0.1280  0.2382 -0.0871
26158W        W43682   1.340   8.718   0.011  0.0621  0.0247  0.2400
26159W        W43683   3.073   2.330  14.029  0.1220 -0.2815  0.4298
26160W        W43684  15.447   3.605  15.956  0.0614 -0.1317  0.0590
26161W        W43685   6.643  10.648   1.760  0.1284  0.1188  0.0508
26162W        W43686   3.233   9.985   5.348 -0.0901 -0.0750  0.2698
26163W        W43687   3.723  12.369   5.068 -0.1822 -0.2007  0.1755
26164W        W43688  16.719   7.140   3.084 -0.0248  0.1175 -0.2941
26165W        W43689  16.502   8.305   5.550 -0.1777 -0.2132  0.0814
26166W        W43690   7.394  16.919  12.819 -0.0754  0.0858  0.0335
26167W        W43691   6.747   1.111  14.198  0.0886  0.1196 -0.1205
26168W        W43692   9.308   2.617   6.368 -0.0975  0.1787 -0.0482
26169W        W43693  16.969   5.021   5.624  0.2257 -0.1226 -0.0039
26170W        W43694  15.032   4.624  13.204  0.0391  0.3413  0.1937
26171W        W43695  16.448  14.015  16.756 -0.0197 -0.1028  0.2495
26172W        W43696  10.333  14.653   5.007 -0.2841 -0.1764  0.2230
26173W        W43697  11.308   1.095  14.829 -0.0657 -0.2884  0.0326
26174W        W43698   0.843  14.602   3.506  0.2235  0.1293  0.0908
26175W        W43699   0.938   9.619   1.525  0.0192  0.0562  0.1000
26176W        W43700   1.058   5.512  16.055  0.1041 -0.0984 -0.2629
26177W        W43701   3.981  17.087  17.494 -0.1420  0.4546  0.1348
26178W        W43702   7.470   2.645  16.659  0.0589 -0.1983 -0.1993
26179W        W43703  10.016  14.502  12.187 -0.2137 -0.0070 -0.0256
26180W        W43704  11.911   2.359  15.325  0.1427  0.0821 -0.2352
26181W        W43705   6.199  10.344  15.849 -0.1555  0.0515  0.0710
26182W        W43706   4.242   4.747  16.467  0.1015 -0.4487  0.0798
26183W        W43707   3.174   0.661  16.076 -0.1960 -0.0188 -0.2165
26184W        W43708   7.799  11.996  12.706 -0.1612 -0.3090  0.3183
26185W        W43709  14.680   0.564   5.138 -0.1573  0.2503 -0.0152
26186W        W43710  15.717   5.998   4.443  0.1649  0.2455  0.1692
26187W        W43711   3.748   3.898   4.991  0.1560 -0.0106 -0.1263
26188W        W43712   8.152  13.870  17.407 -0.3112  0.0691 -0.0555
26189W        W43713   5.125   5.749   0.135 -0.0360 -0.0579 -0.1892
26190W        W43714   3.153   7.367  15.314 -0.1705  0.0147 -0.0074
26191W        W43715   1.159  12.204   5.493  0.0284 -0.1399  0.4246
26192W        W43716   1.608  10.503  17.326 -0.2390 -0.3598  0.0726
26193W        W43717   2.991   6.948  15.641  0.1246  0.1539 -0.0396
26194W        W43718   1.574   2.356  13.616 -0.0417  0.2697  0.0821
26195W        W43719   8.159   0.142   1.887  0.1292 -0.1318  0.1431
26196W        W43720   4.573   0.820   3.751  0.2311 -0.0913 -0.0450
26197W        W43721  14.363  15.125   3.586 -0.2022  0.0612  0.0553
26198W        W43722   0.661  17.059   0.000 -0.1693 -0.0856  0.2929
26199W        W43723   1.043   2.704  15.866 -0.1167 -0.2336  0.1070
26200W        W43724   2.043  12.169  12.585 -0.1327 -0.0715 -0.0083
26201W        W43725   9.105   2.440  14.088  0.0590 -0.2417 -0.0173
26202W        W43726   4.490  15.637   3.642  0.1637  0.1824 -0.0650
26203W        W43727   4.235  10.728  15.388  0.1125  0.0310  0.1219
26204W        W43728   6.131  16.104  17.606  0.2216  0.0179 -0.0338
26205W        W43729   7.200   5.967  16.408 -0.2605 -0.2907  0.0342
26206W        W43730   7.741  14.907  16.771  0.3052 -0.0991  0.0616
26207W        W43731  16.684   7.019   5.524  0.0098 -0.2442 -0.0197
26208W        W43732  16.277   1.449   2.758 -0.0954  0.0635 -0.1474
26209W        W43733   7.009   9.056  16.241 -0.0580  0.1104 -0.1000
26210W        W43734   0.603   1.489   0.015 -0.1668  0.1209 -0.0512
26211W        W43735  13.214   4.680   2.346  0.1331  0.0827 -0.0643
26212W        W43736  10.424  13.770  16.706  0.2617  0.1418 -0.2099
26213W        W43737  13.939  14.136   2.145  0.0015  0.1226 -0.2608
26214W        W43738   1.942   2.738  15.765  0.0231  0.0404  0.1989
26215W        W43739   0.472  15.735  17.425 -0.1867 -0.1217  0.3885
26216W        W43740   5.103   3.551   3.316  0.0013 -0.0144 -0.0244
26217W        W43741   8.085  16.893   3.341 -0.0023  0.0216  0.1468
26218W        W43742  15.286  10.661   4.691 -0.0610 -0.0874  0.0383
26219W        W43743  13.250   5.874   3.598 -0.0742 -0.0036 -0.0902
26220W        W43744  10.026   7.499  12.288  0.0295 -0.0546 -0.0147
26221W        W43745  16.333  14.260   5.547  0.2162  0.2090  0.1719
26222W        W43746   4.248  15.107  16.087  0.1324 -0.0887  0.1744
26223W        W43747  13.026   8.751   1.629  0.1605  0.1324 -0.0370
26224W        W43748  12.184   0.025  16.132 -0.0654  0.0845  0.1565
26225W        W43749  13.575  15.339  16.698 -0.1718 -0.0485 -0.1275
26226W        W43750   7.701   6.807  15.362 -0.0875 -0.1324  0.2147
26227W        W43751   8.136   5.888   1.253 -0.1202  0.0622  0.0042
26228W        W43752   1.369   5.077   0.384  0.2989  0.0396  0.0081
26229W        W43753  11.320   3.503  14.936  0.0434 -0.0640  0.3510
26230W        W43754  14.764   7.320  12.834 -0.1107  0.0995  0.1580
26231W        W43755   9.996   5.650  16.286 -0.0820  0.1895  0.0892
26232W        W43756  15.001   8.712   4.801 -0.2912 -0.0647 -0.0053
26233W        W43757   7.936  10.588   2.450 -0.1893 -0.0161 -0.1953
26234W        W43758   4.369  13.333  14.037 -0.0169 -0.3316  0.0111
26235W        W43759  12.872   2.019   3.732 -0.2937  0.1771 -0.0365
26236W        W43760  16.087  16.064  13.091  0.1218 -0.1660  0.2587
26237W        W43761   9.864  13.660   1.718 -0.0074  0.2476 -0.1192
26238W        W43762  16.012  13.390   2.804 -0.0877  0.1132  0.2772
26239W        W43763   4.617   6.383  14.290 -0.1441  0.2182  0.1131
26240W        W43764   4.617   0.109   1.596  0.1878  0.0265  0.1420
26241W        W43765  15.875   7.454  14.744 -0.0994  0.1770 -0.1720
26242W        W43766   3.088  13.957   0.118  0.0437  0.0897 -0.0411
26243W        W43767  17.057  10.490   2.946  0.0303  0.3138  0.0915
26244W        W43768  13.162   1.105   2.813  0.0227  0.1229 -0.2152
26245W        W43769  11.027   7.815   0.147 -0.1097  0.0181 -0.0482
26246W        W43770  12.935   4.602   2.791 -0.0328 -0.1711  0.1007
26247W        W43771   8.120   2.308  16.972 -0.1057 -0.1256 -0.0372
26248W        W43772   1.854   1.903  15.600  0.1348  0.1762  0.1094
26249W        W43773  11.753  14.181  14.801  0.0331 -0.2830  0.0674
26250W        W43774  12.223   1.590  13.152 -0.2984 -0.1895  0.1466
26251W        W43775  13.795  12.003   3.132 -0.0151 -0.2322  0.0666
26252W        W43776  14.333   5.416  14.406 -0.1352  0.0664 -0.0792
26253W        W43777   2.758   5.490  12.533 -0.1908  0.0739  0.0055
26254W        W43778   0.322   1.560  15.627 -0.0255 -0.0052 -0.1533
26255W        W43779   4.710   3.368  12.168  0.1447  0.0675 -0.0964
26256W        W43780   5.531   1.570   2.426  0.1371  0.1326  0.1407
26257W        W43781  12.066  16.462  12.567 -0.0973  0.2146  0.2348
26258W        W43782   4.821  12.224   2.822 -0.0396 -0.0608  0.1868
26259W        W43783  15.284  15.772  15.654  0.0222  0.0788  0.0181
26260W        W43784   7.064   9.417  14.147  0.1024 -0.1324 -0.0689
26261W        W43785   2.604  16.738  16.179 -0.3139  0.0270  0.2908
26262W        W43786   7.696   5.250   2.833  0.0508 -0.5781 -0.0092
26263W        W43787  11.153  12.358  16.193  0.1201  0.1882 -0.1206
26264W        W43788  13.967   1.228  16.321 -0.1950 -0.1970  0.1116
26265W        W43789   4.549  13.728  14.297 -0.0385 -0.1702  0.3711
26266W        W43790  11.273  15.131   3.758  0.0122 -0.2186 -0.1191
26267W        W43791   5.339  14.790  12.597  0.0313 -0.1501  0.2870
26268W        W43792  14.384  11.669  16.197  0.0440  0.0624 -0.0252
26269W        W43793  14.139  12.100   0.903 -0.4276 -0.0451 -0.0733
26270W        W43794  10.583  15.158   0.549 -0.3385  0.0611 -0.0181
26271W        W43795   9.509  11.055  13.903  0.1158 -0.0915 -0.3022
26272W        W43796   4.144   7.278  13.508 -0.1465 -0.2636 -0.0495
26273W        W43797   7.265  15.359  13.731  0.0258  0.2154 -0.2581
26274W        W43798   8.388  14.966   4.208  0.1327  0.1388  0.1768
26275W        W43799  16.709   3.534  14.828  0.1591  0.0913  0.1219
26276W        W43800   9.661  14.583  13.125 -0.2434 -0.2453 -0.1146
26277W        W43801  14.589   0.908  13.789  0.1584  0.2268 -0.1208
26278W        W43802   5.632   0.182   0.545  0.2822  0.2072 -0.0470
26279W        W43803   0.283  13.447  15.775  0.5206 -0.1519 -0.1302
26280W        W43804  16.717   7.680  14.796  0.1211  0.0949 -0.5353
26281W        W43805  11.958  14.840  14.204 -0.0436 -0.1625 -0.0503
26282W        W43806   7.599  17.068   0.480  0.0649 -0.0299  0.0328
26283W        W43807  15.423   1.771   1.075  0.0890 -0.0378  0.0648
26284W        W43808   3.262   2.972  17.504  0.1515 -0.2882  0.1390
26285W        W43809  16.251  10.982   0.703 -0.0823  0.0669  0.0374
26286W        W43810   4.279  14.125  12.851  0.2508 -0.0972  0.0259
26287W        W43811   6.023   8.273   4.163  0.2778 -0.1758 -0.2788
26288W        W43812   3.132   4.287  14.275 -0.2254  0.0659  0.0486
26289W        W43813   5.962   3.810  16.588 -0.2308  0.0467  0.0951
26290W        W43814  14.569   1.698   3.532  0.1001 -0.0722 -0.1639
26291W        W43815  11.421   0.626  16.186 -0.1304  0.0536  0.1243
26292W        W43816  14.188  14.785  12.454  0.1596  0.0958 -0.0028
26293W        W43817  13.070   1.602   5.717 -0.1371 -0.1524  0.2268
26294W        W43818   0.810   3.817   0.544 -0.1441 -0.2319  0.0117
26295W        W43819  15.304   9.554  17.229  0.0485  0.1669  0.3215
26296W        W43820   7.515   4.847  13.482 -0.2144 -0.1253  0.0240
26297W        W43821  12.350  11.676   4.645  0.0288 -0.3237  0.2044
26298W        W43822   2.113   2.184  13.533  0.0104 -0.0043  0.0232
26299W        W43823   1.688   3.687   3.988  0.1228 -0.2245  0.2294
26300W        W43824   2.057  11.219  14.738  0.0456  0.0305 -0.2676
26301W        W43825   2.945   9.461   3.484  0.0856 -0.3161  0.2415
26302W        W43826  16.293  10.563   0.390  0.2213  0.4700 -0.0668
26303W        W43827  13.037  11.170   0.604  0.1858  0.1851 -0.1395
26304W        W43828  14.667  16.739  12.514 -0.2209  0.0931 -0.0855
26305W        W43829   4.207  12.892   4.407  0.1014  0.1822 -0.2585
26306W        W43830   3.624   8.256   4.979  0.0501  0.1457 -0.1795
26307W        W43831  14.995  10.212   3.442  0.1265  0.1500 -0.0690
26308W        W43832   7.775  12.628   4.248  0.1112 -0.0550 -0.2054
26309W        W43833  13.881   6.990  17.489 -0.3227 -0.2428 -0.0106
26310W        W43834   2.546   3.056   0.151  0.1124  0.2249  0.2637
26311W        W43835  16.884   3.584  13.979 -0.0153 -0.0987 -0.0599
26312W        W43836   0.877   9.694  14.052 -0.4219  0.0497 -0.0261
26313W        W43837  11.621   7.431   2.048  0.1207  0.1247  0.2877
26314W        W43838   0.170   3.598  13.250  0.4295 -0.4380 -0.3069
26315W        W43839  14.972  16.486  17.264 -0.3182  0.1996 -0.1446
26316W        W43840   5.039   5.078  16.008 -0.3154 -0.0265 -0.2178
26317W        W43841   8.526   9.918  16.635 -0.0043 -0.2760  0.4842
26318W        W43842  16.236   2.463   6.732 -0.3641  0.1658  0.2178
26319W        W43843   3.573   9.740   2.913  0.2437  0.0794 -0.0447
26320W        W43844   1.210   5.304  14.624 -0.0833  0.3412  0.2171
26321W        W43845   0.925   2.380   6.353  0.0197 -0.2804  0.2487
26322W        W43846  10.583   5.869  12.632  0.0710 -0.1026 -0.2464
26323W        W43847   7.646   4.388   1.811  0.2139 -0.0433 -0.0434
26324W        W43848  12.976   8.828   2.457 -0.0463 -0.4304  0.0086
26325W        W43849   1.784   2.535  16.670  0.1696 -0.0121 -0.0797
26326W        W43850  10.071   6.091   3.046 -0.1226  0.0960 -0.3744
26327W        W43851  13.523   0.596   3.254  0.0505 -0.0200  0.0079
26328W        W43852  15.473  15.711   6.192 -0.1230  0.1964  0.1439
26329W        W43853  14.379   1.214   4.038  0.0561  0.0206  0.0627
26330W        W43854  10.582   5.769   1.943  0.0286  0.1797  0.4044
26331W        W43855  11.726   6.562  16.347 -0.2402  0.0440 -0.0876
26332W        W43856  14.983   0.378  16.035 -0.3012  0.0837 -0.3238
26333W        W43857   0.516  16.122  15.198  0.1207  0.2158  0.0003
26334W        W43858  12.360   6.281   5.541  0.0471  0.1254  0.0437
26335W        W43859   2.862  14.073   4.880  0.4796  0.1801  0.0082
26336W        W43860   6.924   5.669   0.466  0.0492 -0.2761  0.2534
26337W        W43861   7.226   8.258   4.980 -0.2864 -0.0554  0.1183
26338W        W43862   4.502   6.540  13.806  0.1849  0.1423 -0.5407
26339W        W43863   2.669  14.995  16.454 -0.0378 -0.1040 -0.1524
26340W        W43864   1.601   6.567  12.246  0.0614 -0.2416  0.4703
26341W        W43865   3.466  14.399   1.641 -0.1489  0.1902  0.1207
26342W        W43866   7.662   3.387  14.338  0.2495 -0.3291 -0.0745
26343W        W43867   9.996   4.670  13.281  0.3096  0.1029  0.0944
26344W        W43868  16.401  14.138   3.871 -0.0098 -0.2410  0.0648
26345W        W43869   9.311   9.394   2.449 -0.1249 -0.0124  0.0648
26346W        W43870   9.685   7.936  12.212  0.1137  0.1138 -0.1655
26347W        W43871  15.818   1.609   4.059  0.4033  0.0500 -0.4770
26348W        W43872  15.252   3.239   2.831 -0.2103 -0.5349 -0.1484
26349W        W43873   8.366   0.239  15.069  0.0098  0.0925 -0.1842
26350W        W43874  10.886   2.727   3.144  0.2249  0.1287  0.1903
26351W        W43875   8.647  12.588   4.922 -0.1059  0.0779 -0.0140
26352W        W43876   5.700  15.889  17.375 -0.0460 -0.1827 -0.1928
26353W        W43877   3.285  13.009   2.368 -0.0074 -0.0542 -0.0306
26354W        W43878   6.309  15.165  17.735 -0.2408 -0.1173 -0.0625
26355W        W43879   4.319   3.074   3.513  0.0888  0.0667 -0.2956
26356W        W43880   4.781   1.347   5.700 -0.2052 -0.0784  0.0129
26357W        W43881  15.993  12.719   2.210  0.1347  0.3126  0.0494
26358W        W43882   4.288  10.705  13.808  0.0271 -0.0544 -0.1459
26359W        W43883  12.653   2.885   2.494 -0.3102  0.3222 -0.3814
26360W        W43884   1.534   6.380  14.503  0.0528  0.0654  0.0387
26361W        W43885  14.971   5.601   0.930  0.2738 -0.0638 -0.1917
26362W        W43886   7.673   0.729  12.642  0.2087 -0.0372  0.4375
26363W        W43887   5.165   5.198  14.768 -0.0170  0.0560  0.4305
26364W        W43888   7.864   2.326   2.879  0.3995  0.1943 -0.2252
26365W        W43889   0.811   6.190  16.465  0.2394 -0.0375  0.0906
26366W        W43890   6.651  16.488   4.011  0.1217  0.0838  0.1144
26367W        W43891   8.372   1.615   5.518 -0.0829  0.2229 -0.1158
26368W        W43892   0.632   6.115   2.014  0.0872 -0.0563  0.0545
26369W        W43893   5.425  10.894   0.029  0.1994 -0.2993 -0.0494
26370W        W43894   3.041   8.408   3.099  0.0026  0.0801 -0.3561
26371W        W43895   6.239  12.580  13.675 -0.0864 -0.3888 -0.0088
26372W        W43896  11.697   8.100  13.005  0.3549 -0.0899  0.1531
26373W        W43897  12.018  15.323   3.474  0.2948  0.1518  0.0830
26374W        W43898  14.523  11.681   3.748  0.1606 -0.1370  0.3068
26375W        W43899  13.022   5.661  13.082  0.0973  0.1265 -0.1161
26376W        W43900   8.951   3.411  14.426  0.2002 -0.2754  0.0237
26377W        W43901   5.097  12.148  14.804 -0.1817  0.1905  0.1121
26378W        W43902  10.489  11.754  17.203 -0.3714 -0.1219 -0.1490
26379W        W43903   8.326   4.173  12.726  0.2904 -0.0693 -0.1597
26380W        W43904   4.861   3.345   1.180 -0.0489 -0.0669  0.0406
26381W        W43905  16.801  12.721  13.712  0.1053 -0.3029 -0.0015
26382W        W43906   4.621  12.331   0.536 -0.0056 -0.3858 -0.0942
26383W        W43907   9.738  16.785   2.781 -0.1410  0.4734  0.1050
26384W        W43908   9.701  13.019  16.824 -0.1272  0.1843 -0.5612
26385W        W43909  14.873   1.559  15.486  0.0436  0.4987 -0.1540
26386W        W43910   7.988  11.718  16.799  0.0091 -0.3739 -0.1482
26387W        W43911  11.093   2.245  12.341 -0.1383 -0.4762  0.0185
26388W        W43912   3.648   8.898  16.426  0.0275  0.1203 -0.2011
26389W        W43913   2.312   9.419   1.951  0.2055  0.1683  0.0676
26390W        W43914   4.362  11.287   1.915  0.0282  0.0135  0.0148
26391W        W43915   1.218   2.701   2.788  0.1082  0.1727  0.0171
26392W        W43916  12.735  14.612  13.371  0.1430  0.1057 -0.1957
26393W        W43917   9.495  10.206   3.643  0.1655 -0.1752 -0.2085
26394W        W43918   2.659  15.575  13.465  0.0734 -0.0910  0.2576
26395W        W43919  13.701  16.658  15.298  0.0925 -0.0188 -0.0498
26396W        W43920   5.137   7.847   3.641 -0.0530  0.1881 -0.0365
26397W        W43921   0.239   5.341   5.682 -0.0721 -0.0862 -0.2454
26398W        W43922   5.014  14.814  15.392  0.1477 -0.0975  0.1166
26399W        W43923  12.460  12.467   0.029  0.1193  0.3007 -0.4950
26400W        W43924   1.832   0.614   4.963  0.1181  0.0462 -0.1083
26401W        W43925   3.431   2.078   2.515 -0.0962 -0.1020  0.1231
26402W        W43926   8.741   6.254  15.896  0.1525  0.3190  0.1625
26403W        W43927   8.320   1.757   2.046  0.0412 -0.1771  0.2890
26404W        W43928  11.587   7.743   5.174 -0.0963 -0.0342  0.1331
26405W        W43929   3.296   4.724  14.474  0.1956 -0.5129 -0.1150
26406W        W43930  11.320   8.074  13.521 -0.1991  0.0097 -0.0579
26407W        W43931   8.624  14.806   1.142  0.1714  0.3432  0.1529
26408W        W43932  13.558  15.088  15.268 -0.0717 -0.0202  0.0539
26409W        W43933   6.184   3.870  12.606 -0.3457 -0.0510 -0.0066
26410W        W43934   2.130  10.579  16.036 -0.0335 -0.1264 -0.0802
26411W        W43935  12.315   5.502  16.363  0.0041  0.1754  0.0166
26412W        W43936   8.588   2.169   5.434 -0.2168 -0.3556  0.0108
26413W        W43937   1.474  15.863   4.415  0.0034 -0.1250 -0.2608
26414W        W43938  15.698  11.304  14.336  0.0186  0.1691 -0.0592
26415W        W43939   7.407   6.025  15.300 -0.1122 -0.0084 -0.0956
26416W        W43940  14.543  13.975  16.691  0.0309 -0.0402  0.2212
26417W        W43941  13.621   2.094  15.914 -0.1066  0.2978 -0.1827
26418W        W43942   7.030   1.606   3.576 -0.2931 -0.1311  0.1384
26419W        W43943   1.061   3.363  14.701 -0.0723 -0.2546 -0.1675
26420W        W43944  10.307   1.878   3.308  0.0639  0.0838  0.0721
26421W        W43945   4.977  10.975  14.463 -0.3232 -0.1320 -0.0586
26422W        W43946   5.649  10.386  12.850 -0.1545 -0.0339 -0.2446
26423W        W43947   0.634  11.600  14.073  0.2231  0.1644  0.0460
26424W        W43948  14.593   4.547  16.350  0.2794 -0.1543 -0.0202
26425W        W43949   4.545   9.534   3.781  0.1401  0.1694  0.2304
26426W        W43950  14.486   9.443   1.883  0.1664  0.0324  0.0014
26427W        W43951  15.738   4.719   4.000 -0.2871  0.0684  0.2986
26428W        W43952  16.737   6.438  15.827 -0.1417  0.0488 -0.0361
26429W        W43953   8.445  14.565  15.008 -0.2368 -0.0071 -0.1840
26430W        W43954  15.283  14.046  14.654  0.0729 -0.1163 -0.0948
26431W        W43955   8.408  10.565   5.616 -0.1883 -0.0441 -0.1672
26432W        W43956  14.392   2.361  15.777 -0.3089  0.0541  0.0460
26433W        W43957   4.859  16.811   1.415  0.0832 -0.0036  0.0288
26434W        W43958  15.016  16.561   0.018 -0.0257 -0.0329  0.0357
26435W        W43959  14.604   1.811   0.327  0.1425 -0.0729  0.3153
26436W        W43960   7.524   2.118  14.004 -0.0230 -0.2272 -0.1577
26437W        W43961  12.848  14.377  17.029  0.3031  0.1310 -0.0662
26438W        W43962   9.807   4.406   5.060 -0.0577  0.0296 -0.2157
26439W        W43963   8.202   7.847  16.323 -0.1134 -0.0467  0.4179
26440W        W43964  11.692   3.774   2.931 -0.1251  0.1485 -0.1758
26441W        W43965  11.501  15.084   5.645  0.0117  0.1289  0.0869
26442W        W43966   0.262  12.762   5.515  0.2582  0.2048 -0.1584
26443W        W43967  10.661   6.748   3.636 -0.1024 -0.1823  0.0704
26444W        W43968   9.026   1.075   4.358  0.2658 -0.1640  0.2133
26445W        W43969  12.573  10.933   0.552 -0.0083 -0.0479 -0.0480
26446W        W43970   1.608   9.210  13.233  0.3439  0.3068  0.2837
26447W        W43971  16.791   8.750   4.363  0.0203  0.0898 -0.0200
26448W        W43972   5.398   9.027   1.222 -0.1267 -0.2266 -0.0052
26449W        W43973  16.342   3.566  17.398 -0.3997  0.0490  0.1525
26450W        W43974   7.691  15.158   5.145  0.0396  0.0461  0.2319
26451W        W43975   8.809   4.924  16.232 -0.0482 -0.0624  0.0174
26452W        W43976   3.617   4.358  12.774  0.3078  0.0665  0.1070
26453W        W43977   4.442   8.313  14.527  0.1442  0.2152 -0.1359
26454W        W43978   1.632  10.539   5.354  0.1875  0.0764  0.1918
26455W        W43979   6.718  16.563  13.539 -0.0997  0.2381  0.2208
26456W        W43980   7.772   2.509   3.327  0.0921  0.0136  0.1872
26457W        W43981   0.606  15.537  14.490 -0.1494  0.1249 -0.0712
26458W        W43982  16.038   4.535   5.000  0.0191  0.2102  0.2287
26459W        W43983   3.858   8.786   2.176 -0.0490 -0.2591  0.2470
26460W        W43984  11.637   2.823  14.378  0.0079 -0.1218  0.0719
26461W        W43985   3.268   3.154  12.747  0.0344  0.1873  0.0278
26462W        W43986  12.991  17.119   0.028  0.2278  0.3000 -0.1151
26463W        W43987   9.825  16.728   6.521 -0.2589 -0.0931 -0.5358
26464W        W43988  15.801  15.624   1.528  0.0125 -0.3168 -0.0915
26465W        W43989  11.626   3.600   0.571  0.0389  0.1108 -0.0393
26466W        W43990   8.232  13.242  14.483 -0.0400  0.0171 -0.1350
26467W        W43991   5.159  11.794   0.163  0.0450  0.1280 -0.0238
26468W        W43992  13.110   1.249   1.855  0.1698  0.1767 -0.4790
26469W        W43993  15.428   2.762  14.782  0.3207  0.3426 -0.1464
26470W        W43994  13.748  14.697   2.795 -0.1544  0.1101 -0.0139
26471W        W43995   0.825   2.377   0.008  0.5198 -0.0283  0.1177
26472W        W43996   0.090   9.950   2.985  0.2116 -0.0128  0.0654
26473W        W43997  10.680  10.737  15.522  0.0073 -0.2252  0.0445
26474W        W43998   1.485  12.883   1.117 -0.1492 -0.0629 -0.1308
26475W        W43999   4.940  15.501   4.954  0.0233  0.2064  0.0447
26476W        W44000   2.479   0.165   1.403 -0.0987 -0.0661 -0.2085
26477W        W44001   0.156  13.187  17.284 -0.1798  0.0454 -0.2084
26478W        W44002   2.389   7.787   6.498 -0.0857  0.0365  0.0896
26479W        W44003   8.806  15.162   2.762  0.0944  0.1865  0.0130
26480W        W44004  15.250  11.816  13.173  0.2122 -0.1511 -0.0984
26481W        W44005   7.316  16.457  15.516  0.0121  0.1890 -0.1233
26482W        W44006  16.737  16.229  14.852  0.1009  0.0584  0.2040
26483W        W44007   1.826   2.010   4.466  0.2511  0.1438  0.0287
26484W        W44008  14.539  14.508  14.802 -0.0216  0.1007 -0.0963
26485W        W44009  13.932  13.565  15.894 -0.0025  0.2025  0.3461
26486W        W44010  12.159  13.351  16.451  0.0643 -0.1310  0.0333
26487W        W44011   2.164  11.449  15.647 -0.1316 -0.1190 -0.1286
26488W        W44012  16.486   7.736  13.961  0.0690  0.2442  0.2007
26489W        W44013  10.423  10.426  11.990 -0.0346  0.2165  0.1958
26490W        W44014  11.684  11.639   2.010  0.0205 -0.1077 -0.1551
26491W        W44015  13.271   3.848   2.872 -0.0275 -0.1185  0.3344
26492W        W44016   1.629  16.374   4.579 -0.0059  0.0283 -0.0955
26493W        W44017   1.747   2.358  12.639  0.0112 -0.2232 -0.1691
26494W        W44018   9.423  14.921  12.304 -0.1139 -0.0920 -0.1027
26495W        W44019  15.792  13.488  13.882  0.0054 -0.0992  0.2894
26496W        W44020  16.957   2.366  16.886  0.0317 -0.2680  0.0732
26497W        W44021   8.549   0.473   5.563  0.1336 -0.3725  0.0261
26498W        W44022   3.954   2.349  12.598  0.0026 -0.5694  0.2096
26499W        W44023  14.096   9.809   4.166 -0.1678 -0.3137 -0.0871
26500W        W44024   6.754   2.830   5.596 -0.5376 -0.0281 -0.1254
26501W        W44025   5.161   8.119   2.067 -0.3288  0.0809 -0.2002
26502W        W44026   4.345  13.854   1.943 -0.3062 -0.0916 -0.0438
26503W        W44027  10.506   8.565  13.149  0.0666  0.0213 -0.1570
26504W        W44028  13.278   7.706   0.172 -0.2390  0.2271  0.2711
26505W        W44029  11.167   7.585  17.480 -0.1803 -0.0286  0.0706
26506W        W44030  10.551   5.885  13.445 -0.1210  0.0123 -0.0742
26507W        W44031  15.023   0.926   1.533  0.1636  0.2747 -0.1301
26508W        W44032  14.781   6.166  17.732  0.2341  0.1815 -0.1247
26509W        W44033  12.791  14.450  12.289  0.2411  0.0246  0.2684
26510W        W44034   9.073   8.447   4.014 -0.1158  0.0846 -0.1542
26511W        W44035   3.833  12.816  12.664 -0.1296 -0.0666  0.0852
26512W        W44036   8.053   2.146  14.525  0.0565  0.1833 -0.0626
26513W        W44037  16.803  16.332   3.243 -0.2153 -0.2500  0.0794
26514W        W44038  11.771  13.752  12.155  0.2660  0.0969 -0.0035
26515W        W44039   9.635  11.837   1.984  0.1042  0.5158  0.0703
26516W        W44040   6.462  13.007   2.967 -0.1079 -0.1401  0.0806
26517W        W44041   9.835  14.664   1.158 -0.1225 -0.1312  0.0489
26518W        W44042   4.608   5.365   2.445 -0.0160 -0.0322  0.0567
26519W        W44043  12.704   6.862   4.915 -0.0581 -0.2452 -0.1581
26520W        W44044   5.813  13.090  13.068  0.2166  0.0027  0.0388
26521W        W44045   1.196  11.847  13.207  0.0139 -0.3554  0.4201
26522W        W44046  11.419  14.934  16.345 -0.2081 -0.1744  0.2909
26523W        W44047   1.297   0.741   1.074  0.0749  0.1135 -0.0968
26524W        W44048   5.541  16.785   0.410 -0.1404 -0.3410  0.2307
26525W        W44049   4.151  14.382   1.931  0.0775  0.0010  0.2075
26526W        W44050   4.272   9.136  14.553  0.0672 -0.3784 -0.3083
26527W        W44051   1.284   9.144  12.507  0.0912 -0.0272 -0.2968
26528W        W44052  13.579  10.891  15.444  0.0087 -0.0642  0.0861
26529W        W44053   1.030   8.802   2.899 -0.1166  0.0745  0.2790
26530W        W44054  10.338   5.012   4.770 -0.1167  0.2222 -0.1517
26531W        W44055   1.371  11.023  13.451 -0.0024 -0.1264  0.0325
26532W        W44056  13.809   0.791   4.010  0.1949 -0.1962  0.2731
26533W        W44057   4.612  15.111   0.772  0.2299 -0.3674  0.3216
26534W        W44058   5.753  10.107  15.924  0.1408 -0.3070  0.2028
26535W        W44059   5.913   4.783   1.372 -0.2095  0.2639  0.0978
26536W        W44060   7.477  10.658  15.735  0.0858  0.0560 -0.1704
26537W        W44061  15.176   2.997   0.319 -0.0704 -0.3102  0.1147
26538W        W44062  12.113   6.619   3.718  0.1065  0.1310  0.0042
26539W        W44063  14.370  17.055  17.619 -0.0643 -0.0360  0.1743
26540W        W44064   6.587   8.153   1.868  0.0313 -0.0264  0.0465
26541W        W44065   9.046  11.422  17.157 -0.1040 -0.2542  0.0613
26542W        W44066   3.734   9.804  14.749  0.0340 -0.1785  0.2043
26543W        W44067   1.577   7.071   4.499  0.0571  0.1281  0.2549
26544W        W44068  11.273  11.624  12.380  0.0193 -0.2100  0.0684
26545W        W44069   2.391  12.037  17.166 -0.0906 -0.0276  0.0307
26546W        W44070  11.195   3.959   2.219  0.1872  0.1795 -0.1448
26547W        W44071   6.106   1.272  17.007  0.1420  0.3767  0.1437
26548W        W44072   7.018   7.213   0.890  0.0276  0.1071 -0.2378
26549W        W44073  13.743   4.398  16.108  0.4224 -0.2045 -0.0561
26550W        W44074  15.594   9.027   3.590  0.0104  0.1532  0.0993
26551W        W44075   9.049   0.532  14.541  0.0826  0.0425  0.2063
26552W        W44076   5.698   1.758   1.909 -0.2943  0.1350 -0.2243
26553W        W44077  11.432  13.208  16.512  0.2203  0.0069  0.2025
26554W        W44078  10.126  14.685  13.052  0.1163 -0.0099  0.2729
26555W        W44079  10.153  13.488   4.567 -0.0861 -0.0402  0.1669
26556W        W44080  15.625   7.889   0.436  0.0712 -0.1173 -0.0023
26557W        W44081  16.370   0.639   2.455 -0.2728 -0.1019  0.1315
26558W        W44082   3.398   7.940   6.203 -0.1437  0.3538 -0.0285
26559W        W44083   3.243  12.811   6.283  0.3059 -0.0367  0.1323
26560W        W44084  15.901  15.995   4.499 -0.2459 -0.2668 -0.2309
26561W        W44085  10.134   3.798   2.391  0.2310  0.1010 -0.1975
26562W        W44086   5.383   7.525  17.324 -0.0341 -0.0255 -0.1358
26563W        W44087   6.166   4.477  15.136 -0.2105  0.1802  0.1487
26564W        W44088   3.283   5.866   2.681 -0.2043 -0.0704 -0.0688
26565W        W44089   6.405  10.874   4.777 -0.0056  0.1214  0.2475
26566W        W44090  12.619   8.907   5.259 -0.2129 -0.3149  0.0303
26567W        W44091  10.474  14.421   2.395 -0.0828  0.0383 -0.1682
26568W        W44092   7.054   5.465  12.564  0.1301  0.1016  0.0561
26569W        W44093  15.860  16.368   2.858  0.1663  0.0313  0.0391
26570W        W44094  14.380   5.020  15.960 -0.2856  0.0276 -0.0084
26571W        W44095  13.816   0.990  15.947 -0.2432  0.1478  0.0273
26572W        W44096  17.051   6.078   4.584 -0.1104 -0.0920 -0.0978
26573W        W44097  11.634   6.855   4.158 -0.1464 -0.1465 -0.0241
26574W        W44098   5.294  12.575  14.723  0.3551 -0.0072 -0.1012
26575W        W44099  10.766  11.811   4.267  0.0182 -0.2039  0.0846
26576W        W44100  14.650   6.846  13.179 -0.0628  0.1151 -0.1282
26577W        W44101  12.650  10.915  15.523 -0.1744 -0.2635 -0.1010
26578W        W44102   4.975  15.932   4.727  0.0869  0.0052  0.0096
26579W        W44103   1.492   7.563  16.969  0.0482 -0.1489  0.0508
26580W        W44104   4.130   1.466   3.506 -0.0325  0.2670 -0.1567
26581W        W44105   0.588  15.520  13.384  0.0006  0.0735  0.2227
26582W        W44106   6.635  13.922  13.786  0.3107 -0.1199  0.2034
26583W        W44107   6.683  10.343  16.993 -0.0144 -0.1685  0.2769
26584W        W44108   8.683   6.247   1.319  0.2087 -0.1058 -0.1038
26585W        W44109   5.267  13.151  17.232 -0.1964  0.0227 -0.3488
26586W        W44110   9.173  15.369  13.415  0.2322 -0.3393 -0.1869
26587W        W44111   5.461  12.623  12.546 -0.1988  0.1890  0.0215
26588W        W44112   1.871   0.797  14.568 -0.3312  0.1231 -0.0414
26589W        W44113   6.943   3.477  12.989 -0.1589 -0.1868  0.1147
26590W        W44114   5.907  13.617  13.349  0.1391  0.1672  0.0038
26591W        W44115   9.702  14.874  14.042 -0.2446  0.0194 -0.0068
26592W        W44116  15.446  16.055   4.640  0.3847 -0.1458  0.2544
26593W        W44117   2.425   8.301  14.590  0.0586  0.0626 -0.1740
26594W        W44118   8.718   2.855   4.802 -0.4821  0.1418 -0.1741
26595W        W44119  16.081  14.991   4.442  0.0904  0.1357 -0.0169
26596W        W44120   4.196   3.493  13.451  0.0113 -0.0899 -0.0680
26597W        W44121   2.129  13.352  13.265 -0.0801 -0.2438 -0.2224
26598W        W44122   5.145  16.237   5.608  0.0023  0.0895  0.1079
26599W        W44123   5.983  12.894   0.399  0.2409  0.3548  0.3049
26600W        W44124  10.084   3.418  11.953 -0.1252  0.0697  0.1641
26601W        W44125  12.003  11.116  12.435  0.2688 -0.2608  0.2995
26602W        W44126   5.365   7.812  16.887 -0.1503 -0.0452 -0.2497
26603W        W44127  12.820   3.732  13.397  0.0427 -0.0170 -0.0547
26604W        W44128   3.371  10.561  16.439  0.0499 -0.0118 -0.1666
26605W        W44129   3.533   0.867   0.064  0.1772 -0.0204  0.1825
26606W        W44130   1.564  15.693   0.636  0.2690 -0.1191  0.0849
26607W        W44131   8.569  12.526  16.041  0.1498 -0.3128  0.1982
26608W        W44132  12.370   8.674   4.711 -0.2724 -0.0730 -0.3756
26609W        W44133   0.891   1.344   2.348  0.0994  0.2009  0.1692
26610W        W44134  16.823   4.435   3.087 -0.0783 -0.2007  0.3134
26611W        W44135  14.851   4.894   1.658 -0.0177 -0.1261  0.0177
26612W        W44136   6.740   8.373   0.763 -0.0990  0.0365 -0.0106
26613W        W44137   9.962   6.885  12.920 -0.0516 -0.1120  0.0726
26614W        W44138  16.849  10.266   1.091 -0.6749 -0.0666 -0.3665
26615W        W44139   0.378   8.796  15.964 -0.0881 -0.3305  0.0258
26616W        W44140   1.271   2.414   5.387  0.0546 -0.1311 -0.0906
26617W        W44141  13.252   9.586  12.741  0.1858 -0.1234 -0.0741
26618W        W44142   1.539  15.236   3.988 -0.0719  0.1328 -0.2280
26619W        W44143   2.703   7.802  13.095 -0.1588  0.0638  0.1565
26620W        W44144   9.289   8.227   2.453 -0.1148 -0.2432  0.0550
26621W        W44145   9.282   0.358  16.751  0.0745  0.2363  0.4646
26622W        W44146   8.040   1.860   3.549 -0.0541  0.1998 -0.0807
26623W        W44147   3.088  12.012  16.530  0.0895  0.0964 -0.0661
26624W        W44148   5.541   3.176   4.872  0.0436 -0.3152 -0.1296
26625W        W44149   8.461  14.313  15.471 -0.0606 -0.0270  0.3944
26626W        W44150   4.587   0.037   2.247 -0.0923  0.2486  0.0640
26627W        W44151   9.537  15.754  12.132  0.1045  0.2635 -0.0817
26628W        W44152   3.699  11.586  15.609 -0.0259  0.4302  0.2683
26629W        W44153   6.936  13.465  13.704  0.1607 -0.3604 -0.4623
26630W        W44154  13.404   4.946  12.583  0.1521  0.1716 -0.0802
26631W        W44155   0.287   2.813   3.426  0.1605  0.1799 -0.0091
26632W        W44156  15.667  13.044   1.314  0.0719  0.0239 -0.0756
26633W        W44157  11.655  17.131   0.970  0.0136  0.1217  0.0364
26634W        W44158   5.977   1.764  16.161 -0.2404 -0.2370  0.1317
26635W        W44159  11.102  13.722  17.234 -0.0191  0.3027  0.0631
26636W        W44160   8.512  11.278  13.851  0.0973  0.1307 -0.0640
26637W        W44161  16.660   6.204   4.929  0.1926 -0.0970 -0.1751
26638W        W44162  16.384  10.350  16.874 -0.3831  0.2076  0.2943
26639W        W44163   6.914   6.131   2.055  0.0868  0.2128 -0.2056
26640W        W44164  16.286  11.181   1.770 -0.0790  0.0161 -0.1521
26641W        W44165   8.667   9.915  17.261  0.4166  0.1370 -0.2257
26642W        W44166   2.077   6.758  12.191 -0.1541 -0.0950  0.1563
26643W        W44167   5.828   0.154  17.363  0.3247 -0.1534 -0.0078
26644W        W44168   1.407   5.562   2.105  0.2030  0.1666 -0.0836
26645W        W44169  10.829  13.044  14.596 -0.1791  0.2963 -0.0026
26646W        W44170   1.462  10.041  12.870 -0.2177 -0.3112 -0.0478
26647W        W44171   6.642  15.967   3.232  0.1264  0.3325 -0.0210
26648W        W44172   1.363   5.849   3.511  0.0333  0.2782  0.0878
26649W        W44173  10.033   1.002   0.455 -0.2449  0.0379 -0.1194
26650W        W44174   4.832   0.123   5.661 -0.1352  0.2209 -0.0503
26651W        W44175   6.416   4.453  14.056 -0.0733 -0.0573  0.1096
26652W        W44176   0.808  11.974   3.622 -0.0055  0.0009 -0.1768
26653W        W44177  14.247  13.458  16.770  0.0814 -0.2549  0.2103
26654W        W44178   7.873   3.471   3.482 -0.1454  0.1042  0.1496
26655W        W44179  12.896   8.002  15.272 -0.0362  0.1244  0.0638
26656W        W44180   0.226  12.453  16.126  0.0364  0.3145 -0.2504
26657W        W44181  13.164   0.425  12.868  0.1881 -0.1649 -0.0062
26658W        W44182   9.201   1.254   5.654 -0.0867 -0.3059 -0.1434
26659W        W44183  10.208  11.632   0.676 -0.1809  0.1041 -0.1186
26660W        W44184  15.661   8.305  15.733 -0.0733  0.0311  0.0459
26661W        W44185   4.387  10.631  11.887  0.0395 -0.1908 -0.0410
26662W        W44186   5.197   4.472   3.682  0.0459  0.1315  0.0819
26663W        W44187   5.216  14.701   0.632  0.0003 -0.2359  0.0020
26664W        W44188  11.054  16.591   5.087 -0.0127  0.0708 -0.0225
26665W        W44189  11.978  16.423  13.057 -0.0601  0.0833 -0.0076
26666W        W44190   8.386  11.236   0.991  0.1030  0.4399 -0.2401
26667W        W44191   7.025  14.316   4.552  0.1737 -0.0112 -0.1189
26668W        W44192   8.325  10.452  17.657  0.0951 -0.0752  0.0096
26669W        W44193   5.269   5.528  11.940 -0.1480 -0.1152  0.1529
26670W        W44194  16.046   7.278   4.680  0.1148 -0.0937  0.0200
26671W        W44195   6.904   9.466  16.927 -0.2692  0.0368  0.0492
26672W        W44196   6.522  13.762  17.166 -0.0160 -0.1902  0.0192
26673W        W44197   0.735   2.619   0.573 -0.0508  0.1516 -0.1319
26674W        W44198  14.055  14.105   4.664 -0.0000  0.0528 -0.0224
26675W        W44199   8.354  16.347   1.919 -0.1214  0.0462  0.1684
26676W        W44200   0.027   4.775   6.334 -0.1470 -0.1634 -0.2394
26677W        W44201   6.502   5.624  17.708 -0.1773 -0.1363  0.0981
26678W        W44202  14.089   3.832   4.189 -0.0342  0.0631  0.4695
26679W        W44203   8.838   3.793  14.787 -0.0035  0.0247 -0.1817
26680W        W44204  16.312   6.607   1.076  0.0762 -0.0441  0.3621
26681W        W44205   7.977   2.998  12.902 -0.0952  0.0151 -0.0335
26682W        W44206  11.086  16.340  15.883 -0.2796  0.0469 -0.0112
26683W        W44207  11.907   9.514   3.680  0.1977 -0.1047 -0.1283
26684W        W44208   7.596  10.102   4.472 -0.0097  0.0520  0.1063
26685W        W44209   6.125  14.139   0.532  0.1048  0.2494  0.0365
26686W        W44210   9.046  14.975  13.704 -0.0382  0.1786  0.0073
26687W        W44211  16.905   3.672  16.076  0.0761  0.1203 -0.1145
26688W        W44212  13.123   3.160  14.091  0.2299 -0.0761 -0.1220
26689W        W44213  13.960   3.707  14.373  0.2635 -0.0113 -0.1237
26690W        W44214  13.100   4.803   1.762  0.2650 -0.0760  0.0415
26691W        W44215   0.785   8.276  12.335  0.0663  0.0370  0.2584
26692W        W44216   9.584   7.389   2.782 -0.0107 -0.0356 -0.1217
26693W        W44217  12.420  16.378  15.053  0.1480 -0.2204 -0.0985
26694W        W44218   4.055   2.877  12.669  0.4116  0.1687  0.3005
26695W        W44219  13.876  11.142   5.307  0.1789 -0.0162 -0.1119
26696W        W44220   6.911   3.863  17.322  0.2205  0.1799  0.1600
26697W        W44221  10.556   5.339   0.047  0.2032 -0.1292  0.0236
26698W        W44222   4.961  13.972   4.159  0.0833  0.1015  0.1102
26699W        W44223   2.133  13.609   0.572 -0.1817 -0.0613  0.1299
26700W        W44224   5.812   5.937  17.205 -0.1008 -0.0610  0.1372
26701W        W44225   0.400   4.340  17.483 -0.0042  0.0130 -0.2245
26702W        W44226  12.525  15.521   0.253  0.0062 -0.0054  0.1187
26703W        W44227   0.639  16.058  13.023 -0.0167  0.3811  0.1110
26704W        W44228   1.458  15.206  15.694 -0.0934  0.0023  0.1189
26705W        W44229   3.953   2.648  13.516 -0.0225  0.1797 -0.2358
26706W        W44230  10.543   9.883   3.020 -0.0538  0.1059  0.0753
26707W        W44231  13.755  10.613   5.677 -0.1644 -0.1955  0.1820
26708W        W44232   2.998  10.661  15.578  0.0494  0.0211 -0.0278
26709W        W44233   6.973   7.582   4.258 -0.0063  0.2785  0.2491
26710W        W44234   4.173   5.360  14.543  0.1787  0.1971 -0.0374
26711W        W44235   3.783  10.716  14.658  0.4351  0.3008  0.0280
26712W        W44236   1.475  11.998  17.282  0.1410 -0.0867 -0.3922
26713W        W44237   6.172   9.767  16.552  0.3840 -0.0456 -0.1457
26714W        W44238  12.896  13.981  16.562  0.0063 -0.2381  0.0073
26715W        W44239   8.193   7.142  16.259  0.0609 -0.0173  0.1461
26716W        W44240  11.199  11.035  11.441 -0.2106  0.2274 -0.1159
26717W        W44241   1.894   9.958   1.393  0.2253  0.1947 -0.0451
26718W        W44242   3.801   8.263  16.185  0.1933 -0.1357 -0.1292
26719W        W44243   3.631  12.408   1.708  0.0938  0.0971 -0.2513
26720W        W44244   1.143   5.149   5.511 -0.1484 -0.0559  0.0331
26721W        W44245  16.316   4.378  13.261 -0.0751  0.0331  0.4639
26722W        W44246   0.829   4.061   4.067  0.1974  0.0852 -0.3454
26723W        W44247  15.200   4.783   3.890  0.0075 -0.0301 -0.0189
26724W        W44248   5.123   2.145   0.727  0.1926 -0.0639  0.0858
26725W        W44249   3.784   3.398   2.570  0.4149  0.3472 -0.2618
26726W        W44250   2.993   6.568  14.682  0.2396  0.0253 -0.0921
26727W        W44251  11.382   9.585   4.546  0.2515 -0.1220 -0.0947
26728W        W44252  13.386   2.317   0.349 -0.2069  0.0574 -0.0983
26729W        W44253  16.857   0.022  17.314  0.0917  0.2762  0.2694
26730W        W44254   9.920   5.566  15.415 -0.3710  0.0854  0.1244
26731W        W44255  14.037   0.722  12.977  0.0286  0.1236 -0.2541
26732W        W44256   8.034  15.393   4.082  0.0941  0.1297  0.4747
26733W        W44257   6.749   0.876  16.652 -0.2589 -0.1912  0.1018
26734W        W44258   9.902  16.474  12.337 -0.1941 -0.1792  0.0109
26735W        W44259  11.641   6.148  15.576 -0.4140  0.0187  0.1057
26736W        W44260  15.612  10.832  15.551 -0.0695 -0.2111 -0.4559
26737W        W44261   4.136   5.516   4.806  0.3211 -0.0611  0.1266
26738W        W44262  11.197  11.139  11.931 -0.0693 -0.0653  0.0762
26739W        W44263   4.202  16.745  15.147 -0.1523  0.2115 -0.0872
26740W        W44264   4.418   7.894   5.200  0.1151 -0.3771 -0.0650
26741W        W44265  17.045   3.182   2.682  0.4443 -0.1403 -0.2187
26742W        W44266  14.437  12.900  16.560 -0.1104  0.1761 -0.3523
26743W        W44267  16.414  10.052   0.097  0.1115 -0.5025 -0.2618
26744W        W44268  10.612  16.499  13.427 -0.3236  0.0173 -0.0453
26745W        W44269  16.920   0.249   4.049  0.1799  0.1158  0.3797
26746W        W44270   5.450   7.742  11.832 -0.0344  0.1719 -0.0088
26747W        W44271   1.569   9.305  17.009 -0.3160  0.0321 -0.0423
26748W        W44272   0.970   6.966   1.629  0.1295  0.0123  0.0216
26749W        W44273  10.204  13.394   2.681  0.3293 -0.0335 -0.2393
26750W        W44274   9.904  13.096   0.062 -0.3829  0.1899 -0.0271
26751W        W44275   2.042  11.038   1.361  0.1207  0.0541  0.1883
26752W        W44276  17.079   5.824   5.027  0.0490 -0.0554 -0.0807
26753W        W44277  12.877  14.861   0.994 -0.1510  0.2087  0.0249
26754W        W44278   3.941   6.653   2.875  0.4140 -0.0211  0.2637
26755W        W44279  10.418  12.824  13.441 -0.1597 -0.0191 -0.3734
26756W        W44280   0.622  10.265   1.004  0.1803  0.0513 -0.2739
26757W        W44281   0.027  13.530  16.234 -0.1422  0.3108 -0.4476
26758W        W44282  15.190   8.001   1.820  0.0386 -0.1774  0.2142
26759W        W44283   4.332  13.719  16.744  0.0693  0.1944 -0.1451
26760W        W44284   9.817  11.687   1.057 -0.0201  0.0478 -0.2732
26761W        W44285   3.897  13.017  15.113  0.0031  0.2277 -0.1387
26762W        W44286   7.918   5.647  12.913  0.0588 -0.0639  0.2459
26763W        W44287   7.211  17.090   1.730 -0.0648  0.1300  0.0111
26764W        W44288  14.268   8.050  13.087 -0.0191 -0.0466 -0.0869
26765W        W44289   2.979   5.137   3.467  0.0058 -0.0401  0.2151
26766W        W44290   8.108   8.294   3.904 -0.0210 -0.0152 -0.2633
26767W        W44291   0.009   3.135   0.798  0.0017 -0.0121  0.0744
26768W        W44292  16.711  16.875  14.675 -0.1423 -0.1996 -0.2349
26769W        W44293  11.082  16.085   4.231  0.0071 -0.0298  0.1713
26770W        W44294  13.818  15.361  15.650 -0.1407 -0.0087  0.0389
26771W        W44295  12.670   5.146   3.718  0.2300  0.0650  0.2211
26772W        W44296  14.863  16.976  16.795 -0.1561 -0.2626 -0.1159
26773W        W44297   4.866  12.534  13.781 -0.1141 -0.2072 -0.2004
26774W        W44298  10.436  11.428   1.613 -0.1617  0.1390 -0.0613
26775W        W44299  12.921  14.016   1.880  0.0725 -0.2304 -0.1603
26776W        W44300   6.299  12.976   4.408 -0.2143  0.1952 -0.2760
26777W        W44301   2.882   4.655   0.730  0.2618 -0.1807 -0.0483
26778W        W44302  16.711  12.937   3.765  0.2556 -0.0119 -0.1039
26779W        W44303   8.387   6.919  11.121  0.1588 -0.1987 -0.0428
26780W        W44304   5.487   8.059  15.586 -0.1812 -0.2298  0.0311
26781W        W44305   2.384   6.080  14.554 -0.0540 -0.0330 -0.0088
26782W        W44306   9.673   2.599   4.669  0.2373  0.0853  0.0930
26783W        W44307   6.498  13.734   1.658 -0.1299 -0.1083  0.2680
26784W        W44308   2.860  16.391   3.427  0.2911 -0.1408  0.2979
26785W        W44309   8.669   8.801  12.130  0.0969 -0.1562  0.0074
26786W        W44310   0.130  13.830   1.498  0.0039 -0.0656  0.0359
26787W        W44311   3.080   9.503  16.971  0.0196  0.2105 -0.0066
26788W        W44312   9.275  16.581  15.211  0.1190 -0.1248  0.0308
26789W        W44313  13.944   4.328   2.923 -0.2217  0.1320 -0.3098
26790W        W44314   8.620   8.134   3.726  0.1936  0.1654 -0.1825
26791W        W44315  10.858   4.551   0.210 -0.1793  0.0490 -0.0093
26792W        W44316  12.627   5.510  15.924  0.0620 -0.4523 -0.0332
26793W        W44317   3.469  11.574  12.899  0.0173 -0.1687 -0.1428
26794W        W44318   4.969   0.496  12.353 -0.0946  0.2059 -0.1357
26795W        W44319   4.341   8.943   2.416 -0.1311  0.1321 -0.0874
26796W        W44320  17.101   5.081  16.935 -0.2230 -0.0079  0.0399
26797W        W44321   7.007  16.619  13.049 -0.0047  0.1276 -0.0784
26798W        W44322  14.623   2.385  17.465 -0.1572  0.1412 -0.1733
26799W        W44323   0.662  16.118  16.982 -0.0814 -0.0263  0.1921
26800W        W44324  10.793   9.586  14.800 -0.0177 -0.0196 -0.2146
26801W        W44325   6.508   6.822  17.722 -0.2120  0.2906 -0.0913
26802W        W44326  15.545  14.107  13.438  0.1037  0.0262 -0.1496
26803W        W44327   9.044   7.763  12.989  0.0701 -0.0442 -0.3322
26804W        W44328   4.713  12.216   5.545  0.0959 -0.1162 -0.0722
26805W        W44329   6.948   8.806   1.105 -0.0124 -0.3155 -0.0826
26806W        W44330  12.419  11.502  17.126 -0.0382  0.0112  0.1037
26807W        W44331  15.109  16.491  14.028  0.0088 -0.1686  0.0474
26808W        W44332   1.916   7.845   2.157  0.0448  0.2893  0.0022
26809W        W44333   5.875   3.568  16.143  0.1830 -0.0739  0.0588
26810W        W44334  12.308   8.311  17.196  0.0372  0.1925  0.0932
26811W        W44335  11.798   9.959  12.307 -0.1326 -0.1251 -0.1725
26812W        W44336  10.234  11.674  16.440 -0.2293 -0.1000  0.0749
26813W        W44337  15.306   1.354   5.278  0.1554  0.3388 -0.2853
26814W        W44338  16.102  15.975   5.281 -0.1011 -0.3136 -0.3052
26815W        W44339   0.685  14.109   3.514 -0.1773 -0.1440  0.0732
26816W        W44340  13.064  15.475  16.042  0.0392  0.0751 -0.0959
26817W        W44341   2.104   9.644  17.091 -0.1244  0.1553  0.0512
26818W        W44342  16.915  14.851  15.865  0.1394  0.0382 -0.3813
26819W        W44343  16.957  13.086  14.557  0.0802  0.7089  0.0116
26820W        W44344   7.346   5.032  14.406  0.0265 -0.1215 -0.0550
26821W        W44345   2.618   3.567   1.374  0.1444 -0.3627  0.1664
26822W        W44346  13.523   4.183   2.104  0.1482  0.2577 -0.2269
26823W        W44347   5.478  12.785   2.297 -0.2523  0.1495  0.0084
26824W        W44348   8.943   2.597  16.683  0.0077 -0.0792 -0.2909
26825W        W44349   8.481   9.415   0.888 -0.1991  0.0345 -0.2143
26826W        W44350   2.146  10.799   2.666 -0.0889 -0.0695  0.2673
26827W        W44351   4.684  11.365  13.104  0.0457  0.0831  0.0376
26828W        W44352   3.351   8.115  15.995  0.2139  0.1302  0.1641
26829W        W44353   9.117   0.622  13.663  0.3715 -0.0544 -0.0407
26830W        W44354   1.625  14.691   1.394  0.0863 -0.1260 -0.3087
26831W        W44355   5.072  16.101  13.289 -0.0445  0.1029  0.1391
26832W        W44356  16.322  15.041   6.514  0.0782 -0.1448 -0.0736
26833W        W44357   9.659  12.814   4.513 -0.1403  0.0953 -0.1496
26834W        W44358   0.546  11.610  13.230  0.0608  0.2939 -0.0351
26835W        W44359   6.818   5.713   2.958  0.1039  0.0214 -0.0880
26836W        W44360   8.617   6.041   0.490 -0.2812 -0.2060  0.1642
26837W        W44361   0.264   8.335   4.171 -0.0742 -0.1944  0.0170
26838W        W44362  13.382  11.485   4.418 -0.1701 -0.0401 -0.1833
26839W        W44363  13.285   1.093   3.329 -0.2642 -0.1105  0.2071
26840W        W44364  15.140   6.059   5.272 -0.2549  0.1685 -0.0638
26841W        W44365  14.702  15.117   5.222  0.0455 -0.0870  0.1313
26842W        W44366  11.602   8.360   2.277 -0.0584  0.1197  0.2678
26843W        W44367  12.199  11.268   3.273  0.0293  0.0165  0.1154
26844W        W44368  15.013  17.097  14.728 -0.1837  0.0721  0.1175
26845W        W44369  11.965   4.176   4.174  0.2352  0.1203 -0.1095
26846W        W44370  10.992  10.806  12.896 -0.0594 -0.0704  0.0110
26847W        W44371   9.450   0.942  17.506  0.2704 -0.0567  0.2281
26848W        W44372  14.460   0.569   2.090  0.0132  0.3140 -0.1646
26849W        W44373  12.825   7.105   5.350  0.1376  0.0597  0.0804
26850W        W44374   0.170  15.078   2.309 -0.1067 -0.0850 -0.1597
26851W        W44375   4.370   1.554   5.433  0.2229  0.0541  0.2110
26852W        W44376   8.683  15.942  13.231  0.2295  0.0915 -0.0897
26853W        W44377  10.719   4.780   3.000  0.0652  0.1818  0.1170
26854W        W44378   9.749   6.358   2.705 -0.3535 -0.1564 -0.2203
26855W        W44379   3.840   5.840   4.957  0.0341 -0.0048 -0.1013
26856W        W44380   8.896  14.435  13.633  0.1979 -0.1256  0.1255
26857W        W44381   0.672   7.627   2.853 -0.0894  0.1508  0.0270
26858W        W44382   2.054   7.563  17.010  0.2378 -0.0818 -0.0509
26859W        W44383  14.212   1.537  14.325 -0.2672  0.1814 -0.0195
26860W        W44384   4.067   1.064  14.979 -0.0823  0.1893  0.1595
26861W        W44385  10.560   9.551  14.218 -0.3728 -0.0582  0.0476
26862W        W44386   8.100  14.329  12.592  0.1873  0.0875  0.1286
26863W        W44387  15.289   2.997  15.947 -0.0371  0.0105 -0.3323
26864W        W44388   4.094  11.480   0.780 -0.0041  0.2698 -0.0111
26865W        W44389  13.182  15.412  12.408  0.2302  0.1200  0.0524
26866W        W44390  15.432  12.965  13.259 -0.1481 -0.2880 -0.1259
26867W        W44391  14.700   6.539   2.798 -0.1878  0.2369 -0.1689
26868W        W44392   2.399   5.667  17.019 -0.0341 -0.0073 -0.0281
26869W        W44393  12.737   3.232  14.419 -0.0852  0.0222  0.0246
26870W        W44394   0.380  13.892   1.964  0.0907 -0.1147  0.0663
26871W        W44395   3.326   8.324  16.463 -0.1738  0.1256  0.2251
26872W        W44396   0.458  16.660  17.501 -0.0581 -0.0243  0.0374
26873W        W44397   6.072  14.850  12.812  0.1428  0.3013  0.3541
26874W        W44398  10.361  10.710  14.891  0.0797 -0.3154  0.2239
26875W        W44399   9.309   0.153  12.026 -0.2000  0.2801  0.2913
26876W        W44400   4.133   0.481  13.217  0.0083 -0.0149  0.0664
26877W        W44401   2.621  16.324   4.268  0.2005  0.1104 -0.0294
26878W        W44402   9.198  17.145  14.352  0.0330 -0.1542  0.2775
26879W        W44403  14.566  16.701   6.016  0.1212  0.0609 -0.0327
26880W        W44404  12.578   8.029   2.087 -0.2668 -0.1143  0.4090
26881W        W44405   0.505  13.704  16.199 -0.1046  0.0869  0.2918
26882W        W44406  16.139  14.171  14.455 -0.1772 -0.1475 -0.0608
26883W        W44407   2.162  13.698  17.700 -0.0522  0.0893  0.1265
26884W        W44408  16.607  10.192  17.297 -0.0155  0.1569 -0.0467
26885W        W44409  15.574   2.436  14.442  0.0135 -0.1106  0.5050
26886W        W44410   3.786  15.133  13.607  0.0502 -0.3498 -0.1274
26887W        W44411  14.491   4.808   3.928  0.0639 -0.1814 -0.1096
26888W        W44412   1.169  11.213  16.881  0.1087 -0.2406  0.0416
26889W        W44413   5.431   4.490   0.690 -0.0783  0.0408 -0.0508
26890W        W44414  13.882   3.356  12.699  0.3612 -0.3982 -0.0453
26891W        W44415  13.870  16.576   5.199  0.1220  0.0497 -0.2303
26892W        W44416  11.725   4.854  17.472  0.0132 -0.2915  0.3369
26893W        W44417   0.720   4.456  17.060 -0.0310 -0.1714 -0.0303
26894W        W44418  13.435  10.880  15.926 -0.0947  0.2925 -0.1412
26895W        W44419  13.623   5.612   2.783  0.0111  0.1060  0.3341
26896W        W44420  15.080   0.996   0.660  0.0708  0.0110 -0.1307
26897W        W44421  10.762  16.932  13.614  0.1474 -0.0946 -0.0407
26898W        W44422   0.074   4.626   0.108 -0.3351 -0.3168  0.0605
26899W        W44423  13.710  12.398   4.613  0.1330  0.1684 -0.0865
26900W        W44424   7.463   6.086  15.842  0.4014  0.3278 -0.0024
26901W        W44425  11.704   6.482   0.967 -0.0350  0.1521 -0.1155
26902W        W44426   8.346  14.671  12.880 -0.1191  0.0119 -0.0532
26903W        W44427   2.002  15.107  14.459 -0.1073 -0.6092  0.1986
26904W        W44428   2.249  11.656   3.015 -0.0479  0.0903 -0.1022
26905W        W44429   0.210  15.123   0.665  0.5174 -0.3212 -0.0850
26906W        W44430  12.567  13.304  17.661 -0.0875  0.1400  0.0464
26907W        W44431   0.631   4.816   5.034 -0.0805  0.0774 -0.1516
26908W        W44432   7.908  12.268   5.481  0.0181  0.0765 -0.2170
26909W        W44433   4.227  13.305  13.532 -0.2403 -0.0843 -0.1399
26910W        W44434   8.169   2.593   3.677  0.2449  0.2471  0.1946
26911W        W44435  14.937   6.679   6.107  0.1507  0.0668  0.0781
26912W        W44436  12.447   6.500   2.988 -0.1573 -0.2014  0.2491
26913W        W44437  14.793  11.980  12.495 -0.1421 -0.0098 -0.2971
26914W        W44438  16.589   9.399   0.249 -0.1068  0.1554  0.1630
26915W        W44439   7.790   2.802  17.116 -0.0571  0.1184  0.1238
26916W        W44440   3.435   9.325   2.592 -0.2874  0.3147 -0.0932
26917W        W44441  14.335   9.660  17.321  0.4185  0.0336  0.2262
26918W        W44442  12.556  11.977  16.430  0.1795 -0.0896  0.1898
26919W        W44443  12.204  12.114   0.869  0.0187 -0.1928 -0.0290
26920W        W44444   8.745   4.644   4.360 -0.4577 -0.3071  0.0120
26921W        W44445  15.184   7.528  12.863  0.1907  0.1049 -0.0779
26922W        W44446   2.593  13.252   3.041 -0.1230  0.0269  0.1688
26923W        W44447   9.538   6.084  17.122  0.3014  0.0524  0.3679
26924W        W44448   2.450   1.349   1.913 -0.0951  0.0412 -0.1834
26925W        W44449   7.190  12.932   1.147  0.2280  0.1389  0.0877
26926W        W44450  13.363   4.030   0.699 -0.2448 -0.1225  0.1577
26927W        W44451   4.889   9.615   4.298 -0.2412 -0.2413  0.0030
26928W        W44452  11.102   4.649   3.671 -0.3231  0.2448 -0.1603
26929W        W44453  10.465   7.670  12.462  0.0868 -0.0369 -0.0704
26930W        W44454  14.040  10.912   1.320 -0.0711 -0.1789 -0.2670
26931W        W44455  14.248   0.945   3.096  0.0972 -0.2413  0.1031
26932W        W44456   9.160   7.632   3.492 -0.4357 -0.0709  0.2805
26933W        W44457   7.630  11.545   3.589 -0.2016  0.3357 -0.0533
26934W        W44458  12.343   9.844  12.417  0.2745  0.0550  0.0402
26935W        W44459   5.717   5.490   0.772 -0.1989 -0.3005 -0.0025
26936W        W44460   2.146   0.599  15.418 -0.0652  0.4219  0.2628
26937W        W44461  15.082  16.200   2.376  0.1130 -0.4649  0.0043
26938W        W44462   8.697   2.423  16.285  0.4248  0.1292  0.1022
26939W        W44463   1.556  11.242  16.060  0.3349 -0.3148 -0.1717
26940W        W44464   6.029   5.395   3.839  0.1762 -0.2001 -0.0300
26941W        W44465   3.528   5.744  14.750 -0.3659  0.1390 -0.0412
26942W        W44466  11.550   9.485  16.816  0.0429 -0.1990  0.3058
26943W        W44467   8.819   3.226  16.498  0.1946 -0.2271  0.2834
26944W        W44468   5.964   8.588  17.109 -0.1141 -0.0454 -0.1841
26945W        W44469   2.917  12.282   4.019 -0.1590  0.1748  0.0582
26946W        W44470   9.222   7.215  16.622 -0.0312 -0.0113  0.0958
26947W        W44471  15.151   8.438  13.770  0.0576 -0.2072 -0.0975
26948W        W44472  10.990   3.597   6.180 -0.3702  0.1247  0.0622
26949W        W44473  14.558   6.934   4.515 -0.0795  0.1613  0.2713
26950W        W44474  15.678   2.026  12.722 -0.2132  0.2599 -0.0936
26951W        W44475  13.514   0.587  13.225 -0.1075 -0.0553 -0.0639
26952W        W44476  14.935  10.749  14.309  0.2209 -0.2777 -0.2417
26953W        W44477   0.359  10.555  16.445  0.1897  0.3405 -0.0267
26954W        W44478  14.072   1.926  15.712 -0.3845 -0.0938  0.2417
26955W        W44479  16.723  10.166  12.086 -0.0391  0.0757  0.0706
26956W        W44480  14.137  12.992   5.004  0.2041  0.0713 -0.2640
26957W        W44481   8.261   9.045   5.086 -0.1883  0.3022  0.0433
26958W        W44482   5.928   2.843   5.460  0.1944 -0.0820 -0.1033
26959W        W44483   0.715   1.153  16.298  0.3134  0.0093  0.0467
26960W        W44484  13.914   4.909  12.466  0.1481 -0.0524  0.0275
26961W        W44485  16.123   8.131  15.849  0.0232  0.0261 -0.2216
26962W        W44486  11.849   5.573   3.128 -0.3201 -0.1211  0.1877
26963W        W44487  11.764  14.527  12.219 -0.1742  0.1526 -0.0990
26964W        W44488   4.071   4.692   4.590 -0.0217  0.1371 -0.1511
26965W        W44489  16.068   7.518   0.835 -0.2030 -0.3063 -0.0341
26966W        W44490   8.899  12.617   3.654  0.4281  0.1188  0.0048
26967W        W44491   1.039   3.408  12.858  0.0736 -0.1419  0.1722
26968W        W44492  15.603   5.111   4.433  0.0583 -0.2094  0.1669
26969W        W44493   0.753   7.682   4.712 -0.1552  0.0820 -0.1158
26970W        W44494   5.165   8.040   3.001  0.2243  0.1787 -0.0565
26971W        W44495  16.822   4.029  16.977 -0.2929  0.3209  0.1138
26972W        W44496   8.156   2.629   0.638  0.1072 -0.1346  0.3300
26973W        W44497   9.949  11.627  12.691  0.1572  0.0253 -0.0454
26974W        W44498  12.859   9.671   0.790 -0.1843  0.4327 -0.1076
26975W        W44499  16.034  10.466   0.822 -0.1730  0.0526 -0.2101
26976W        W44500   7.181   3.408   1.470 -0.0490 -0.0747 -0.2017
26977W        W44501   1.765   3.250   3.771 -0.1969  0.2124  0.2589
26978W        W44502   1.844  16.811   1.922  0.1043 -0.1477 -0.0916
26979W        W44503   1.146   9.568  13.599 -0.2219  0.0117 -0.1404
26980W        W44504   0.456   1.367   2.120 -0.2745 -0.0714  0.0220
26981W        W44505   6.316  14.151  14.770  0.1669 -0.0824  0.0017
26982W        W44506   3.507   2.768  13.408  0.1426 -0.1329 -0.0207
26983W        W44507   8.868   9.265   4.346  0.1814 -0.1696 -0.0637
26984W        W44508  15.339  10.118  13.701  0.0160  0.0310 -0.2071
26985W        W44509   9.077  13.433   3.985 -0.0171  0.4874  0.1560
26986W        W44510  13.889  11.648  15.912 -0.0720 -0.3314  0.0220
26987W        W44511   6.133  16.650   5.453 -0.0846  0.1396  0.3717
26988W        W44512  13.304  16.340  17.052  0.2659  0.2534  0.5052
26989W        W44513   2.157  16.408   1.490  0.3439 -0.2898 -0.3400
26990W        W44514  10.604  16.558   3.833  0.2226  0.4275  0.0817
26991W        W44515   1.728   5.517  15.543  0.0752  0.0116  0.2359
26992W        W44516   9.544   6.199  13.794  0.0878  0.0110 -0.0981
26993W        W44517  11.073   4.380  14.002 -0.1040  0.1590 -0.0054
26994W        W44518  15.531   2.083   4.862 -0.3624  0.1452 -0.1231
26995W        W44519   8.942   6.232   0.859 -0.1381  0.0867 -0.4671
26996W        W44520   7.899   6.809  17.453 -0.1961  0.1657 -0.1848
26997W        W44521   4.835  10.763   4.747 -0.3541 -0.2030  0.1283
26998W        W44522  15.600   2.299   5.300 -0.0687 -0.1304 -0.1297
26999W        W44523   6.260  11.341   4.820  0.1850 -0.0800 -0.0233
27000W        W44524  12.318   5.595   2.210  0.1894  0.3237 -0.2311
27001W        W44525  10.462   8.289  17.616  0.0783 -0.0374  0.2014
27002W        W44526  14.005  15.889   4.442  0.2100 -0.3376 -0.2519
27003W        W44527  16.430  16.319   5.084 -0.0202  0.2845 -0.4269
27004W        W44528  11.354  14.696  13.439 -0.2413 -0.1283 -0.2003
27005W        W44529  14.137   8.236   4.492 -0.1249  0.0692  0.1249
27006W        W44530   9.180  12.671   4.639 -0.1562 -0.2699  0.0588
27007W        W44531   6.151  17.027  13.963  0.0770 -0.2400 -0.1283
27008W        W44532   7.368  11.795  17.657 -0.0353 -0.4799  0.2653
27009W        W44533  11.541   0.437  13.105  0.1632 -0.2448  0.3960
27010W        W44534   9.013  17.141   4.020 -0.3571  0.3642 -0.0938
27011W        W44535  16.363   2.628  17.489  0.1670  0.1290 -0.3616
27012W        W44536   6.017  16.416   2.067  0.2418  0.1122  0.0262
27013W        W44537   2.947  16.796   2.856 -0.1272  0.1328  0.0372
27014W        W44538  10.020  15.293   3.930  0.1716 -0.1626 -0.2362
27015W        W44539  12.728  14.090   5.163 -0.0795  0.2868  0.2101
27016W        W44540   8.205  10.038   3.205 -0.0183 -0.0073 -0.1343
27017W        W44541   1.892  15.136   1.218 -0.1228  0.3396  0.0341
27018W        W44542   2.766   8.959  13.945  0.1797  0.1806  0.0273
27019W        W44543   7.916  12.882  12.289  0.1928 -0.3510  0.0113
27020W        W44544  14.917  14.400   1.052 -0.3191 -0.0721  0.2887
27021W        W44545  16.509   8.122   3.681 -0.1055  0.1207  0.2812
27022W        W44546  16.139   7.947  12.655 -0.2589 -0.1450  0.2748
27023W        W44547   9.279   4.008   3.534  0.2085 -0.1491 -0.1346
27024W        W44548  10.372   3.254  16.449 -0.1380 -0.0676  0.0406
27025W        W44549   3.297   5.143   5.346  0.0486  0.1857  0.1346
27026W        W44550   3.648  11.864  14.986 -0.1233 -0.1137 -0.0912
27027W        W44551   0.302   0.832  12.217  0.0215  0.0128  0.1513
27028W        W44552   0.583   2.669   5.990 -0.0204  0.3769 -0.0898
27029W        W44553   8.508   2.357   2.753  0.0003  0.0285  0.0564
27030W        W44554  10.724   1.789   2.056 -0.2942  0.3930  0.1968
27031W        W44555   2.423   1.164   4.875 -0.1536 -0.1321  0.3010
27032W        W44556  16.566   1.216   3.714 -0.1067 -0.1235 -0.3552
27033W        W44557   1.179   1.710  12.777  0.0828  0.1771 -0.0641
27034W        W44558  15.436   7.127  15.281 -0.1511 -0.1588 -0.0176
27035W        W44559  13.511  10.156   3.535  0.1341  0.1949 -0.2659
27036W        W44560   2.624   7.954  13.576 -0.0463  0.2310 -0.4235
27037W        W44561   2.858   4.064   4.256 -0.0238 -0.1533 -0.2394
27038W        W44562  11.407   4.928   5.067 -0.3462  0.1920 -0.0709
27039W        W44563   4.923  15.110   1.487 -0.0495  0.0120  0.3207
27040W        W44564   4.559   6.476   0.828 -0.0913  0.1742 -0.2105
27041W        W44565  15.174   4.365  16.865 -0.1800  0.0235 -0.0367
27042W        W44566   6.182  10.425  16.842 -0.0780  0.0965 -0.0388
27043W        W44567   4.675  14.971  16.947  0.2069  0.0078  0.2410
27044W        W44568  15.541   2.219   2.243 -0.0886  0.1855  0.1050
27045W        W44569   4.696   3.726   2.809 -0.1677 -0.2280 -0.0177
27046W        W44570  12.764  14.066   0.710 -0.0646 -0.0220  0.0836
27047W        W44571  14.351  16.446   4.633 -0.0528 -0.0515  0.1873
27048W        W44572   2.361   2.769  16.011  0.1264 -0.1389  0.4860
27049W        W44573  12.957   5.002  16.794 -0.0158  0.2695  0.1296
27050W        W44574  10.794  13.496  14.682 -0.0602  0.0500 -0.0173
27051W        W44575   6.979   7.131  13.988  0.3303 -0.1110 -0.1121
27052W        W44576  15.783   1.187   4.970 -0.4425  0.2731  0.1098
27053W        W44577  13.856  14.363  16.051 -0.3150  0.0193  0.2821
27054W        W44578   8.496  14.130  16.550  0.1564 -0.1501  0.4290
27055W        W44579   9.617   9.174   1.056 -0.1090  0.2296  0.2578
27056W        W44580   9.261  13.322  16.161 -0.0711 -0.0977  0.1331
27057W        W44581   4.707  13.757   1.181 -0.3675 -0.2929 -0.1720
27058W        W44582  13.300   6.033   0.835  0.1024 -0.0170 -0.0126
27059W        W44583  15.635   9.425  15.436 -0.2016 -0.2084  0.0893
27060W        W44584   3.952  13.645   1.417 -0.0490 -0.1208 -0.0320
27061W        W44585   0.962   7.295   3.774  0.0181 -0.3467  0.1408
27062W        W44586   5.133   0.790   2.642 -0.1718  0.2527  0.2612
27063W        W44587  12.062   2.640  14.010  0.0493 -0.0931 -0.1572
27064W        W44588   6.613  14.116   0.223  0.2779  0.1226 -0.0477
27065W        W44589  16.723   6.625  13.970 -0.0742  0.2731 -0.1379
27066W        W44590  10.216   6.755  14.742 -0.1406 -0.0611  0.0091
27067W        W44591   5.134  10.457  17.034  0.2712 -0.2423  0.0135
27068W        W44592   3.614   6.728   5.554  0.1232 -0.0985  0.1316
27069W        W44593  11.651   1.595  12.671  0.1580 -0.1174  0.0482
27070W        W44594   7.240   0.755   2.636 -0.0520 -0.1009  0.0855
27071W        W44595  16.728   4.979  13.849  0.0359  0.4095  0.1071
27072W        W44596  17.145   7.109   0.105  0.1392 -0.4098  0.1979
27073W        W44597   5.609  10.661   4.557  0.4329  0.3520  0.0950
27074W        W44598  14.733  13.859   5.422  0.1265 -0.0205  0.0271
27075W        W44599   2.801   7.630  17.468 -0.1968  0.1199 -0.0191
27076W        W44600  11.100  12.416   2.962  0.1434  0.2979 -0.0070
27077W        W44601  13.052   3.209   3.387  0.0581 -0.0925  0.0215
27078W        W44602   2.048   0.052  13.225  0.1464  0.1653  0.2021
27079W        W44603   8.789   3.816  13.431 -0.0281  0.2059 -0.2554
27080W        W44604  16.734   5.630  15.103  0.0584  0.1884 -0.0526
27081W        W44605   6.380   9.164   0.223  0.2628  0.2186 -0.0704
27082W        W44606   7.198   7.730  12.325 -0.1672 -0.1586 -0.0944
27083W        W44607   0.589   0.065   3.513  0.0713  0.0631  0.3613
27084W        W44608   5.187   5.418   1.657 -0.0261 -0.0569  0.3053
27085W        W44609  12.810   6.604   0.306 -0.0592 -0.2257 -0.0540
27086W        W44610   1.939   2.083   1.771 -0.1157 -0.1930  0.1787
27087W        W44611  11.712   3.678  14.057  0.4360 -0.2601  0.1337
27088W        W44612  13.651   0.492   2.250 -0.0925  0.2593 -0.1527
27089W        W44613   8.922   7.335   1.581 -0.1450 -0.2921 -0.0402
27090W        W44614   9.103  14.305  16.839  0.0302 -0.1160 -0.0566
27091W        W44615   6.652   3.677   3.385 -0.0240 -0.1913 -0.1622
27092W        W44616   8.991   5.334   0.423 -0.1933 -0.1202 -0.0028
27093W        W44617  10.643  14.381  16.353 -0.0294 -0.0730 -0.0286
27094W        W44618   6.258   8.272  16.748  0.0401 -0.1974  0.2305
27095W        W44619   1.322  10.506  16.552 -0.3973  0.0218 -0.3198
27096W        W44620   2.150   5.216  13.258 -0.0484 -0.0465  0.0072
27097W        W44621  10.259   7.076  17.529  0.1643  0.0359  0.0275
27098W        W44622   0.113   0.761  13.811 -0.0973 -0.3453 -0.2315
27099W        W44623   2.429  13.637  14.784  0.2189 -0.1963  0.1328
27100W        W44624   1.178   3.057   0.246 -0.1462  0.1973  0.0991
27101W        W44625   3.498   4.551  15.860  0.3428 -0.0356 -0.0113
27102W        W44626   3.905  16.683   3.713 -0.3059 -0.0021 -0.1099
27103W        W44627   2.504  12.444   3.752  0.0069  0.2064  0.0184
27104W        W44628   8.834   8.698  12.680  0.3058  0.0431 -0.2283
27105W        W44629  16.227   9.164   2.896  0.1490  0.0915 -0.1339
27106W        W44630   5.160  15.823  11.379  0.0586  0.0323  0.3152
27107W        W44631   0.480   1.665   1.519 -0.2401  0.0866 -0.0928
27108W        W44632  13.544  10.412  14.567  0.0702  0.3480  0.0495
27109W        W44633   4.791   5.981  16.881  0.1075 -0.1213 -0.0659
27110W        W44634   5.702   7.896  17.331 -0.1887 -0.0852  0.4206
27111W        W44635  12.163   3.473  17.305  0.0718  0.3774 -0.0629
27112W        W44636  14.001  14.616   2.291  0.1264  0.1134 -0.1188
27113W        W44637  10.911   7.007   0.566  0.2010 -0.0506  0.2671
27114W        W44638   7.791  17.049   1.036 -0.5267 -0.0580  0.3374
27115W        W44639  16.587   8.866   3.192 -0.2319 -0.1809 -0.0826
27116W        W44640   9.807   0.010  11.839 -0.2277  0.0705 -0.1968
27117W        W44641  10.733   7.967  14.200  0.0684 -0.2621  0.2539
27118W        W44642   9.727   4.301  14.989  0.0524 -0.1020 -0.0208
27119W        W44643   6.085   7.694  12.215 -0.0223  0.0058  0.0026
27120W        W44644   8.121   3.132   1.402  0.1009  0.0448  0.2805
27121W        W44645   6.440  15.927   2.779 -0.0499 -0.1245  0.0787
27122W        W44646  14.002   4.683   5.011 -0.2525  0.0553  0.1852
27123W        W44647   6.132   4.196  16.201  0.1162  0.1416  0.2354
27124W        W44648   2.533  14.553  17.337 -0.0493 -0.1047  0.0730
27125W        W44649   7.381   2.391   1.709  0.1849  0.1911 -0.0212
27126W        W44650   2.626  12.834  13.977 -0.1168 -0.2409 -0.2131
27127W        W44651  14.819  11.595  16.460  0.1078  0.1231 -0.2981
27128W        W44652  16.201   9.179  14.582 -0.3309 -0.0590 -0.0743
27129W        W44653  11.033   8.718   0.366 -0.0670 -0.3704 -0.0807
27130W        W44654  15.661   4.245   0.012 -0.1246  0.1049 -0.1801
27131W        W44655  11.377   9.208  10.875 -0.0268  0.0122 -0.0592
27132W        W44656   7.420   3.730  12.628 -0.0566  0.1397  0.0222
27133W        W44657  13.635  15.698   5.264  0.3881  0.0971 -0.0039
27134W        W44658  15.123   6.395   0.490 -0.1908 -0.1194  0.0166
27135W        W44659   7.824   6.028   2.419  0.0036  0.1985  0.1222
27136W        W44660   8.251   6.702   3.831 -0.0089  0.0324 -0.1162
27137W        W44661  11.220   7.876   1.681  0.0912 -0.1868  0.3585
27138W        W44662  16.589   2.829   6.079  0.1146 -0.0546 -0.0591
27139W        W44663   1.853  12.797   3.130  0.2514 -0.0145  0.3009
27140W        W44664  16.448   8.416   5.037 -0.1657 -0.0090 -0.0181
27141W        W44665  11.751  12.294  14.558 -0.3277 -0.1390  0.1449
27142W        W44666   8.009  15.998  17.030  0.5365 -0.0292  0.1745
27143W        W44667   7.606   7.249   3.328 -0.1078 -0.3431 -0.0512
27144W        W44668   0.249  11.812  12.843  0.2263 -0.0593 -0.3677
27145W        W44669  14.268   2.186  17.093 -0.0024  0.1250  0.1312
27146W        W44670  14.390   2.476  12.697 -0.2696 -0.0210 -0.1914
27147W        W44671  12.729   9.362   1.640  0.0970 -0.1939 -0.2197
27148W        W44672   8.312  12.973   2.677 -0.2145 -0.0653 -0.1236
27149W        W44673   5.537   6.677   3.417 -0.1067 -0.3830 -0.0230
27150W        W44674   6.496   6.680  17.198 -0.2087  0.0232  0.2386
27151W        W44675  15.985   9.582   2.643  0.0512 -0.0305 -0.3755
27152W        W44676  13.992   0.047  12.957 -0.0543  0.0740  0.0030
27153W        W44677   6.474   1.024   4.065 -0.1340 -0.1657  0.1599
27154W        W44678  13.778   8.875  12.915  0.1101  0.0461  0.0445
27155W        W44679  12.848   4.487   3.748  0.0411 -0.1120 -0.0436
27156W        W44680   2.814  14.413   3.071  0.1277  0.0353 -0.1914
27157W        W44681   7.031  10.768   1.478 -0.3333 -0.0875 -0.1216
27158W        W44682   3.251  12.435   5.315 -0.0373 -0.2399  0.0962
27159W        W44683  16.753  13.212   0.823  0.1590  0.2856 -0.1144
27160W        W44684  15.395  16.037   2.828 -0.1742 -0.1528  0.1408
27161W        W44685   7.717   5.262  16.456  0.2758  0.2017  0.1158
27162W        W44686   9.315   0.668  12.147  0.0270  0.0222  0.0241
27163W        W44687   2.467   4.377   4.088  0.0666 -0.1308 -0.0613
27164W        W44688   6.030  11.646   3.391 -0.0737 -0.2113  0.0928
27165W        W44689   4.503   0.624  14.733 -0.1440 -0.0174  0.2018
27166W        W44690  12.448   7.472  17.474 -0.0833  0.2681 -0.1147
27167W        W44691   3.788  15.042   0.932 -0.1050  0.2979  0.0690
27168W        W44692   5.606  11.052   4.158  0.5816 -0.0092  0.0634
27169W        W44693   8.719   1.629   1.228 -0.0017 -0.1013  0.0385
27170W        W44694   6.264  12.066   3.206  0.0977  0.1174  0.1438
27171W        W44695  16.772   4.650   2.666 -0.1142  0.1091  0.0584
27172W        W44696   0.673   5.104   3.477  0.0243 -0.2811  0.1215
27173W        W44697   2.601   8.053  14.985 -0.2718  0.0904  0.1111
27174W        W44698  16.541   0.987  17.529  0.0876 -0.1943 -0.2050
27175W        W44699  16.629   7.964   1.332 -0.0428 -0.2097 -0.3367
27176W        W44700  11.337   3.977   6.512 -0.3430 -0.2617 -0.0263
27177W        W44701  14.488  10.433  17.654  0.1699 -0.2313  0.1868
27178W        W44702   3.277   1.443  17.607  0.3367 -0.0380  0.0043
27179W        W44703  13.219  14.693   2.748  0.0782 -0.0432 -0.0936
27180W        W44704   8.384   1.226   1.258 -0.1023 -0.0718  0.1885
27181W        W44705   1.691   9.307   2.077  0.0722 -0.3141  0.0940
27182W        W44706   9.073  10.563  12.674 -0.3121  0.0804  0.1404
27183W        W44707  14.502   4.669   2.036  0.2080  0.0440 -0.1247
27184W        W44708  14.821  17.003   5.668 -0.0684  0.0953 -0.0372
27185W        W44709  17.125   9.752   2.254  0.1582 -0.1230 -0.2549
27186W        W44710  16.524  12.082   0.088 -0.2364  0.0877 -0.1644
27187W        W44711  16.037  11.914   1.955 -0.0317  0.0002 -0.1353
27188W        W44712   4.624   5.656  13.793 -0.0886  0.1708 -0.0779
27189W        W44713  15.718  16.991   0.284 -0.0075 -0.1025 -0.1097
27190W        W44714   6.163   8.929   0.588  0.0392 -0.0326 -0.1537
27191W        W44715   0.998  16.731   5.985 -0.1209  0.2655  0.2235
27192W        W44716  11.229   0.913  14.131 -0.2903  0.1760 -0.0095
27193W        W44717   2.138  16.201  14.065 -0.2502 -0.2260  0.0992
27194W        W44718   6.547   7.251  12.640 -0.0339 -0.0348 -0.0928
27195W        W44719  14.411  13.586  15.775  0.1018 -0.2503  0.3790
27196W        W44720  15.081   6.474  12.976 -0.1393 -0.1596 -0.1358
27197W        W44721   2.956   7.238   3.755 -0.0808 -0.0540 -0.0338
27198W        W44722   8.941   1.731   2.008  0.0785 -0.1012 -0.0863
27199W        W44723  13.705  14.742  15.760 -0.0240  0.0065  0.0552
27200W        W44724  14.038  16.709  17.071  0.1994  0.0956  0.1793
27201W        W44725   6.359   3.706  14.404 -0.0800 -0.1640 -0.0730
27202W        W44726   6.157   2.131  12.574  0.1453  0.0260  0.2675
27203W        W44727  14.776  10.030   4.726 -0.0509  0.3174 -0.3218
27204W        W44728   9.553   1.610   1.314  0.0714 -0.2082 -0.2021
27205W        W44729  12.478   6.773   5.480 -0.2038  0.0719  0.1054
27206W        W44730   2.853  10.548  16.685  0.0613  0.0975 -0.3250
27207W        W44731   1.167  12.644  12.823 -0.0521  0.0188  0.0268
27208W        W44732   4.493   3.541  14.851 -0.0393 -0.0787  0.2403
27209W        W44733  10.308   1.338   1.057 -0.0049 -0.1253  0.1169
27210W        W44734   0.251   4.033  15.241  0.0159 -0.2446  0.3347
27211W        W44735  16.353   3.214  14.761  0.0718 -0.1704  0.2746
27212W        W44736   5.908  13.560   2.278 -0.0754 -0.0992 -0.0069
27213W        W44737   2.517   7.105   0.547 -0.2593  0.2194  0.4118
27214W        W44738  10.975   3.861   2.711  0.1161 -0.0529 -0.0424
27215W        W44739   7.342  10.518   3.468  0.3012  0.1587  0.0753
27216W        W44740   0.794  14.698   1.971  0.1142 -0.0910 -0.1680
27217W        W44741  15.310  14.083   1.153 -0.0179  0.0068  0.1211
27218W        W44742  16.944  13.461  17.506  0.0271 -0.0293 -0.1870
27219W        W44743   9.696  16.035  14.454  0.1368  0.1592  0.3203
27220W        W44744   9.454   3.819  12.671  0.3356  0.0554 -0.2783
27221W        W44745  12.871   2.160  16.740 -0.2080  0.1562  0.0550
27222W        W44746   9.674   5.569   4.228 -0.2596  0.0430 -0.2585
27223W        W44747  16.815   5.533  15.645 -0.1106 -0.0170  0.0972
27224W        W44748   5.425   7.594  13.155 -0.5712 -0.1161  0.1545
27225W        W44749   3.041   6.385  12.108  0.0810 -0.2674  0.0245
27226W        W44750   5.977   1.092   1.085 -0.0716  0.0640  0.0360
27227W        W44751   3.494   7.055  17.327  0.2018 -0.1840  0.0726
27228W        W44752  12.476   7.845  16.314 -0.0283  0.1373 -0.1955
27229W        W44753  12.729  10.170   0.870 -0.1081 -0.0958 -0.0835
27230W        W44754   5.444   7.957  14.302  0.1462 -0.0029  0.0914
27231W        W44755  16.735  14.681   1.313  0.0101  0.3699 -0.3000
27232W        W44756  11.705  14.764   4.849  0.1039 -0.0527  0.0250
27233W        W44757  11.482  15.729   2.910 -0.0026  0.0092  0.0472
27234W        W44758   6.572  14.355   3.963 -0.0681  0.0015  0.2375
27235W        W44759   9.822  10.906   4.875 -0.0834 -0.0563  0.2004
27236W        W44760  15.927   9.686  16.392  0.2166  0.0502 -0.1766
27237W        W44761   0.002   0.789  15.270 -0.4526  0.1716 -0.1942
27238W        W44762   1.094  12.924  17.591 -0.0959 -0.1673 -0.1312
27239W        W44763   7.963  10.172   0.676  0.5079  0.2230 -0.1040
27240W        W44764   5.769   2.813   0.615 -0.1582  0.0524  0.0011
27241W        W44765   7.848   3.926  12.371  0.0630  0.0772  0.0638
27242W        W44766   7.960   9.170  17.550 -0.0536  0.2772  0.2270
27243W        W44767   1.084  14.801   1.253 -0.2399  0.1492  0.2191
27244W        W44768   9.381  11.032   0.121  0.2177 -0.3618  0.1486
27245W        W44769  12.796  16.471  17.117 -0.2064  0.0297 -0.2853
27246W        W44770   4.575  15.017  15.200 -0.0130 -0.1698 -0.1068
27247W        W44771   6.160  13.018   5.315  0.3429 -0.2093  0.0909
27248W        W44772   5.332   2.207  12.112  0.0034  0.1217 -0.2230
27249W        W44773   3.256  12.385  16.162 -0.2090  0.2519  0.1203
27250W        W44774  11.882   1.508  15.824  0.0319  0.2194  0.1267
27251W        W44775  13.701   5.448   4.827 -0.0635  0.1353  0.0516
27252W        W44776   4.947  16.140  14.322 -0.0051 -0.3205 -0.0428
27253W        W44777   3.620   0.509   4.333 -0.1874 -0.2576  0.3620
27254W        W44778   4.262   5.258   3.287  0.2064 -0.0747 -0.1397
27255W        W44779  15.028  12.261  13.831  0.0058 -0.0050  0.2644
27256W        W44780  14.137  14.305  12.557 -0.2424 -0.1420  0.2872
27257W        W44781   3.730  16.667  17.504 -0.0263 -0.1372  0.0334
27258W        W44782  14.662   4.729   2.930  0.3306 -0.0959  0.0006
27259W        W44783   1.445   1.143  12.271 -0.1065 -0.0033  0.0071
27260W        W44784  16.882  10.184  13.436 -0.2325  0.4621 -0.2254
27261W        W44785  13.695  15.385  13.963  0.0537 -0.1687  0.1989
27262W        W44786  11.293   1.793   2.768 -0.0786  0.1545 -0.0237
27263W        W44787   8.389  10.975   0.461 -0.0159  0.2472  0.0776
27264W        W44788   7.188   1.178  11.925 -0.2730 -0.1017 -0.0206
27265W        W44789   9.796   8.616  11.042 -0.0006  0.0202 -0.1924
27266W        W44790  10.130   9.551   3.237  0.0213 -0.1602  0.0692
27267W        W44791   2.815  11.962   2.379  0.0856 -0.3778 -0.3823
27268W        W44792  11.696   8.797   1.344 -0.3338  0.0685 -0.2725
27269W        W44793  15.522  12.582   2.012  0.1683 -0.2987  0.3131
27270W        W44794  12.882   9.763  13.040 -0.0076 -0.1327 -0.0880
27271W        W44795  16.118   2.862   2.197 -0.0648 -0.0562  0.0946
27272W        W44796   0.570   4.176   2.840 -0.2293  0.0627 -0.0728
27273W        W44797   6.007   3.770   5.366  0.0361  0.1467 -0.2684
27274W        W44798  13.140  13.357  14.562 -0.0426 -0.1269  0.0676
27275W        W44799   1.858   4.450  16.884  0.1229 -0.1022 -0.1188
27276W        W44800   5.561   0.486   5.343  0.2342 -0.1654  0.1549
27277W        W44801   4.026   9.239   1.274  0.1947 -0.0084 -0.3468
27278W        W44802   7.044   1.430   6.426  0.3878 -0.0317 -0.4288
27279W        W44803   5.010  13.406   3.260 -0.2014  0.3295  0.0622
27280W        W44804  16.879  14.102   2.537 -0.1140 -0.1786  0.0565
27281W        W44805  11.116  16.376  15.329  0.0623  0.1605  0.0261
27282W        W44806  10.445  13.046  11.985  0.0763  0.1200 -0.1570
27283W        W44807   0.654   0.235   1.525 -0.1445  0.1927  0.2300
27284W        W44808  10.713   6.536  16.629 -0.0305  0.0068  0.2273
27285W        W44809  16.845   9.950   0.383 -0.2022 -0.3552 -0.2100
27286W        W44810   8.242   9.045  12.158 -0.0174 -0.0403 -0.0410
27287W        W44811   8.862   1.426   4.030 -0.3561 -0.1060  0.0045
27288W        W44812   1.681  16.529  14.138 -0.1273  0.0857  0.3075
27289W        W44813  13.006   8.596   5.349 -0.3766 -0.0834 -0.0650
27290W        W44814   7.178   5.465  16.539 -0.1741  0.0245 -0.1713
27291W        W44815   2.890   7.771   1.953 -0.2388 -0.1320 -0.0120
27292W        W44816  13.291  13.302  16.603 -0.0289  0.0399 -0.0217
27293W        W44817  14.744   3.537   1.569  0.3506  0.1120 -0.0837
27294W        W44818  14.837   6.018  17.261  0.0925  0.1508  0.0443
27295W        W44819  16.065   6.867   3.931 -0.4275 -0.0664  0.0003
27296W        W44820   8.008  15.772   4.439 -0.1806 -0.2583 -0.0306
27297W        W44821  13.023   9.329  13.826  0.0408 -0.2017 -0.0660
27298W        W44822  15.359  13.726   2.078 -0.3452  0.0299  0.0275
27299W        W44823  17.022   2.670   0.430  0.0606  0.1056  0.0070
27300W        W44824   2.687   0.871   2.098  0.0392 -0.1549 -0.1516
27301W        W44825   7.180  15.670   3.259  0.2144  0.0930 -0.0697
27302W        W44826   4.425  15.618  15.118  0.1960 -0.1907  0.0801
27303W        W44827  16.104  13.785  17.411 -0.3586 -0.0233  0.1417
27304W        W44828  14.836  12.545   1.448  0.0603 -0.0520 -0.1943
27305W        W44829  15.285   8.559   3.667 -0.2756  0.1353 -0.0509
27306W        W44830  10.915  16.089   2.146  0.0383  0.0218 -0.2647
27307W        W44831   6.494   1.823  16.219 -0.4258 -0.1724 -0.1923
27308W        W44832  16.909   3.332   1.562  0.0952  0.1444  0.0772
27309W        W44833   6.707   1.595  15.864  0.1103 -0.2330 -0.0679
27310W        W44834   3.791   0.571  13.530 -0.0864  0.1752 -0.1291
27311W        W44835   7.573   3.169  17.409 -0.1046  0.0245 -0.0541
27312W        W44836   8.575   3.302   1.735 -0.3106  0.1725  0.0730
27313W        W44837  14.522   1.669   1.279 -0.2090  0.0984 -0.0784
27314W        W44838  12.776   0.087  17.258 -0.1060 -0.2233  0.4667
27315W        W44839   3.944   6.038  14.312 -0.0747 -0.0195 -0.1632
27316W        W44840  12.969   6.458   4.970 -0.0961  0.3643 -0.0062
27317W        W44841   8.405   8.223   0.933 -0.5123  0.0334  0.0708
27318W        W44842  10.491  10.330   2.654  0.3456 -0.1602  0.1418
27319W        W44843  12.716  11.480  12.862  0.2403  0.0687  0.0145
27320W        W44844  16.526   2.290  14.343 -0.0015  0.1903 -0.0824
27321W        W44845  14.111   8.199  13.595  0.0251 -0.1661 -0.0785
27322W        W44846   9.558  11.403  16.027 -0.2283 -0.4637  0.1779
27323W        W44847   9.399   4.108   1.641  0.0615 -0.1893  0.4394
27324W        W44848   0.409   5.678   3.373 -0.0331 -0.0582 -0.0729
27325W        W44849   0.354   0.715   0.695 -0.1742 -0.1659 -0.0191
27326W        W44850  13.147  15.133  16.834 -0.0261  0.3975 -0.1187
27327W        W44851  15.105  16.087  16.938  0.0925  0.1805 -0.2812
27328W        W44852  10.523   2.436  15.393  0.1695  0.2200  0.2946
27329W        W44853  12.197   5.620  12.580 -0.1902 -0.1858  0.0555
27330W        W44854  15.767   7.186   5.101  0.0865  0.1036  0.1530
27331W        W44855   8.838   3.444  16.011 -0.0195  0.0422 -0.0732
27332W        W44856   2.190   9.502  13.676  0.0010  0.4984 -0.1296
27333W        W44857  12.106  10.498  17.295 -0.2703  0.3224  0.0105
27334W        W44858   4.777   8.311  16.055  0.0926 -0.0814 -0.1612
27335W        W44859  11.745   3.756   5.525  0.0592  0.0561 -0.2854
27336W        W44860   4.511   1.673   1.260 -0.0182  0.1450 -0.0177
27337W        W44861   5.970   8.577   0.898  0.0093  0.1092 -0.1867
27338W        W44862   3.785  13.059   0.541  0.1754  0.0453  0.2062
27339W        W44863  11.014   6.555  15.072  0.1658 -0.1066 -0.3466
27340W        W44864   3.728   0.879   1.289 -0.0315 -0.0268 -0.1268
27341W        W44865  11.893  14.119   4.249 -0.1794 -0.1677 -0.0777
27342W        W44866   6.486   3.131  16.783 -0.1576  0.0454  0.2635
27343W        W44867   4.418  10.105   5.883  0.0016 -0.3403 -0.1389
27344W        W44868  12.430  16.882   3.899 -0.0588 -0.0236 -0.0103
27345W        W44869   8.145  16.266  12.210  0.1013 -0.2406 -0.1069
27346W        W44870   9.944  13.135   1.793  0.0670 -0.0266 -0.1306
27347W        W44871   9.976   0.723  17.293 -0.0989 -0.1384 -0.0685
27348W        W44872   0.700  14.783  14.039 -0.0812 -0.0394  0.0509
27349W        W44873   5.654   4.086   5.085 -0.0422 -0.1316  0.0448
27350W        W44874   5.204  14.552   4.793 -0.1234 -0.1974 -0.3552
27351W        W44875   4.552   0.127   3.184  0.0569  0.1720 -0.1472
27352W        W44876  13.077   7.985  17.074 -0.0313 -0.0299  0.2006
27353W        W44877   1.850  16.056  12.332  0.0352 -0.0386  0.1543
27354W        W44878   9.701   1.851  15.260  0.0864 -0.0228  0.2520
27355W        W44879  12.968   1.691  13.622  0.2072 -0.2832 -0.2101
27356W        W44880   5.729   5.261  16.237  0.1257  0.1931 -0.3566
27357W        W44881   5.980   5.032   2.809  0.1585  0.1203 -0.1183
27358W        W44882   2.732  11.193  14.109  0.0252 -0.0172  0.3530
27359W        W44883   1.261   6.543  16.149  0.1047 -0.0587 -0.0663
27360W        W44884   5.692   0.876   1.583 -0.1092  0.1377  0.0044
27361W        W44885  10.568  13.128  13.792 -0.1087 -0.1652 -0.0809
27362W        W44886   9.123  10.076   4.699 -0.0772  0.0955  0.1371
27363W        W44887   2.007  15.035   4.424  0.1955 -0.2724  0.2655
27364W        W44888  10.918   4.660  15.318 -0.3026  0.3214  0.1755
27365W        W44889  15.618   8.053   5.100  0.0812  0.2224 -0.1100
27366W        W44890   9.044   2.322  12.629 -0.2437 -0.1611  0.3412
27367W        W44891  14.281   8.684  13.644  0.0209 -0.0113  0.2454
27368W        W44892  11.436  15.772  12.664  0.1089  0.0289  0.3451
27369W        W44893  12.974  11.903  12.469  0.1057  0.0853 -0.0900
27370W        W44894  10.251   8.805   1.669 -0.2522  0.0874 -0.1675
27371W        W44895  11.996   1.292   1.722  0.0222 -0.1235  0.0192
27372W        W44896   4.614   1.968  17.088 -0.0105 -0.1520 -0.2348
27373W        W44897   9.108  13.745  12.371 -0.0418 -0.1008  0.1286
27374W        W44898   0.939  16.991   1.460  0.1669  0.2473 -0.1323
27375W        W44899   2.549  12.575   4.308 -0.1448 -0.2556 -0.3057
27376W        W44900   9.128  12.889  17.525  0.1638  0.3713 -0.2857
27377W        W44901   1.732   8.579  12.941  0.4010 -0.3325  0.0527
27378W        W44902  12.549   8.666  15.912  0.0453  0.1356 -0.1781
27379W        W44903   0.930   0.840   3.812  0.1494  0.2405 -0.0119
27380W        W44904   3.378  16.304   0.558  0.1310  0.1334  0.1294
27381W        W44905  13.067  15.294   5.892 -0.0302 -0.3055 -0.0858
27382W        W44906   9.740   5.353  13.538 -0.0314  0.0295  0.1123
27383W        W44907   6.866   4.460   3.293 -0.0766 -0.1940 -0.0409
27384W        W44908  15.032   7.203   1.903 -0.1972  0.2752 -0.0866
27385W        W44909   6.778   4.619  15.781  0.0241 -0.3363  0.1598
27386W        W44910  12.423   1.026  15.527 -0.3142  0.0860 -0.0625
27387W        W44911   2.173   4.553  15.987  0.4712  0.3647  0.0948
27388W        W44912  14.098   9.213   2.240 -0.0768  0.2100  0.1401
27389W        W44913  14.503  13.306   4.199  0.2656  0.0540  0.1083
27390W        W44914   9.735   0.402  17.600  0.0310 -0.1452 -0.0269
27391W        W44915   2.163   2.152   2.214  0.0634  0.0242  0.1020
27392W        W44916   6.771   9.170   5.150 -0.2202  0.0616 -0.2174
27393W        W44917   0.769   2.799   2.452  0.2467  0.0520 -0.0384
27394W        W44918  12.515  16.472   5.058 -0.0352  0.2070  0.2054
27395W        W44919   7.365  14.982  17.083 -0.1928 -0.2381 -0.3974
27396W        W44920   8.897   7.453   4.795  0.0861  0.2866 -0.0011
27397W        W44921  10.408   7.175   2.336  0.1468  0.1630 -0.1400
27398W        W44922   2.953  14.356   1.465  0.2272  0.0596  0.1320
27399W        W44923   2.300  10.887  13.324 -0.5237 -0.0090 -0.2565
27400W        W44924   5.091   6.514   4.505  0.0531  0.2665  0.0434
27401W        W44925  13.590   3.529  14.062 -0.3667  0.0511  0.1590
27402W        W44926   6.990   9.914  15.374 -0.3144 -0.0451  0.0518
27403W        W44927   0.117  14.492  16.667 -0.0583 -0.2875  0.2053
27404W        W44928  10.309   4.344   1.053  0.0479 -0.3321  0.0254
27405W        W44929   7.583   0.896  13.642  0.2276  0.2545 -0.0252
27406W        W44930  10.756  16.222  12.018  0.0993  0.0006  0.2045
27407W        W44931   6.971   1.728  14.606  0.0178 -0.1970 -0.0112
27408W        W44932   3.803   5.749   1.686  0.0089 -0.2443 -0.1735
27409W        W44933   0.956  15.543  17.656 -0.2065  0.2789 -0.1987
27410W        W44934   3.546  11.624   5.461  0.0386 -0.0666 -0.0963
27411W        W44935   8.713  10.378   4.724 -0.0699 -0.0669 -0.2406
27412W        W44936  16.899   4.405   1.199  0.3362  0.0944 -0.0175
27413W        W44937   0.139   3.408   1.945  0.0464 -0.1647  0.1131
27414W        W44938   3.259   4.758   3.747  0.1550  0.0977  0.1828
27415W        W44939   6.861  13.859   1.961 -0.2082  0.2342  0.0640
27416W        W44940  16.931   1.106   5.897  0.2028 -0.0159 -0.1761
27417W        W44941   2.796   8.638   4.097  0.1867 -0.2182 -0.2565
27418W        W44942   2.028  13.624   1.540  0.3743 -0.0929 -0.0097
27419W        W44943  14.979  14.028   3.076 -0.3205  0.2837  0.0631
27420W        W44944  10.844   1.721  13.964 -0.1523 -0.2951  0.2192
27421W        W44945  10.210  16.812   4.079  0.1394  0.2171  0.0213
27422W        W44946   7.724  11.917  17.183 -0.1965 -0.2319  0.0259
27423W        W44947  11.201  10.931  14.680 -0.0980 -0.1391  0.3070
27424W        W44948  14.693  13.357  16.578 -0.1357  0.3012  0.2140
27425W        W44949  11.248   9.349  13.787 -0.3234  0.0129  0.0939
27426W        W44950  12.601  12.392   2.750  0.2909  0.0035  0.0406
27427W        W44951   1.907   7.337   0.080  0.2125 -0.0582  0.2112
27428W        W44952  15.899   2.487  14.807  0.1349 -0.1185 -0.0590
27429W        W44953   1.341  16.808   1.763 -0.4069  0.0372  0.3385
27430W        W44954  11.153   2.575  13.767  0.0357 -0.1284  0.1814
27431W        W44955   1.765   7.896  14.535 -0.0188  0.3886 -0.2199
27432W        W44956   6.851   9.492   0.411 -0.3286 -0.1945 -0.0475
27433W        W44957  13.189   9.161  15.299  0.3954 -0.1624 -0.1393
27434W        W44958   9.838   6.920  15.398  0.0795 -0.0464 -0.2422
27435W        W44959   7.685  15.191  17.588 -0.1050 -0.2512 -0.1548
27436W        W44960   4.556   7.553   5.554 -0.5794 -0.0292 -0.2632
27437W        W44961   6.357   2.362   3.122  0.1124  0.1858  0.0089
27438W        W44962   7.929   7.332   3.722 -0.0452  0.1613  0.0385
27439W        W44963   1.954   1.542   4.641  0.1098  0.0087  0.1253
27440W        W44964   7.587  10.211   0.335 -0.1280  0.1638  0.4638
27441W        W44965  11.416   3.841   5.888 -0.0774 -0.0849 -0.3667
27442W        W44966   1.153   3.019  15.063  0.0724  0.2754 -0.0411
27443W        W44967   1.690  11.508  11.516 -0.3859  0.0411 -0.4023
27444W        W44968   3.199   8.480  17.311  0.0653 -0.0743  0.0875
27445W        W44969  11.430   3.934   0.198 -0.0107  0.0986 -0.0624
27446W        W44970  10.221   8.764  17.633  0.0701  0.0495  0.1533
27447W        W44971  10.360   2.109   2.830  0.0202 -0.0161 -0.1903
27448W        W44972  16.876   5.407  17.375  0.1407 -0.1090  0.1163
27449W        W44973   5.299   0.615   1.328 -0.2383  0.0705  0.2185
27450W        W44974   3.654   4.805  12.538 -0.1068  0.3397 -0.0047
27451W        W44975   9.721   4.436   1.791  0.0419 -0.1180  0.0328
27452W        W44976   9.057  16.325  12.083 -0.2861 -0.0315 -0.1678
27453W        W44977   4.761  10.960   1.980  0.1741  0.0480  0.0424
27454W        W44978   6.972   2.273   4.369  0.1355 -0.0031 -0.1864
27455W        W44979   3.667  13.978   0.833  0.3632  0.3832  0.0188
27456W        W44980  16.570   1.095   1.828  0.0890  0.0402  0.1947
27457W        W44981  11.122   9.681  15.658 -0.0507  0.4173  0.3183
27458W        W44982  12.759  10.228   4.600  0.0016  0.1079 -0.1879
27459W        W44983  13.333  11.318  15.036  0.2728  0.0033  0.1836
27460W        W44984  13.576   8.820  12.464 -0.2617  0.1647  0.1439
27461W        W44985   5.994   7.232   0.694  0.0325  0.1294  0.0247
27462W        W44986   5.860   4.463   0.934  0.1677  0.0530 -0.0485
27463W        W44987   3.086   0.399   1.345  0.4764 -0.0224  0.1187
27464W        W44988   4.540   9.960   4.124 -0.0149 -0.3446  0.1796
27465W        W44989   2.865   9.111   0.485 -0.3386  0.0410  0.2353
27466W        W44990   9.206  15.026  15.670 -0.1207  0.1299  0.1119
27467W        W44991   5.319   2.554   4.219 -0.2281  0.0671  0.1935
27468W        W44992   9.984   6.655  17.707  0.3373 -0.1627 -0.0211
27469W        W44993   0.770   3.415   0.236 -0.1161  0.1183  0.0445
27470W        W44994  10.880  12.184  17.432 -0.0621  0.1680 -0.0908
27471W        W44995  14.869  11.711  12.926  0.0685 -0.4107  0.1236
27472W        W44996  17.143  14.637   2.833 -0.0973  0.1604  0.2271
27473W        W44997  15.398  14.330   3.187  0.0946  0.0370  0.1518
27474W        W44998   1.615  13.017  16.940 -0.0558  0.0206 -0.1089
27475W        W44999   5.763  15.575   0.503 -0.0561 -0.0307  0.1374
27476W        W45000   0.506   6.546  14.348  0.0360  0.0470  0.3266
27477W        W45001   3.702  13.806   3.983  0.4184  0.1773  0.0379
27478W        W45002   0.750   4.159   1.814  0.0148 -0.0225 -0.2705
27479W        W45003   0.003  13.985  15.404  0.2264  0.0707 -0.2230
27480W        W45004   7.464   2.181   1.256  0.1937 -0.2946  0.1178
27481W        W45005   0.118   3.127   4.202 -0.1679  0.0395  0.2749
27482W        W45006  11.602  12.927   0.701 -0.1788  0.1323  0.0945
27483W        W45007   3.522   7.899   5.351  0.2124  0.1385 -0.1314
27484W        W45008  15.815   9.994  17.734  0.0132 -0.0228 -0.1404
27485W        W45009   9.626  16.484  16.160 -0.0700 -0.0441  0.0569
27486W        W45010   6.495   7.741  15.704 -0.1645  0.3155  0.0268
27487W        W45011  10.217  14.776   0.163  0.3415 -0.0247  0.0218
27488W        W45012   5.736   5.172   5.650 -0.1451 -0.0929 -0.0590
27489W        W45013   0.681   3.032  14.526 -0.0497  0.2636 -0.1358
27490W        W45014  12.143   2.678   1.203  0.1732 -0.1558 -0.0062
27491W        W45015   6.769  12.354  11.668  0.3085 -0.0727 -0.1753
27492W        W45016   6.372   4.681  12.862  0.4064  0.1675  0.1148
27493W        W45017  13.241   5.647   4.779 -0.0568 -0.4855  0.2375
27494W        W45018  10.713   1.334   5.474  0.2693  0.2900  0.3303
27495W        W45019   6.012  17.019  14.477  0.0073  0.1660  0.0935
27496W        W45020   0.501  10.224   0.528  0.4434 -0.0942 -0.1604
27497W        W45021  15.701   5.591   1.893  0.2589 -0.0047  0.0721
27498W        W45022  12.044   6.475  14.663 -0.2077  0.1840 -0.1134
27499W        W45023   1.666   2.394   0.647 -0.2322  0.2714 -0.0377
27500W        W45024  16.824   3.560   2.011  0.0243 -0.0346  0.2038
27501W        W45025   4.498   8.364  12.320  0.0548  0.0126 -0.0710
27502W        W45026   0.546   0.829  15.229 -0.0301  0.0443 -0.0561
27503W        W45027   0.496  14.346  16.191 -0.1375  0.3718  0.0100
27504W        W45028  13.551  15.593   0.091 -0.2851  0.1408  0.0548
27505W        W45029   4.487  13.334   4.619 -0.1149  0.1064 -0.0626
27506W        W45030   5.836   7.546   0.012 -0.0151 -0.1922 -0.0564
27507W        W45031  13.351   4.455  15.510 -0.0885 -0.0297 -0.1587
27508W        W45032  11.289  11.883  16.483 -0.1079 -0.3332 -0.1055
27509W        W45033  11.682   1.977  17.057 -0.3606  0.1139 -0.0722
27510W        W45034   3.383   5.688  15.218  0.1209  0.1121  0.2975
27511W        W45035   6.372  16.311   0.562 -0.1500  0.2005  0.0090
27512W        W45036   9.868  12.683  16.264  0.1145  0.0804  0.1235
27513W        W45037   9.060   7.498  17.002  0.3193 -0.1659 -0.0789
27514W        W45038  11.636   2.196  17.574  0.1233 -0.1582  0.1273
27515W        W45039   4.666  14.352   0.210  0.0609 -0.1824 -0.2078
27516W        W45040  12.540   3.086   1.322 -0.1735 -0.2915 -0.1436
27517W        W45041  12.920   2.265  14.038  0.1093 -0.1133 -0.1951
27518W        W45042   5.965   3.240   2.888  0.2288 -0.0889 -0.2006
27519W        W45043   5.025   5.370   4.703  0.0505 -0.1306  0.0680
27520W        W45044  16.023   9.925   5.822  0.3788  0.2855  0.1576
27521W        W45045  16.444   9.704  14.624  0.1332  0.1718  0.0374
27522W        W45046   8.987   7.488   2.063 -0.4101  0.0968  0.0951
27523W        W45047   4.246  13.327  17.187  0.0955  0.1203  0.0027
27524W        W45048  14.848   2.168   5.517  0.4329 -0.1108 -0.0319
27525W        W45049  10.540   0.497  12.004  0.1885  0.0997  0.0179
27526W        W45050  10.038   7.428   0.084 -0.1918 -0.1238  0.2313
27527W        W45051   2.414   0.345   2.242 -0.1648  0.1710  0.3486
27528W        W45052   9.847  10.589   3.181 -0.1515  0.0463 -0.0974
27529W        W45053   3.257   3.676   5.396 -0.1328  0.0701  0.2748
27530W        W45054   4.227   0.770   2.783 -0.0190  0.0579  0.0832
27531W        W45055  16.455   6.916  13.520 -0.3733  0.0165 -0.2443
27532W        W45056   4.632   8.360  17.276  0.1011  0.0275  0.0608
27533W        W45057   6.032   6.746   1.022 -0.2384 -0.2140  0.1122
27534W        W45058  15.938  13.537  15.643 -0.0127 -0.1656  0.1488
27535W        W45059  14.934   7.249  15.024  0.0085 -0.0216  0.0743
27536W        W45060   6.339   4.468   0.419  0.0598  0.0243  0.0920
27537W        W45061   2.272  12.280   2.802  0.0959 -0.0038 -0.1937
27538W        W45062   7.986   0.539   3.913  0.1614  0.1430 -0.2587
27539W        W45063  16.011  16.840  15.260 -0.0119  0.1121 -0.1454
27540W        W45064   7.199   7.603   1.181  0.0348 -0.0700 -0.0772
27541W        W45065   2.654   7.681  12.093 -0.0854 -0.2588  0.1718
27542W        W45066   9.535   5.463   2.759 -0.2354  0.2752 -0.0603
27543W        W45067   2.596   8.391  13.253 -0.0346  0.0437 -0.0665
27544W        W45068   8.578   0.534  12.748 -0.2091 -0.1141  0.1731
27545W        W45069  16.165   0.329   2.840  0.1244 -0.0157  0.0378
27546W        W45070   6.177   3.003   4.273  0.2596  0.0858 -0.0277
27547W        W45071  14.416  16.475  14.489  0.2673 -0.1192  0.0041
27548W        W45072  12.872   0.685   1.124  0.0836  0.0576 -0.0048
27549W        W45073  12.144   8.259  13.098 -0.1121  0.1124 -0.1044
27550W        W45074  10.213  13.767  13.319  0.0815  0.0192 -0.1108
27551W        W45075  14.756   1.790  15.022  0.1374  0.1472  0.1801
27552W        W45076   9.646   3.611   3.579  0.0289  0.0510  0.0411
27553W        W45077  12.509  14.119  15.510  0.2677  0.1082  0.0452
27554W        W45078   4.597  12.642   2.812  0.1514  0.0172  0.0633
27555W        W45079   4.681   2.160  17.612  0.3668  0.2350 -0.2871
27556W        W45080   2.710   7.089   5.090 -0.3196  0.0168 -0.1276
27557W        W45081   1.396   2.241   4.293  0.0664 -0.0853  0.0117
27558W        W45082   2.109   8.825   0.347 -0.0354 -0.0369 -0.0392
27559W        W45083   5.361   9.635  16.268  0.0646  0.2676 -0.0355
27560W        W45084   6.383  15.446   2.543  0.0930 -0.0229 -0.3001
27561W        W45085   3.471   5.899   3.604 -0.0168 -0.0459  0.1644
27562W        W45086  16.016   9.768  12.797  0.2714 -0.0945  0.3990
27563W        W45087  11.160   6.286   6.293 -0.0009 -0.0398  0.1858
27564W        W45088  10.242  12.484   0.435 -0.3815  0.1760 -0.1215
27565W        W45089   4.838   9.523   0.938  0.3394 -0.0176  0.3727
27566W        W45090   6.137  14.071   4.073 -0.0443  0.2004 -0.4624
27567W        W45091   7.883  16.660  14.571  0.2839  0.2700  0.0834
27568W        W45092   5.340   7.368   4.911 -0.1487  0.1866 -0.1941
27569W        W45093   3.512   5.656  16.703  0.0344 -0.3407 -0.1164
27570W        W45094   6.201  15.545   3.575 -0.0506  0.0384 -0.2467
27571W        W45095  15.962   8.364  17.244  0.1455  0.0187 -0.2002
27572W        W45096  10.472   6.560  14.153  0.1275  0.2399  0.0227
27573W        W45097  14.604  14.370  16.241 -0.1298 -0.0424 -0.3343
27574W        W45098  10.847  14.965  13.270 -0.1521  0.0805 -0.0576
27575W        W45099  14.839   1.680  16.079  0.1858 -0.0998  0.2579
27576W        W45100  12.375   6.732  17.552 -0.1657  0.4624 -0.1042
27577W        W45101   1.542   2.112   5.795  0.1149  0.0266  0.0809
27578W        W45102  14.658   0.348   4.521  0.1610 -0.0891  0.1077
27579W        W45103   4.604  11.331  13.605  0.3889  0.0183 -0.0117
27580W        W45104  12.081  11.239   1.992 -0.0266 -0.1196 -0.1031
27581W        W45105  11.377  11.193   3.582 -0.1101  0.0266 -0.2441
27582W        W45106   8.867   8.676   2.106 -0.2514 -0.1151  0.0960
27583W        W45107   0.305  13.843   3.138  0.0051 -0.2305  0.3477
27584W        W45108  10.437   6.945   0.718  0.1006 -0.0023 -0.1211
27585W        W45109  11.822  15.886   3.945  0.3286 -0.3332 -0.1464
27586W        W45110   1.180  16.580  12.401  0.2088  0.0622 -0.0111
27587W        W45111  13.919  16.692   3.782 -0.0995 -0.2438 -0.3130
27588W        W45112   1.587  14.791   4.334  0.2857  0.1849  0.2345
27589W        W45113  16.656   4.021   4.917  0.1993 -0.0119  0.0636
27590W        W45114   8.974   2.715  17.596 -0.2473  0.0968 -0.3060
27591W        W45115  16.293   0.105   3.981 -0.1389  0.1382  0.0237
27592W        W45116   6.129  11.239  12.983 -0.3924 -0.2181 -0.1930
27593W        W45117  14.250   9.415   1.411 -0.2357 -0.1059 -0.1904
27594W        W45118  14.491   5.189   2.979 -0.1739  0.1318 -0.2126
27595W        W45119  10.492  12.747  14.861 -0.0410 -0.0090  0.1933
27596W        W45120  10.144   6.080   2.223  0.3322  0.1321 -0.1210
27597W        W45121   0.887   2.417   4.039 -0.0887  0.0045 -0.4419
27598W        W45122   0.911   7.106   4.489 -0.0312 -0.3328  0.2398
27599W        W45123  14.475   9.757   3.837  0.0790 -0.2244 -0.3315
27600W        W45124   9.055  16.527  12.611 -0.0942  0.0651  0.0165
27601W        W45125  10.466   1.074   1.577  0.0260  0.1623 -0.2415
27602W        W45126   0.839   7.002  13.076  0.0981  0.0599  0.0401
27603W        W45127  16.990  12.144  16.104  0.1503 -0.0697 -0.1104
27604W        W45128   0.568   2.614   4.434 -0.0661 -0.0075 -0.0005
27605W        W45129  16.543   0.708  13.238 -0.1210 -0.0143 -0.3846
27606W        W45130   8.042   4.197   2.672  0.0914 -0.1421  0.1527
27607W        W45131   7.524   0.683   1.388  0.1913 -0.0340 -0.0131
27608W        W45132   0.566  11.885   0.592 -0.1788  0.1886 -0.0178
27609W        W45133  16.166   2.410  13.134 -0.3346  0.1301  0.0315
27610W        W45134  10.381  12.217  15.813  0.0792  0.3288 -0.1576
27611W        W45135  13.165   0.748   0.276 -0.1391 -0.3426 -0.0497
27612W        W45136   6.875   2.090  15.886 -0.0453  0.0939 -0.1182
27613W        W45137   0.413   0.172   2.039  0.0965  0.0078  0.2746
27614W        W45138  15.457  12.833   2.960  0.0042  0.1476 -0.2129
27615W        W45139  10.053  16.816   0.139 -0.0072 -0.1870  0.1269
27616W        W45140   9.462  14.327   3.692 -0.5221 -0.0008 -0.0046
27617W        W45141  14.280   4.847   5.727 -0.1212 -0.1144  0.0042
27618W        W45142   4.597   2.872  12.091  0.0471 -0.0066 -0.1063
27619W        W45143  10.610  11.339   0.305  0.1359 -0.1931  0.0320
27620W        W45144   6.523   5.364  17.270  0.2125 -0.2074 -0.0256
27621W        W45145   8.260  10.559   1.443 -0.1082  0.0250  0.0097
27622W        W45146  15.019  15.464   0.805  0.1201  0.0769 -0.2260
27623W        W45147   7.172  11.294   4.464 -0.0581 -0.0754 -0.0387
27624W        W45148   9.801   2.887  12.774  0.1245  0.1821  0.0454
27625W        W45149  14.205  10.248  17.303 -0.0550 -0.0042  0.1564
27626W        W45150  14.498   9.958  13.971 -0.1200 -0.0011  0.1192
27627W        W45151   8.597  16.038  12.123  0.0388 -0.1588 -0.1119
27628W        W45152   9.590  14.811   2.288  0.0850  0.1663 -0.0689
27629W        W45153  11.952   3.424  16.800  0.2034 -0.3531  0.1240
27630W        W45154   8.271  11.874   1.937  0.0777  0.0504 -0.2232
27631W        W45155   7.397   5.623  15.591 -0.1819 -0.0221 -0.0172
27632W        W45156  10.486  13.461  14.241  0.1126  0.2558 -0.1513
27633W        W45157  12.018   7.223  15.117 -0.1376 -0.2202  0.1118
27634W        W45158   0.052  10.881  11.427  0.1209  0.0321 -0.0020
27635W        W45159   0.456  10.631   3.459  0.2209  0.0126 -0.2201
27636W        W45160  16.498  17.062  15.422 -0.0286 -0.0868  0.0802
27637W        W45161   7.964   0.223   0.396  0.0090 -0.1618 -0.2171
27638W        W45162  11.255   4.714  17.612  0.1018  0.0104  0.2510
27639W        W45163  15.666  16.414  12.677 -0.2716  0.1712  0.0395
27640W        W45164  10.294   2.834   3.644  0.2015  0.2314  0.0697
27641W        W45165  16.357  15.582   1.335  0.0003  0.0701 -0.2014
27642W        W45166  12.107  10.858   4.155 -0.0978 -0.1591 -0.2091
27643W        W45167  13.154  11.965  13.405  0.1309  0.0933  0.2806
27644W        W45168  12.357   0.603   0.942 -0.1157  0.0270  0.4360
27645W        W45169  14.908   3.275  11.608  0.1864 -0.2125  0.2007
27646W        W45170   5.581   2.096   3.442  0.0171  0.1758 -0.0669
27647W        W45171  13.567   6.869  14.724  0.0052  0.1143  0.2286
27648W        W45172   3.993  12.949  15.995  0.0562 -0.0976  0.0211
27649W        W45173   1.054  12.644   1.207  0.0612  0.0040  0.0548
27650W        W45174   8.226  12.023   2.881  0.1659  0.2498  0.4457
27651W        W45175   9.322   3.211  16.529  0.2674 -0.1894  0.1401
27652W        W45176  10.712   9.224   3.945  0.2616  0.1465  0.2399
27653W        W45177   7.058  14.255   3.718  0.3390  0.2942  0.1972
27654W        W45178   4.239   6.641  14.852  0.0469  0.0279  0.2177
27655W        W45179  16.336   9.022  12.786  0.3217 -0.0821 -0.0916
27656W        W45180   4.371  15.409  17.106  0.3510  0.2349  0.3454
27657W        W45181  12.590  12.177  14.343 -0.0227  0.0202 -0.1164
27658W        W45182   1.911  13.930  14.806  0.0211  0.0674  0.0588
27659W        W45183   2.272   0.587  14.783  0.1069  0.4709 -0.0318
27660W        W45184   5.541   2.488   5.493 -0.1102  0.1805 -0.1899
27661W        W45185   1.138   1.061   5.649 -0.3520  0.0844  0.4945
27662W        W45186   0.049   7.222  12.579  0.0833 -0.2661 -0.0783
27663W        W45187   9.747   3.392   3.100  0.1125  0.1283 -0.0177
27664W        W45188   0.353   5.295   4.315  0.0944 -0.1454  0.2751
27665W        W45189   2.712   9.273   4.657 -0.0505 -0.1507  0.2581
27666W        W45190  13.404  10.949   4.537 -0.1925  0.0087 -0.2446
27667W        W45191   5.655   9.657  12.400 -0.2131 -0.1626 -0.0629
27668W        W45192  14.762  12.842   1.024 -0.0723 -0.3692 -0.0232
27669W        W45193   8.497  14.211   0.429  0.0833 -0.1467  0.1837
27670W        W45194   7.021   2.448  16.645 -0.1058 -0.0714  0.0779
27671W        W45195   9.445   7.384   1.643  0.2117  0.1694  0.2056
27672W        W45196   5.018  10.167  14.797  0.0332  0.1310 -0.1497
27673W        W45197   5.137  14.206   1.845  0.0165  0.1181 -0.3240
27674W        W45198  15.468  13.975   4.262  0.0773 -0.0910  0.0212
27675W        W45199   9.164   7.401   4.355 -0.2506  0.0238 -0.2652
27676W        W45200   0.683   8.124  17.193 -0.1104 -0.1534 -0.0737
27677W        W45201  11.802   1.199   5.662 -0.0317  0.0169 -0.1230
27678W        W45202  16.603   9.813   1.924 -0.0220  0.0729 -0.3034
27679W        W45203   9.491  13.417  15.683  0.2961 -0.0242 -0.1660
27680W        W45204   3.295  12.108   2.165  0.5016  0.3268 -0.1092
27681W        W45205  10.859   2.728   1.703 -0.2183  0.2522  0.1581
27682W        W45206  13.702  12.870   2.804  0.1709  0.1318 -0.0025
27683W        W45207   1.288   0.827   0.268 -0.0607 -0.1420  0.1392
27684W        W45208   9.274   7.963   5.580  0.1400  0.0377 -0.0627
27685W        W45209   5.784  11.387   5.004 -0.0624  0.2743  0.0153
27686W        W45210  16.514   1.932   2.568 -0.1187  0.2290  0.2416
27687W        W45211  10.974  11.324  13.172 -0.0608  0.1169  0.5084
27688W        W45212  11.690   2.171   3.704  0.0872 -0.2250  0.1667
27689W        W45213   5.197   0.371  14.258  0.0856  0.3742 -0.0472
27690W        W45214   1.029   7.334   2.952  0.3169 -0.0891  0.0953
27691W        W45215   0.965  15.259  14.156  0.1435  0.0955  0.1270
27692W        W45216   0.698  10.284   3.697 -0.0009 -0.1422 -0.1522
27693W        W45217   3.643  14.383   4.056 -0.0292 -0.1170  0.0181
27694W        W45218   6.955   4.895   3.548 -0.0158  0.3251  0.0346
27695W        W45219  12.442   6.483   5.090 -0.1989  0.1458  0.2367
27696W        W45220   2.179   6.820  15.917 -0.0303  0.2023  0.1463
27697W        W45221   7.903  16.589   2.192 -0.3030  0.0020 -0.1212
27698W        W45222   4.788  11.382  14.770 -0.2977 -0.3050 -0.2296
27699W        W45223   1.307   7.125  14.149  0.0786 -0.0171 -0.4289
27700W        W45224   2.949  10.927   0.189  0.2104  0.0573 -0.0191
27701W        W45225  15.274   9.049   1.717 -0.2617  0.2883 -0.0695
27702W        W45226  14.207  15.691  15.493 -0.2606  0.1445 -0.0533
27703W        W45227   2.108  12.024  15.305  0.1477  0.3227  0.1891
27704W        W45228  10.501  10.858   2.510  0.1210  0.0621  0.0221
27705W        W45229   6.191  13.164   4.866  0.0613 -0.0726  0.0785
27706W        W45230   2.413   4.376  14.996 -0.4811 -0.2507  0.1127
27707W        W45231   6.066  12.201   5.182 -0.0866  0.1009  0.2178
27708W        W45232   1.173  10.500   4.430  0.2633 -0.0320 -0.2392
27709W        W45233  15.610   0.082  12.116  0.0962  0.3176 -0.4003
27710W        W45234   0.349   6.152  17.478 -0.3031  0.1744  0.1941
27711W        W45235   0.864   2.184   5.076  0.2334 -0.1113  0.1074
27712W        W45236   1.085   5.793  17.015 -0.0953 -0.0266 -0.2427
27713W        W45237  17.081   2.138  16.508  0.0537  0.3165  0.1352
27714W        W45238   2.195   0.073  14.208 -0.0321  0.2704 -0.1804
27715W        W45239   0.661   1.862   2.421  0.0326 -0.0808  0.1785
27716W        W45240   1.690   4.276   1.230  0.2247 -0.2588 -0.1216
27717W        W45241   4.836  11.209   4.910 -0.1990 -0.1688 -0.0634
27718W        W45242  10.969  16.626   4.145 -0.0580 -0.0145  0.1570
27719W        W45243   7.935  10.284   1.727  0.0898  0.0884  0.0401
27720W        W45244   9.189   4.139   4.446 -0.0068  0.0587 -0.0406
27721W        W45245   0.475   3.758  16.068  0.2552  0.1364 -0.0862
27722W        W45246   2.691   1.339   3.469  0.3836 -0.2556  0.1555
27723W        W45247  12.403   4.307  17.128  0.0873  0.0610 -0.1335
27724W        W45248   0.293   1.385   5.481  0.2097 -0.0762 -0.0299
27725W        W45249   9.294   0.419   2.029  0.0322  0.1072 -0.0667
27726W        W45250  15.433  13.418  14.866 -0.2452 -0.0573 -0.0389
27727W        W45251  11.295  13.816   2.286 -0.1400 -0.0806 -0.0849
27728W        W45252   6.478  12.233   4.189  0.0131  0.3444  0.0922
27729W        W45253   9.481  13.396  15.156 -0.0886  0.2340 -0.0445
27730W        W45254   6.826  10.473   2.980  0.0542  0.1450 -0.0159
27731W        W45255   6.359   7.213  13.484  0.1900 -0.0825 -0.2091
27732W        W45256   5.334   2.707  12.893 -0.4960  0.1525 -0.2993
27733W        W45257   6.764  11.991  15.742 -0.1048  0.3741  0.2028
27734W        W45258   8.278  13.739  13.390 -0.0758 -0.0172 -0.0818
27735W        W45259   8.920   0.909   5.341 -0.0402 -0.3613  0.2683
27736W        W45260  14.707   6.577   0.815 -0.1769  0.0206  0.0444
27737W        W45261   0.706   7.964   0.822 -0.2580 -0.0314 -0.0439
27738W        W45262   2.523  16.595  15.611  0.2225  0.1146 -0.0586
27739W        W45263  13.477   0.892   1.926  0.0528 -0.0334 -0.2755
27740W        W45264   5.644   3.737   0.274 -0.1339  0.0395 -0.0748
27741W        W45265  11.350  10.173   2.403  0.4229 -0.1088 -0.0442
27742W        W45266  15.765   2.866  13.247  0.1788  0.2848  0.1633
27743W        W45267   3.155   6.687  17.445 -0.3251 -0.1106 -0.2249
27744W        W45268   6.461   2.269  11.605  0.0883  0.1738  0.1002
27745W        W45269   9.230   4.986  14.321 -0.0827  0.0667  0.0478
27746W        W45270   2.910   3.928  16.727 -0.0108 -0.0661 -0.1337
27747W        W45271  13.362  13.765  16.551  0.0095  0.1959 -0.0272
27748W        W45272   9.127   8.087   3.697  0.0931  0.3262 -0.3259
27749W        W45273  14.503   3.190   5.225 -0.2933  0.0993  0.1434
27750W        W45274  12.739   5.843   0.892 -0.0195 -0.1436  0.1228
27751W        W45275  10.620   0.196   0.188  0.1767 -0.1444  0.0129
27752W        W45276   0.489  10.171  17.268  0.0999 -0.1310  0.1375
27753W        W45277   2.497  17.031  16.589 -0.3553  0.3261  0.2398
27754W        W45278   2.733   1.515  12.333  0.1194  0.1665 -0.3396
27755W        W45279   6.530  12.366  14.465  0.1774 -0.1698  0.2856
27756W        W45280   4.883   7.371  14.654  0.0635 -0.2243 -0.0369
27757W        W45281   4.960  13.011   4.627  0.3699 -0.2271 -0.0231
27758W        W45282   8.069   8.885   1.638 -0.3358  0.2017 -0.0157
27759W        W45283   8.585  12.422   1.514 -0.1167 -0.1210 -0.3532
27760W        W45284   4.462  15.654   0.161 -0.1652  0.0851 -0.3124
27761W        W45285  14.807   9.416  15.795  0.1968  0.1030 -0.0520
27762W        W45286   6.122   6.595  12.249  0.1962  0.1002  0.2523
27763W        W45287   2.168  16.364  12.122  0.1402 -0.2118  0.2125
27764W        W45288   7.813   7.246   5.419  0.0802  0.1704  0.0275
27765W        W45289   8.254   9.313   1.718  0.2146 -0.3035  0.0939
27766W        W45290   6.243   0.879  12.687 -0.1000  0.2049  0.1370
27767W        W45291   5.347  12.271   2.258 -0.0702 -0.1160 -0.0129
27768W        W45292  13.946   6.008   1.994 -0.0745  0.0012 -0.1731
27769W        W45293   1.618  12.901  14.007 -0.0091  0.3422  0.0488
27770W        W45294   6.252   4.322   2.263  0.2716 -0.1592 -0.3720
27771W        W45295   2.076  10.094   3.164 -0.0951 -0.2172  0.2601
27772W        W45296   5.756   2.273   2.022  0.0345 -0.1514  0.2527
27773W        W45297   6.075   1.687   4.768 -0.2238 -0.1040 -0.1398
27774W        W45298  15.426  14.294   2.061  0.2517  0.2091 -0.1174
27775W        W45299   2.121   6.771   5.841  0.2704  0.1571  0.0544
27776W        W45300  16.183   1.904  13.905 -0.2247 -0.1501 -0.1004
27777W        W45301   9.590   1.954  17.607  0.0412  0.2375 -0.0818
27778W        W45302  15.893   1.404   0.479 -0.0329 -0.0940 -0.3585
27779W        W45303   2.478  10.295   1.493  0.0763  0.1057  0.1593
27780W        W45304   3.282   6.166  14.836 -0.1052 -0.0961  0.1404
27781W        W45305   2.973  11.198  14.511 -0.0759 -0.1009 -0.0331
27782W        W45306   0.815  15.575  16.191 -0.0339 -0.2357  0.1836
27783W        W45307  12.440   4.583  15.630  0.0021  0.1769 -0.0787
27784W        W45308  12.175   2.622  11.675  0.1222  0.1540 -0.3648
27785W        W45309  10.155   8.814  14.466 -0.1777  0.2216  0.0370
27786W        W45310   1.151   7.893   3.914  0.0644  0.2880  0.1044
27787W        W45311   5.647   8.609   4.303  0.0032  0.0021  0.0468
27788W        W45312   8.486   2.802  16.569  0.1831  0.0913 -0.3941
27789W        W45313   8.558   7.464  16.092  0.0879 -0.1018  0.2004
27790W        W45314  16.906  13.363   1.511  0.2518 -0.0346  0.1238
27791W        W45315  14.147   7.323  16.347  0.1428  0.1386 -0.1933
27792W        W45316  16.669   7.558   0.022  0.1286  0.0574 -0.0276
27793W        W45317  11.356   8.062  17.521  0.0616 -0.4391 -0.0203
27794W        W45318  10.904   1.923   1.595  0.1879  0.1879  0.2290
27795W        W45319   6.576  14.253   1.839  0.2554  0.2202  0.0647
27796W        W45320   2.261   9.107  14.100 -0.0726  0.0448  0.2759
27797W        W45321   4.173   0.069   3.825  0.0566  0.0736  0.2854
27798W        W45322  11.894  16.935   4.727 -0.3976  0.2147  0.0255
27799W        W45323   8.246  10.846  12.839 -0.2322  0.1697 -0.0904
27800W        W45324   8.733   7.932  15.382  0.0488 -0.0037  0.1392
27801W        W45325   1.543  14.018  12.972 -0.1728  0.0226  0.0187
27802W        W45326   6.815   8.404  14.110  0.1484  0.0160  0.0191
27803W        W45327   1.323   0.849  13.089 -0.1837 -0.0791 -0.3071
27804W        W45328   1.994   9.330   1.591  0.2064  0.0589  0.0800
27805W        W45329   6.265   2.528   5.652 -0.0815  0.3789 -0.2673
27806W        W45330   9.956   1.338  14.465  0.0880  0.0570 -0.1036
27807W        W45331   5.747   7.176  14.143  0.1286  0.0962 -0.0560
27808W        W45332  11.035   3.435  13.903  0.0419  0.1973 -0.2964
27809W        W45333   6.393  16.001   1.837  0.1766 -0.0134  0.1449
27810W        W45334   1.814   1.966  16.592 -0.3318 -0.3126  0.1613
27811W        W45335  11.513   4.600   1.563 -0.1397  0.0939 -0.1107
27812W        W45336   2.031   5.167   3.677 -0.2472 -0.1882  0.0296
27813W        W45337   1.258  15.174  12.828  0.2182 -0.0421  0.0633
27814W        W45338   3.699   5.548  14.241  0.0921 -0.1846  0.2023
27815W        W45339   6.395  10.206   1.722  0.1566 -0.1271 -0.0971
27816W        W45340   0.899   8.809  16.603  0.1024 -0.0576  0.2234
27817W        W45341  10.312   9.860   5.190 -0.1680 -0.1996 -0.2296
27818W        W45342  14.822   6.939  12.486 -0.2428 -0.4089 -0.1471
27819W        W45343   3.972  10.809   2.557  0.2067 -0.1973 -0.0324
27820W        W45344   2.553  10.342   3.367 -0.1287  0.1494 -0.0367
27821W        W45345   5.692  14.571   4.931 -0.2569  0.0474 -0.3409
27822W        W45346   7.678   0.709   2.239 -0.1785  0.3062 -0.1631
27823W        W45347  14.681   3.069  15.242  0.2650 -0.2863 -0.4428
27824W        W45348  12.842  13.490   1.506  0.1332 -0.3462  0.0308
27825W        W45349   8.542  15.316   4.733 -0.0653  0.1158  0.0623
27826W        W45350   8.385   4.152   1.368 -0.1548 -0.0618  0.2487
27827W        W45351  12.525  16.937   0.986  0.0919  0.0495 -0.0041
27828W        W45352   7.500  13.242  12.249  0.2085 -0.2525 -0.0859
27829W        W45353   9.953  10.490   4.711  0.1167 -0.2591  0.2684
27830W        W45354   4.990  14.898   3.954 -0.0598 -0.1541  0.0822
27831W        W45355  16.158  13.800   5.454  0.0890  0.2102  0.1455
27832W        W45356   4.185   4.637  13.330  0.0018 -0.2526  0.0661
27833W        W45357  10.410  14.100   0.813  0.1391 -0.1512  0.1849
27834W        W45358  16.916   5.460  12.909  0.0314 -0.1006  0.1309
27835W        W45359  11.296  16.236   0.313  0.3136 -0.1868 -0.5511
27836W        W45360  14.317  11.152   0.532  0.0047  0.0179 -0.2100
27837W        W45361  10.809  11.321  14.121  0.0448  0.2102  0.1281
27838W        W45362  16.628   1.162  15.850 -0.0506 -0.4669 -0.1132
27839W        W45363  16.587   1.033   5.394 -0.1756  0.0651  0.1277
27840W        W45364  14.566  15.688   0.956  0.1626  0.1034 -0.0155
27841W        W45365   0.938  11.694  16.112  0.1723 -0.3856 -0.0678
27842W        W45366   5.473  13.445  13.174 -0.0840 -0.2154 -0.0523
27843W        W45367   0.335   2.276  13.543  0.1737 -0.0547  0.0509
27844W        W45368  16.091  12.729  15.950  0.2804 -0.1104 -0.1131
27845W        W45369  16.961   6.230  14.397  0.0462 -0.1718 -0.0246
27846W        W45370  14.264   9.317   2.817  0.1232 -0.1484  0.2150
27847W        W45371   0.229  15.082   4.447 -0.1516  0.2862  0.3156
27848W        W45372   4.026   7.023  16.457  0.2191  0.4741 -0.0047
27849W        W45373  15.849   5.897  15.823 -0.1837 -0.2796 -0.0054
27850W        W45374   9.486   4.733   4.967 -0.3316 -0.3069  0.3915
27851W        W45375  12.748  13.473   4.579 -0.1250  0.2473  0.3199
27852W        W45376  16.671   2.044   1.546  0.4321  0.1176 -0.0341
27853W        W45377   0.587   9.164  16.868  0.0531 -0.2365 -0.0694
27854W        W45378   1.235   2.751  16.514 -0.1375  0.1525  0.3024
27855W        W45379   4.753  15.592   1.635 -0.0512 -0.0132 -0.0970
27856W        W45380  10.517  16.097   4.081 -0.0346 -0.2786 -0.2889
27857W        W45381   0.425   4.948   1.216 -0.0557 -0.1448 -0.0087
27858W        W45382  13.166   1.776   1.180  0.0409 -0.0336 -0.2454
27859W        W45383  11.434   7.663  12.973  0.1316  0.3705 -0.1269
27860W        W45384   0.755   7.281   2.476  0.1366 -0.1392 -0.0469
27861W        W45385   0.087  10.438  13.112  0.2400  0.3470  0.0839
27862W        W45386  11.895  10.237  13.808  0.0203 -0.1374 -0.0486
27863W        W45387  16.660   1.272   4.730 -0.0736  0.2522 -0.4365
27864W        W45388  12.315  16.372   2.240  0.2723  0.1928  0.0320
27865W        W45389   8.617  14.136  17.119 -0.1174  0.1718  0.2465
27866W        W45390   2.121  14.644   3.533 -0.0638  0.1757  0.2595
27867W        W45391  13.283   8.639   4.439  0.0639  0.0842 -0.1915
27868W        W45392  15.563  10.618   1.706  0.0648  0.1012 -0.1384
27869W        W45393   7.086  14.192   0.433  0.2880  0.0910  0.0881
27870W        W45394  16.383  12.869   5.104 -0.0806 -0.1237  0.0711
27871W        W45395  16.907   7.975   5.619 -0.2420  0.3200  0.0292
27872W        W45396   8.720   1.820   0.525 -0.1516 -0.0064  0.1312
27873W        W45397   9.915   0.565  13.420 -0.0976 -0.1192 -0.0196
27874W        W45398  12.547   1.713  14.829  0.1062  0.0453 -0.0583
27875W        W45399   8.201   7.362   2.831  0.0840 -0.2753 -0.0140
27876W        W45400   5.628  15.113  16.166 -0.0616 -0.0513 -0.0680
27877W        W45401   7.189   8.089  13.348 -0.3291 -0.3930  0.1484
27878W        W45402  16.008  16.594   5.358  0.0434  0.1966 -0.0568
27879W        W45403  11.283   8.562   1.200  0.0380  0.0445  0.2502
27880W        W45404   7.466  12.755  12.531 -0.0675  0.2229 -0.0589
27881W        W45405  14.143  15.357   0.847 -0.2905 -0.0057 -0.4593
27882W        W45406  16.052  15.048  13.256  0.2503  0.0096  0.1778
27883W        W45407  11.492   4.720   2.908  0.0577 -0.0249 -0.1115
27884W        W45408  17.033   9.979   4.696  0.3911 -0.0134 -0.0621
27885W        W45409   8.280  14.542   1.895 -0.1661  0.1924 -0.1613
27886W        W45410   4.256   4.862   0.357  0.0671 -0.0853 -0.0999
27887W        W45411  10.981  15.731   2.997 -0.1318  0.0709 -0.0199
27888W        W45412   9.752   6.208  17.607 -0.3019 -0.0792 -0.0853
27889W        W45413   0.995  12.549  15.683  0.1357  0.0788 -0.1936
27890W        W45414  15.609  11.813  15.188  0.2910 -0.0268  0.4215
27891W        W45415  12.331  15.728   4.571  0.2319  0.0011 -0.0626
27892W        W45416   4.491  11.205   2.892 -0.1717  0.0931 -0.2344
27893W        W45417  12.734   8.215  16.654  0.1285  0.3287  0.1762
27894W        W45418  10.861  16.215   0.610 -0.0637  0.1420 -0.0487
27895W        W45419   8.602   4.390   0.976 -0.1302  0.0463  0.1689
27896W        W45420  17.020  14.431  15.087  0.0595  0.0661  0.1074
27897W        W45421   9.215  12.309  12.245 -0.3239  0.1697  0.0859
27898W        W45422  10.392  11.783   5.014  0.2579  0.3021  0.3387
27899W        W45423   0.257   1.486   3.680 -0.0465 -0.1199 -0.1563
27900W        W45424   6.648  13.312  17.045 -0.1774  0.1377  0.1616
27901W        W45425  13.079  11.787  15.014 -0.0087  0.3135 -0.0876
27902W        W45426   8.278   5.534   4.516 -0.0258  0.1068 -0.1609
27903W        W45427   1.361  13.453   1.873 -0.3238 -0.0930  0.0079
27904W        W45428   6.077   6.852   4.424 -0.0255 -0.0892  0.1391
27905W        W45429   8.289   1.027   0.111  0.0830 -0.2917 -0.2096
27906W        W45430   9.456  11.256   1.748 -0.0874 -0.4052  0.4661
27907W        W45431   3.904  16.865  13.472  0.1361 -0.2428 -0.0091
27908W        W45432   0.266  13.317  12.688  0.2085 -0.1568  0.0406
27909W        W45433   1.619  11.401   5.259  0.1291  0.4485  0.3056
27910W        W45434  12.011   6.977   5.462  0.1216 -0.0548 -0.1277
27911W        W45435   6.555   5.290   0.398  0.0619 -0.1221  0.1468
27912W        W45436   3.755   4.816   0.703 -0.0269 -0.2466  0.0112
27913W        W45437  16.574   5.932  13.014  0.1370 -0.5055 -0.2051
27914W        W45438  16.308  11.982   2.416  0.0997  0.2376  0.0736
27915W        W45439   6.552   0.359  17.584 -0.0182 -0.1952  0.0731
27916W        W45440  13.751   4.799   2.923  0.0766  0.1938 -0.2043
27917W        W45441   6.659   5.562  15.004 -0.1743 -0.2188  0.0704
27918W        W45442  15.058  15.946  13.501  0.1600 -0.0538 -0.1773
27919W        W45443  11.051   3.214  13.215  0.0367  0.0744  0.0476
27920W        W45444   8.374   6.907  13.418  0.3145  0.2752 -0.0403
27921W        W45445   1.074   6.574  13.205 -0.0493  0.2272 -0.1669
27922W        W45446   9.375   5.847  17.547  0.0102  0.0876 -0.0625
27923W        W45447   5.899   4.827   5.363 -0.0205  0.0695  0.4242
27924W        W45448   4.720   6.581   3.162 -0.0106  0.1218 -0.1127
27925W        W45449   9.952   6.296   1.146 -0.0870  0.1167 -0.1096
27926W        W45450  10.413  12.803   0.104  0.1092 -0.4832 -0.0330
27927W        W45451  17.035   7.628  14.456  0.1176  0.0104  0.1402
27928W        W45452   6.047   1.758   0.083  0.0460  0.0619  0.0704
27929W        W45453   0.233  11.962   4.419  0.3545 -0.1972 -0.1804
27930W        W45454  12.956  15.355   5.103  0.1542  0.1463  0.0032
27931W        W45455   7.762   7.548  13.539  0.0265  0.0064  0.2426
27932W        W45456  10.350   5.005   4.289  0.1104 -0.1982  0.0804
27933W        W45457  15.410  10.813   5.692  0.3167  0.1353  0.0745
27934W        W45458  13.778  13.351  13.741 -0.1310 -0.0312  0.0612
27935W        W45459  14.571   7.306   0.901 -0.3598  0.0181 -0.1058
27936W        W45460  10.025  10.178  12.180  0.0263 -0.1163 -0.0886
27937W        W45461   7.351   1.039   1.138 -0.0037  0.1850  0.0415
27938W        W45462   4.481  11.070  16.893 -0.1493 -0.1751 -0.0454
27939W        W45463   3.066   0.155   5.576  0.0656 -0.2304  0.1916
27940W        W45464   2.626  15.487  16.635 -0.1892 -0.1667 -0.0726
27941W        W45465   0.677  10.864  16.135  0.0718 -0.1693  0.0530
27942W        W45466  13.129   2.962  14.627 -0.4028 -0.1085  0.1854
27943W        W45467   4.471  16.100   4.394 -0.2727  0.1330  0.1495
27944W        W45468   3.416  14.407  14.909 -0.2985  0.2428  0.1107
27945W        W45469   4.332   4.957  16.027  0.0344 -0.0560 -0.0610
27946W        W45470  12.005   0.392   5.896  0.0344  0.0669  0.1497
27947W        W45471   1.116   6.995  13.561  0.0743  0.3528 -0.1973
27948W        W45472   3.429  10.787   3.857  0.2748  0.2162  0.2137
27949W        W45473  10.860   5.999  16.485  0.1254 -0.1185  0.3416
27950W        W45474   1.562   4.585   2.944  0.2340  0.1122  0.0987
27951W        W45475  10.749   2.528   5.451  0.0265  0.0093 -0.0373
27952W        W45476  13.150   4.546   4.226 -0.1048 -0.0626 -0.0029
27953W        W45477  11.306   5.302  15.617 -0.2154  0.0036  0.1130
27954W        W45478  15.693   4.234   1.915  0.1964 -0.0655  0.0616
27955W        W45479   5.024  10.688   5.570 -0.1244 -0.3711 -0.0317
27956W        W45480   7.923   3.522  17.441  0.0382  0.1428  0.1810
27957W        W45481   4.040  15.810   3.886  0.0766  0.2404  0.0898
27958W        W45482   2.425   0.605   0.664 -0.2436 -0.3452 -0.3385
27959W        W45483   3.389   3.267   0.210  0.0258  0.3550  0.2366
27960W        W45484   3.602   9.152  16.887 -0.1140  0.0315  0.1960
27961W        W45485  10.095   9.006  13.092  0.1259 -0.2726 -0.1493
27962W        W45486  11.358  15.624  15.581 -0.1686 -0.0725 -0.5457
27963W        W45487  10.599  11.310   4.836 -0.2481  0.1926 -0.2927
27964W        W45488  14.588   8.423   4.519 -0.0681  0.0016  0.0558
27965W        W45489   0.084   8.067  14.424 -0.4005 -0.0421 -0.1332
27966W        W45490   8.403  12.531   2.340  0.4580  0.0830 -0.1554
27967W        W45491   4.244   2.878  16.422 -0.1143 -0.0909 -0.0322
27968W        W45492   3.752   0.604   0.546  0.0808 -0.0065  0.1448
27969W        W45493   2.170  11.614  15.014 -0.0021  0.3094  0.0062
27970W        W45494   9.447   5.408   3.226  0.1739 -0.0011 -0.2261
27971W        W45495   7.708   8.606   2.915 -0.1340  0.5294 -0.3133
27972W        W45496  14.184  14.366   1.765 -0.0991 -0.2007 -0.3057
27973W        W45497   3.259   1.723  14.864 -0.1855 -0.0101  0.1885
27974W        W45498  17.103   8.800   3.117 -0.1361 -0.0298  0.1828
27975W        W45499  16.941   1.504   3.415  0.3686 -0.1275  0.1551
27976W        W45500  13.374   1.519  13.791 -0.0207 -0.1318 -0.0732
27977W        W45501   5.709   7.602   0.896  0.1435 -0.0551 -0.0154
27978W        W45502   6.296   6.866  11.815 -0.1377  0.2928 -0.0368
27979W        W45503  10.562  14.444  14.892 -0.2386  0.0857  0.1031
27980W        W45504   6.292  11.169  16.846 -0.1755 -0.3745  0.0881
27981W        W45505   9.070   9.794  17.601  0.1592  0.1157  0.1840
27982W        W45506   4.090   4.193  17.653  0.0638 -0.1970 -0.3177
27983W        W45507  11.573   7.126   3.036  0.0257 -0.0543  0.0312
27984W        W45508   7.695   0.632   2.785 -0.0107  0.0808 -0.0052
27985W        W45509   5.025   2.451  15.939  0.1082  0.0316  0.0293
27986W        W45510   5.765  13.255  15.790  0.1763  0.0825 -0.1788
27987W        W45511  11.555  16.912   0.044  0.0844 -0.1941 -0.2078
27988W        W45512  14.520  15.074   4.047 -0.2091  0.2425 -0.1143
27989W        W45513  11.518  16.801   5.025  0.3143 -0.0587  0.0434
27990W        W45514   4.453   6.935   3.465 -0.0754 -0.1765 -0.3127
27991W        W45515  14.770   2.678  17.117 -0.2519 -0.1540 -0.2263
27992W        W45516   9.578  13.912  12.433 -0.0354 -0.0709 -0.0956
27993W        W45517  13.763   0.177   0.396 -0.6345 -0.0720  0.1265
27994W        W45518   4.271   3.241  15.174 -0.1904  0.1905 -0.0181
27995W        W45519   7.745   9.831  13.428 -0.0925 -0.0528 -0.0895
27996W        W45520   9.171   1.985   1.320 -0.2987  0.1508 -0.0506
27997W        W45521  16.348  10.042  14.278 -0.0098 -0.0413 -0.1753
27998W        W45522   8.779   6.534   5.531 -0.2545  0.0720  0.2035
27999W        W45523   6.071   2.166   4.894  0.3575 -0.2257 -0.1830
28000W        W45524   5.775   7.066  16.698 -0.0146 -0.0094 -0.3488
28001W        W45525   7.653  14.398  12.318  0.0685  0.0145  0.0022
28002W        W45526  12.062  14.272   1.963 -0.2693 -0.1639 -0.1528
28003W        W45527   0.293   4.348   2.125 -0.1909  0.0942 -0.2816
28004W        W45528   4.138   4.797   3.053 -0.2401 -0.0893 -0.3226
28005W        W45529   9.963   5.332   3.510 -0.2794  0.0610 -0.0940
28006W        W45530   4.224   2.068   5.343 -0.1904  0.0866  0.0791
28007W        W45531  10.741  15.065  17.275  0.2589  0.0098  0.0319
28008W        W45532  16.432   3.379  15.777  0.1978  0.0408 -0.0456
28009W        W45533   8.658   0.633  17.200 -0.0292  0.0562  0.1251
28010W        W45534  14.514  16.483  14.975 -0.1577 -0.0578 -0.1384
28011W        W45535  13.915   5.795   4.055 -0.1243 -0.3486  0.1726
28012W        W45536   5.664   0.271   1.503 -0.0933 -0.1313  0.2058
28013W        W45537  10.607  17.000  13.104  0.3348  0.0243  0.1326
28014W        W45538  10.863   7.486  17.050 -0.2140  0.0827  0.1993
28015W        W45539   4.729   6.691  16.989 -0.0984 -0.0113  0.1601
28016W        W45540   7.866  14.516  14.040  0.1268 -0.0136 -0.0125
28017W        W45541  15.708   5.891   3.579 -0.0276 -0.0443  0.0495
28018W        W45542  14.331   8.605  16.110 -0.1233  0.1362 -0.1171
28019W        W45543  13.206   7.778   2.750  0.1291 -0.1293  0.1072
28020W        W45544   7.792  11.722   5.535 -0.1508 -0.0664 -0.1798
28021W        W45545   4.591   3.026   2.625  0.2163 -0.0493 -0.1652
28022W        W45546   4.967  14.838   1.064 -0.0064 -0.0576  0.2643
28023W        W45547   7.202  15.777  17.629  0.0465 -0.1065  0.2169
28024W        W45548  14.447  10.768  14.485 -0.1888  0.2970  0.0118
28025W        W45549   0.026  12.643   2.226 -0.2340 -0.0689 -0.0348
28026W        W45550   7.079   8.827  16.665 -0.0921 -0.0542 -0.0725
28027W        W45551   6.193  13.658   4.656  0.1193  0.1675  0.2162
28028W        W45552   4.949  14.617  14.354  0.0274  0.3270 -0.0544
28029W        W45553  10.195   5.113  16.439 -0.2457 -0.0526 -0.0945
28030W        W45554  14.335   0.966  16.684 -0.0137  0.2833 -0.0115
28031W        W45555  10.649   3.633  13.482 -0.1356  0.2368  0.3318
28032W        W45556   7.271   5.385   0.688 -0.2641 -0.1573 -0.3526
28033W        W45557   0.292  12.836  16.456  0.2124  0.1042 -0.0720
28034W        W45558  14.476  12.148   3.888  0.3315 -0.1163  0.0785
28035W        W45559  16.230  11.209   3.004  0.4042 -0.1447  0.5681
28036W        W45560   5.522  10.391   3.262  0.1014 -0.0062 -0.0869
28037W        W45561   3.041  12.430   4.791 -0.1357  0.0243  0.1840
28038W        W45562  13.242  12.180   4.497 -0.2124  0.2703 -0.1093
28039W        W45563  14.136  13.067  13.066 -0.0017 -0.0946  0.1548
28040W        W45564  14.372  12.844   3.996  0.1510 -0.2469  0.1579
28041W        W45565   0.257   3.476   5.826 -0.2871  0.2716  0.0593
28042W        W45566  15.213  12.345   3.115  0.0539  0.1058 -0.0721
28043W        W45567   1.056   2.744  17.483 -0.1009  0.0724 -0.0897
28044W        W45568  16.151   4.943   1.515  0.0643  0.0744  0.0852
28045W        W45569   4.208   7.447  17.068  0.2050 -0.1489  0.0962
28046W        W45570   0.170  15.731  14.276  0.0184 -0.0816  0.3947
28047W        W45571  10.676   7.393   4.477 -0.0045  0.0343 -0.0593
28048W        W45572  14.181  11.346  17.269 -0.1274 -0.0195  0.0823
28049W        W45573   7.366   1.585   2.457 -0.0186 -0.1753 -0.1752
28050W        W45574   1.152   6.718   5.544  0.1977  0.0289  0.1097
28051W        W45575  16.652   9.944   2.419  0.3633  0.1084 -0.0256
28052W        W45576   6.890  15.493  14.821 -0.1117  0.0924 -0.2991
28053W        W45577  13.485   3.177  14.884 -0.1005  0.0632 -0.1026
28054W        W45578   5.559  15.122  15.549  0.0676  0.0416 -0.4986
28055W        W45579  13.148   4.277  16.836  0.1266  0.2667  0.3929
28056W        W45580  10.326   4.405   3.100 -0.1099  0.3315 -0.1015
28057W        W45581   7.865  11.018  14.776 -0.0853 -0.0252  0.1492
28058W        W45582   3.587  17.058   4.468  0.2797 -0.0298 -0.0677
28059W        W45583   0.951   7.125  17.604 -0.1969 -0.2510 -0.0502
28060W        W45584  17.116  10.701   2.452 -0.0609  0.2632  0.0296
28061W        W45585   1.885  16.079   1.275  0.3714 -0.5890  0.2046
28062W        W45586   8.796   6.012   2.749  0.0510  0.3642  0.0805
28063W        W45587  11.737   7.654   3.031  0.1872  0.1845  0.1371
28064W        W45588  16.099  14.924  15.251 -0.1811 -0.0691  0.0907
28065W        W45589   5.528   5.171   4.648  0.4561  0.0739 -0.1861
28066W        W45590   2.783   9.078   1.153  0.1243  0.0104  0.1276
28067W        W45591  15.385  15.218   4.286 -0.2108 -0.1558  0.2148
28068W        W45592  13.852  13.017  16.644 -0.2750 -0.0650 -0.3202
28069W        W45593   0.864   6.909   3.273  0.1138  0.1705 -0.2855
28070W        W45594   4.296  14.023  13.495 -0.1116 -0.2371  0.2904
28071W        W45595  16.359  16.807   2.018  0.0498  0.0916  0.0498
28072W        W45596   3.852  12.971   0.075  0.0353 -0.1367  0.0928
28073W        W45597  12.752   0.832  12.724 -0.1758  0.2075  0.1939
28074W        W45598   7.651   7.273  11.673 -0.0190 -0.0227  0.0163
28075W        W45599  16.406   4.515  13.813  0.0751 -0.1535 -0.0128
28076W        W45600   3.913  12.126   3.295 -0.2706  0.1799 -0.0852
28077W        W45601  12.639  11.934   1.836 -0.0805 -0.0758  0.3408
28078W        W45602   3.101   1.800  12.520  0.0233  0.0134 -0.0688
28079W        W45603  15.565  15.788   4.223  0.2333 -0.0501  0.1840
28080W        W45604   4.979   8.731   5.237 -0.2230  0.1746  0.2129
28081W        W45605   1.369  10.000  15.398 -0.0753 -0.1404 -0.0491
28082W        W45606   2.161  10.337   1.884 -0.1364  0.3840  0.1540
28083W        W45607  16.955   9.129   4.620  0.2210 -0.2331 -0.1834
28084W        W45608   4.146   9.730  16.708 -0.0732  0.1931 -0.0360
28085W        W45609  12.818   7.481  15.100  0.2816  0.1992  0.1337
28086W        W45610   1.072  10.132   1.668 -0.0383 -0.0660 -0.0354
28087W        W45611   2.406  14.792   3.094  0.0535 -0.1404  0.2897
28088W        W45612  10.778  13.303   1.402  0.1408  0.0771 -0.4253
28089W        W45613  16.077   9.669  15.490  0.2032  0.4484  0.0943
28090W        W45614   1.639  10.698  12.092  0.2051  0.0641  0.0263
28091W        W45615  14.889   5.627  15.780  0.1644 -0.1254 -0.5052
28092W        W45616   0.404   3.756   0.084  0.3720  0.2234  0.1541
28093W        W45617   1.652   6.250   3.698 -0.0914  0.0174 -0.2901
28094W        W45618   4.000   0.369  14.536  0.1083 -0.1618 -0.2178
28095W        W45619   5.645   0.944   0.697  0.0477  0.2309  0.0418
28096W        W45620  15.715   1.070  16.931  0.1112 -0.0948  0.1717
28097W        W45621  14.901  11.182  13.089 -0.0517 -0.0065  0.0227
28098W        W45622   4.866   2.655  14.969  0.0718  0.1713  0.2277
28099W        W45623   2.012   0.559   4.330 -0.0762 -0.0403  0.1438
28100W        W45624   8.409   1.201  13.397  0.0945  0.1300 -0.2727
28101W        W45625  14.843  15.392   1.329  0.0972  0.1722  0.2600
28102W        W45626   6.011   5.819  15.548 -0.1087  0.0894 -0.1471
28103W        W45627   3.034  14.421   5.125 -0.1621 -0.1745  0.1016
28104W        W45628   9.751  14.224   4.098  0.2666  0.1255 -0.0479
28105W        W45629   8.667   1.000  16.860 -0.2972 -0.0993 -0.4075
28106W        W45630   4.780  12.296   4.047 -0.1357 -0.1485 -0.0898
28107W        W45631  11.426  11.165  16.011  0.1089  0.0585 -0.1289
28108W        W45632   9.472  10.573   4.072 -0.3567  0.0172 -0.1900
28109W        W45633   0.984   7.857  15.434  0.0506  0.0525  0.2210
28110W        W45634  11.769   2.725   2.397  0.0174  0.0719  0.1214
28111W        W45635   5.072   1.569   3.994 -0.6245  0.1478 -0.0995
28112W        W45636  14.618  16.139   2.621 -0.0507 -0.0868  0.1024
28113W        W45637  14.020   3.899   3.670 -0.0298  0.2288 -0.0613
28114W        W45638   3.998   8.820   1.621 -0.0068  0.1880  0.1630
28115W        W45639   4.923  14.470  15.808  0.0558  0.0207  0.1256
28116W        W45640   8.000  10.595   0.238 -0.2315  0.0381  0.0174
28117W        W45641  11.583   9.843  15.268  0.1655 -0.0401  0.1965
28118W        W45642   5.099   1.141   5.345  0.0151  0.0961 -0.0182
28119W        W45643   0.461  11.173   2.819  0.2823 -0.1909 -0.2908
28120W        W45644   5.848  11.988  15.136 -0.2177 -0.0566  0.2518
28121W        W45645  10.647   4.807   2.453  0.1791  0.1590  0.1372
28122W        W45646  13.717  11.316   4.794  0.0088 -0.1209 -0.1466
28123W        W45647   0.193   1.644   2.530  0.0567  0.0443  0.1241
28124W        W45648   6.282   5.158   5.348  0.0276  0.3207  0.0875
28125W        W45649   4.856   5.075   3.346 -0.0953  0.1082  0.1428
28126W        W45650  16.912  14.660  13.045 -0.2519  0.3896  0.0734
28127W        W45651   9.511   3.514  15.393 -0.0682 -0.0177  0.0146
28128W        W45652   9.123  13.373  14.520 -0.0472  0.1581  0.1557
28129W        W45653  13.448  15.339   4.983 -0.0172  0.3017 -0.2229
28130W        W45654   9.172  11.717  14.898 -0.2725  0.0092  0.0608
28131W        W45655   6.983   2.222   1.086 -0.0452  0.2820 -0.1068
28132W        W45656  14.279  17.045   1.518 -0.1549 -0.0196 -0.0996
28133W        W45657   6.011   2.408  16.909 -0.2298  0.1416 -0.0369
28134W        W45658   4.035   4.041   5.821 -0.2591 -0.0439  0.2970
28135W        W45659   6.612  14.466  13.497 -0.1475 -0.3188 -0.0180
28136W        W45660  10.257  12.680   1.822  0.1686 -0.2427  0.0953
28137W        W45661  13.967  14.862  15.339 -0.0373  0.0634  0.0968
28138W        W45662  10.287   2.509   2.492 -0.0462 -0.0001 -0.0533
28139W        W45663   8.793   5.614   5.178  0.3603  0.3462  0.3429
28140W        W45664  10.945   3.124  11.767 -0.1875 -0.1271 -0.1009
28141W        W45665  13.476   7.365   1.398 -0.0994 -0.2486 -0.0780
28142W        W45666   3.881  12.691  14.719  0.3900  0.3169  0.0967
28143W        W45667   3.535   2.051  14.316  0.3162 -0.1402  0.0684
28144W        W45668  11.636  11.297  12.909  0.2776 -0.2252 -0.0020
28145W        W45669   7.423   6.540   4.077 -0.1078 -0.2017  0.1611
28146W        W45670   0.356  10.581   4.946 -0.1083 -0.1543  0.1122
28147W        W45671  10.854  14.925   3.533 -0.2076 -0.3256 -0.1684
28148W        W45672  11.309   3.207   4.798 -0.1186  0.0002 -0.3715
28149W        W45673   0.110   4.508   6.732  0.0810 -0.2785 -0.2160
28150W        W45674  10.295  14.035   3.423  0.1570  0.1166 -0.1890
28151W        W45675  12.923  16.626  14.964 -0.0483  0.1791  0.0187
28152W        W45676   7.566   5.703   1.538  0.0227 -0.2243  0.2236
28153W        W45677   7.929  10.763   1.829 -0.0737 -0.0394  0.3348
28154W        W45678   7.876   5.701  14.780  0.0548 -0.0531  0.0063
28155W        W45679   1.816  10.762   1.846  0.2297  0.0764  0.0721
28156W        W45680   5.850  16.989   1.354  0.2362 -0.1039 -0.0749
28157W        W45681   5.714   0.108   4.956  0.0907  0.1029  0.1475
28158W        W45682   1.057   6.068  14.544 -0.0209  0.1062 -0.1875
28159W        W45683  13.279  13.917  12.068 -0.1691  0.0728  0.0475
28160W        W45684   5.175   7.021  12.822 -0.0191  0.0928  0.2336
28161W        W45685  16.773  14.797  14.866  0.2738 -0.2655 -0.0835
28162W        W45686   5.503   9.503   0.986  0.1362 -0.3470  0.0355
28163W        W45687  10.546   4.341  12.566  0.3588  0.2332  0.1342
28164W        W45688   8.098  13.641  12.820  0.2255 -0.0754 -0.0688
28165W        W45689  16.857   5.681   0.352  0.1646  0.1419  0.1986
28166W        W45690   5.858  12.387   3.044 -0.3928 -0.2313 -0.0872
28167W        W45691  16.052   5.433   1.547  0.0082 -0.0052 -0.1010
28168W        W45692   7.252  13.660   0.064  0.2305  0.1344 -0.1336
28169W        W45693   2.552  10.816  16.185  0.0825 -0.2285  0.2642
28170W        W45694   3.389   7.159  15.780 -0.0660  0.1975 -0.1661
28171W        W45695  10.046   5.797  12.615 -0.0577 -0.0854  0.0744
28172W        W45696   4.390   3.590   5.101 -0.0842  0.1944  0.0303
28173W        W45697   9.075   0.966  14.940  0.0488  0.2049  0.0328
28174W        W45698  16.819   7.139  16.957 -0.1218 -0.1093 -0.0019
28175W        W45699   4.460   1.776  12.382 -0.0670 -0.0873  0.2118
28176W        W45700   0.696  11.408  12.595  0.1371  0.0841  0.3541
28177W        W45701   3.257  15.184  17.231 -0.2567  0.1154 -0.3613
28178W        W45702  12.782   0.489  13.153  0.2775  0.2120  0.1889
28179W        W45703   4.759  11.110  15.224 -0.0872 -0.2499 -0.1290
28180W        W45704  14.485  12.203   0.545 -0.0669  0.0920 -0.1269
28181W        W45705   2.393   7.446   0.201 -0.0155  0.0898 -0.4317
28182W        W45706   4.043   8.570  14.346  0.0989 -0.3030 -0.0173
28183W        W45707   9.372   0.058  17.433  0.0374 -0.1780 -0.1021
28184W        W45708  14.120   1.406   5.527  0.1408  0.2391 -0.2531
28185W        W45709   9.275   4.778  12.930  0.0485  0.0681  0.0729
28186W        W45710   5.403   0.667   3.047 -0.3685 -0.2343  0.3587
28187W        W45711   2.261   2.841  17.457  0.2797 -0.2760  0.0897
28188W        W45712  10.650   9.890  15.809 -0.1475 -0.0017  0.2380
28189W        W45713   8.589  12.319  14.660 -0.1525  0.1661 -0.0260
28190W        W45714   6.139  13.369   1.879 -0.0061 -0.2718  0.0416
28191W        W45715   1.153  16.825  16.732  0.0209  0.0650  0.0480
28192W        W45716  12.572   6.273  17.408  0.3371  0.1308 -0.0622
28193W        W45717  15.655   7.109   3.837  0.0824 -0.0637  0.0437
28194W        W45718   5.206  10.470  16.513 -0.0074  0.0758 -0.1012
28195W        W45719   5.658   5.080   3.186  0.0287 -0.0327 -0.0779
28196W        W45720  17.015   9.212  12.815 -0.2003 -0.1983  0.1479
28197W        W45721   1.067   9.261  11.506  0.0054 -0.1271  0.1707
28198W        W45722   6.292  16.847   4.311 -0.0232 -0.1090  0.2191
28199W        W45723   1.783   9.816   1.850  0.2170  0.1046  0.2325
28200W        W45724  10.752  10.327   3.062 -0.1526  0.2144  0.1285
28201W        W45725  15.681   3.886  13.541  0.0176 -0.2449  0.0399
28202W        W45726  14.716   4.298  12.494 -0.0003 -0.3924 -0.0178
28203W        W45727   8.221  10.011   2.704 -0.2320  0.1287 -0.2408
28204W        W45728   5.049  15.048  13.383  0.1705  0.1771  0.5407
28205W        W45729  15.354   4.153   3.034  0.1327 -0.1047 -0.0134
28206W        W45730   9.495  12.144   4.039  0.1907  0.2089 -0.0863
28207W        W45731   7.995  10.239  13.648 -0.0057 -0.3445  0.1739
28208W        W45732  16.744   0.590  15.020  0.0007  0.0944  0.1861
28209W        W45733   9.491   3.595   1.321 -0.0861  0.3931  0.0745
28210W        W45734   8.138   9.177   2.239  0.2469 -0.2004  0.0332
28211W        W45735   7.319   4.407   3.102  0.1429 -0.0488  0.0233
28212W        W45736   7.474  16.248   5.197  0.1705 -0.0354 -0.2181
28213W        W45737   4.267   1.109   0.507 -0.0158 -0.3434  0.0221
28214W        W45738  12.160   4.045   4.651 -0.0880 -0.3890 -0.4081
28215W        W45739   2.991  13.129  15.029  0.0887 -0.1441 -0.1204
28216W        W45740   8.944   2.972   2.420  0.0973  0.0248  0.0353
28217W        W45741  16.223   3.480   2.074  0.0408  0.3081  0.0874
28218W        W45742   4.316   2.311   4.847 -0.0258 -0.0745 -0.0829
28219W        W45743  15.095  17.147   3.733 -0.1450 -0.2540 -0.2795
28220W        W45744   0.946   3.373  15.995 -0.1460 -0.0048 -0.1745
28221W        W45745  12.863   2.947   1.702 -0.0600  0.0429  0.2013
28222W        W45746   3.867  11.138  13.007  0.0085  0.0290  0.0814
28223W        W45747   8.559   6.889   0.061  0.0394 -0.2245  0.0936
28224W        W45748  14.175  11.035  14.810  0.0902  0.0324 -0.0409
28225W        W45749  11.010  10.421   4.641  0.0135 -0.0238 -0.3798
28226W        W45750   2.504  11.320  14.646 -0.3189 -0.2582 -0.2103
28227W        W45751   1.552   0.481   1.429 -0.0599  0.0342 -0.2032
28228W        W45752  13.964   3.896   4.690 -0.1081  0.0555 -0.1357
28229W        W45753  16.416  12.923   2.431  0.0270  0.0444 -0.2006
28230W        W45754  13.989   7.798   2.472 -0.0147 -0.3000 -0.2639
28231W        W45755   3.085  10.388   2.194  0.3548  0.1872  0.5362
28232W        W45756  10.991  14.712  14.254 -0.1534 -0.2233  0.2974
28233W        W45757  12.282  14.404  17.020 -0.4028 -0.0034  0.3327
28234W        W45758  16.971   1.823  17.011 -0.4340 -0.0069 -0.0571
28235W        W45759  11.016   6.302   3.855 -0.0068 -0.1503  0.2188
28236W        W45760   3.500   1.557  13.466 -0.2682 -0.1156  0.3649
28237W        W45761   4.041  16.864   0.181  0.0316 -0.1318 -0.4243
28238W        W45762  14.573   9.592  16.657  0.0859 -0.1350 -0.0934
28239W        W45763  14.106   1.145  14.628 -0.1155  0.2610  0.0521
28240W        W45764   9.468   1.500   0.202  0.0440 -0.1561 -0.2067
28241W        W45765   2.353   8.875  17.351  0.0525 -0.1565  0.1313
28242W        W45766  16.668  11.629   1.074  0.0902  0.0102  0.0541
28243W        W45767   3.136   4.233   0.770 -0.2111  0.0067 -0.2442
28244W        W45768  13.086   2.226   3.113  0.0236 -0.0262 -0.1031
28245W        W45769   1.403  12.079  14.492 -0.2617  0.1795 -0.2070
28246W        W45770   6.995   4.478  12.388 -0.0636  0.0169 -0.0871
28247W        W45771  13.033   9.168   0.784 -0.0565 -0.1334 -0.0337
28248W        W45772  16.624   4.081   4.389 -0.1719  0.1502  0.2807
28249W        W45773   2.860  10.783   4.815 -0.1449  0.3055 -0.0561
28250W        W45774  16.095   0.958  17.287 -0.0134  0.2047 -0.1544
28251W        W45775   0.620   7.611   5.586 -0.0534 -0.2393  0.2275
28252W        W45776   4.313   9.024   3.117  0.1891 -0.2678 -0.0134
28253W        W45777   9.771   3.141  13.733  0.2616 -0.1039 -0.2689
28254W        W45778  14.815  11.879   2.239 -0.1086 -0.1884 -0.3019
28255W        W45779   0.714   0.296   5.130 -0.0502 -0.3130 -0.2593
28256W        W45780   8.635  13.362  15.431  0.2893  0.1357  0.3520
28257W        W45781   1.229   8.490  16.821  0.0587 -0.3016  0.4258
28258W        W45782   0.306   8.622   0.091 -0.3789 -0.2164 -0.4089
28259W        W45783  15.520  11.255   2.526  0.2214 -0.1555  0.0466
28260W        W45784  14.119   8.742  14.787 -0.3174 -0.1030 -0.1385
28261W        W45785   1.819  15.607  17.053 -0.0018 -0.0514  0.2596
28262W        W45786   9.075   9.684  12.713  0.1349 -0.2941 -0.1387
28263W        W45787   2.777   3.703   2.732 -0.0421 -0.0264  0.1326
28264W        W45788   5.218   8.624   0.923 -0.0235 -0.0668  0.0198
28265W        W45789   5.985   8.087   0.563  0.0573  0.1122 -0.1339
28266W        W45790  16.335   8.145  16.919 -0.0527 -0.2654 -0.1346
28267W        W45791  11.895  14.949  12.512 -0.0641  0.2262 -0.1162
28268W        W45792   7.978  12.453   2.671  0.0433  0.0002 -0.0673
28269W        W45793  10.491  14.431   1.879 -0.0165  0.0275  0.1802
28270W        W45794   3.771  14.022  14.250 -0.0953  0.0186 -0.0804
28271W        W45795  10.338  10.132   4.002 -0.0668  0.1669 -0.2923
28272W        W45796   9.487   1.970   0.360 -0.0652  0.2530 -0.2151
28273W        W45797  14.194   3.794  12.437 -0.1271  0.1141  0.0920
28274W        W45798   2.512   2.905   0.617  0.1456 -0.1388  0.0159
28275W        W45799   9.668  13.102   3.084 -0.0047  0.0453  0.3336
28276W        W45800  13.719   6.118  15.419  0.1725  0.0955 -0.0331
28277W        W45801   1.794   8.249   4.361  0.2094 -0.0974 -0.1055
28278W        W45802   8.987   4.671  13.324 -0.1292 -0.4096 -0.4484
28279W        W45803   9.922   3.166  12.401  0.4937  0.1310  0.0559
28280W        W45804  14.844  12.996   4.941  0.0108  0.2944 -0.0296
28281W        W45805   1.282   4.978   0.863  0.1056  0.2640  0.0183
28282W        W45806   3.761  16.792   1.145 -0.4042  0.0673  0.1918
28283W        W45807  13.347   0.790  15.122  0.0205  0.2450  0.0790
28284W        W45808   6.346  14.561  16.015 -0.1220 -0.1937 -0.0844
28285W        W45809   7.808   7.729  15.540 -0.3987  0.0212  0.0668
28286W        W45810   9.344   0.632  12.937  0.1345 -0.0937  0.0585
28287W        W45811   9.839  10.906   4.394 -0.1876  0.2318  0.0048
28288W        W45812   2.399   2.148  14.511 -0.0339 -0.1381  0.1321
28289W        W45813  11.354  15.381  14.414  0.1598 -0.0356 -0.0596
28290W        W45814   1.133   4.309  17.490 -0.0169  0.3669  0.2959
28291W        W45815  15.076   8.180   4.599  0.0744  0.0743  0.0638
28292W        W45816   0.734   7.801   1.632  0.2093  0.0199 -0.1163
28293W        W45817  13.345  11.150  12.140  0.3338 -0.1225  0.0818
28294W        W45818  11.313   4.500  17.120  0.0451 -0.3716  0.0324
28295W        W45819  16.091  11.751  16.886  0.1290  0.1018 -0.1067
28296W        W45820  16.702  14.516  17.575  0.0873 -0.2190  0.0708
28297W        W45821  10.765  17.064  11.983 -0.1314  0.1361 -0.1699
28298W        W45822   0.781  12.323   2.140 -0.0441  0.2957  0.0135
28299W        W45823   0.748   2.618   3.565  0.0786 -0.0155  0.1077
28300W        W45824  16.177   0.507   5.758 -0.2429  0.2321  0.4526
28301W        W45825   3.499  11.623   4.272  0.1765  0.1131 -0.1020
28302W        W45826   0.767   7.793  14.921  0.0039 -0.2611  0.0058
28303W        W45827   6.688   7.694   2.950  0.0881 -0.0772  0.1015
28304W        W45828   0.546   7.003  16.673 -0.2405 -0.2290  0.0834
28305W        W45829  11.490   8.856  17.030  0.1543 -0.0826 -0.1221
28306W        W45830   9.495  13.853  16.277  0.1108 -0.0974 -0.0890
28307W        W45831   1.873   0.099   2.236 -0.1764 -0.2295  0.0269
28308W        W45832   1.042   4.891   6.504 -0.1036  0.0484  0.0374
28309W        W45833  15.711   3.715   3.256  0.1429 -0.0505 -0.1272
28310W        W45834   0.614   7.082  13.685 -0.1138 -0.1792  0.0275
28311W        W45835  16.189   8.797   2.564 -0.2169  0.1004  0.0579
28312W        W45836   1.938   2.777  12.777 -0.0582  0.0119  0.0254
28313W        W45837  16.024   5.311   2.141 -0.0319  0.0198  0.1257
28314W        W45838  15.319  15.643  15.174  0.1566 -0.1539 -0.0547
28315W        W45839   4.613   8.654   3.969 -0.0616  0.1014  0.1742
28316W        W45840   0.346   2.733   3.942 -0.2601  0.0191  0.2988
28317W        W45841   4.820  11.812  15.034  0.0259 -0.0608 -0.0179
28318W        W45842   3.540   6.659   4.970  0.1292  0.3826  0.2047
28319W        W45843   7.474   7.954  17.511 -0.3297 -0.1895 -0.1364
28320W        W45844   7.285  13.649  14.007  0.2199  0.2113  0.0633
28321W        W45845  10.933   0.005  12.500  0.0203  0.0922  0.0253
28322W        W45846   6.437   9.692   1.840  0.4288 -0.3891 -0.0922
28323W        W45847   5.267   5.258   0.773 -0.0832 -0.0829  0.0701
28324W        W45848  15.856  16.570  17.659  0.3377 -0.0648 -0.0613
28325W        W45849  15.346   5.522   0.057 -0.1793 -0.0204  0.0372
28326W        W45850   0.472  16.417   5.124  0.2360 -0.0287 -0.0281
28327W        W45851  15.536  10.366   1.009 -0.0413  0.0329 -0.1233
28328W        W45852   5.253   4.045  15.426 -0.0634 -0.0161  0.0201
28329W        W45853   1.226   9.416   0.230 -0.1936  0.0977  0.5230
28330W        W45854   6.550   5.038  14.705 -0.1204  0.3409 -0.1014
28331W        W45855  11.044  14.595   4.480  0.2784  0.0448  0.0002
28332W        W45856  13.158   3.792  14.159 -0.1096 -0.0974  0.2530
28333W        W45857   5.785   2.717  17.312  0.0656  0.1163 -0.1850
28334W        W45858  13.976   5.378   1.391 -0.0977 -0.2714 -0.1160
28335W        W45859   4.659   4.588   2.627 -0.0401  0.2120 -0.0801
28336W        W45860   6.369   6.422   2.798 -0.0548  0.1087 -0.2073
28337W        W45861   2.355   0.739   5.144 -0.2791 -0.1658  0.1325
28338W        W45862   6.851   1.226  17.619 -0.2662 -0.0440 -0.3467
28339W        W45863   0.490  14.573   0.513  0.1689 -0.4570  0.0454
28340W        W45864   0.863  16.828  15.700  0.0099  0.0989 -0.2086
28341W        W45865  11.495   4.031  15.137  0.0289 -0.0441  0.0801
28342W        W45866   5.621   6.153  15.262  0.2935  0.0512 -0.1539
28343W        W45867  14.069   6.095  15.052  0.2377  0.1950 -0.1408
28344W        W45868   0.209  13.533   2.754  0.0078 -0.1291  0.2341
28345W        W45869  14.824  13.853  14.106  0.2205 -0.1061 -0.1061
28346W        W45870   7.795   4.678   2.996  0.3521 -0.0202  0.0080
28347W        W45871   7.860   8.466  12.444  0.0915  0.1733  0.0715
28348W        W45872   1.232   5.850  11.715  0.0288  0.1129  0.0088
28349W        W45873   4.270  10.220  16.492  0.2613 -0.2200 -0.2524
28350W        W45874   1.274  12.905  12.226  0.1289 -0.1865 -0.2210
28351W        W45875  13.034  14.795   5.748  0.1384 -0.0888 -0.0811
28352W        W45876  10.726  12.603  13.735  0.1227 -0.2277  0.2356
28353W        W45877   4.312  15.151  16.588 -0.2071  0.0106  0.1638
28354W        W45878   2.415  12.713  16.001 -0.2015 -0.0635 -0.2521
28355W        W45879  10.105  10.701   2.195 -0.0230 -0.0283 -0.3429
28356W        W45880  10.561   5.985  11.713 -0.1913  0.1203 -0.2744
28357W        W45881  10.991  13.961   4.551  0.2288  0.0828  0.1803
28358W        W45882  11.553   8.939   2.983  0.1788 -0.0213  0.1406
28359W        W45883   3.133  10.137  16.457  0.3111  0.3523 -0.0012
28360W        W45884  10.302   3.339   1.784 -0.0804 -0.0211  0.0237
28361W        W45885   3.465  10.699   0.012 -0.1006  0.2683  0.1246
28362W        W45886   3.967  12.623  16.839  0.0959  0.1564  0.3606
28363W        W45887  15.297  13.268  15.885 -0.0314 -0.2086 -0.0503
28364W        W45888   2.968  16.421  16.353 -0.0207  0.0206 -0.1454
28365W        W45889   0.195   1.597  13.858  0.1600  0.1098  0.0921
28366W        W45890  16.432  11.280  17.065 -0.1518 -0.0287  0.1301
28367W        W45891  16.882   6.967  15.694 -0.0620  0.2638  0.3470
28368W        W45892   3.636  14.989   3.267 -0.1059 -0.0833 -0.2390
28369W        W45893   4.921   6.646   5.507  0.1588  0.2896  0.0058
28370W        W45894   8.296   3.909   0.913 -0.1266  0.0078 -0.0480
28371W        W45895   8.909  14.620   3.508 -0.2007 -0.0208 -0.0519
28372W        W45896   6.637   5.948  16.231 -0.1043 -0.2931 -0.0674
28373W        W45897   9.674  15.806   5.248  0.1398 -0.2914  0.1887
28374W        W45898  15.728  14.670   1.665  0.2395  0.2076  0.0019
28375W        W45899   4.089  11.258  15.442 -0.3635 -0.1792 -0.1590
28376W        W45900  10.684   5.787  14.633  0.0465  0.2619 -0.2092
28377W        W45901   6.966   3.596   0.522  0.0827 -0.2672  0.3769
28378W        W45902   2.109  16.987   0.445  0.3453 -0.0254 -0.0234
28379W        W45903  14.811   7.352   2.349 -0.1589  0.1779 -0.1969
28380W        W45904   5.701  13.065   5.110  0.1908 -0.2216 -0.0318
28381W        W45905  15.097   7.919   5.069  0.0217  0.1605 -0.1616
28382W        W45906   7.021   6.467   3.483 -0.0094  0.0440 -0.0464
28383W        W45907   6.676  12.877   1.129  0.0893 -0.0813 -0.1553
28384W        W45908   1.950   6.069  14.256 -0.4310 -0.2336 -0.1128
28385W        W45909   0.158  13.029  14.953  0.1087 -0.0924 -0.0859
28386W        W45910   7.914   5.897  15.798  0.2410  0.1190 -0.1550
28387W        W45911   3.031   6.921  17.003 -0.0507 -0.0442 -0.2449
28388W        W45912   4.553  15.217  12.165  0.0256 -0.1262 -0.1269
28389W        W45913  12.303  12.946  17.398 -0.1540  0.4176  0.1138
28390W        W45914   9.493  13.481  17.080  0.1325 -0.1446 -0.0524
28391W        W45915  11.302  12.408   4.140  0.2034 -0.1576 -0.0458
28392W        W45916  15.998   9.188   4.665 -0.0067  0.0329 -0.1420
28393W        W45917   1.719  15.925  13.051  0.2186 -0.2000  0.3505
28394W        W45918   8.163   2.365  16.311 -0.1717  0.2008 -0.0047
28395W        W45919   1.824   4.740   1.657  0.4160  0.0678 -0.1957
28396W        W45920   3.732  11.810   3.824  0.3324 -0.2255  0.0991
28397W        W45921   3.772   8.861  14.702 -0.1151  0.0530 -0.1771
28398W        W45922   7.297   9.631  17.174  0.1672 -0.0831 -0.0447
28399W        W45923   9.336   6.256   3.396 -0.1419  0.0952  0.1475
28400W        W45924   8.751   7.904  16.354  0.0832  0.2107 -0.2745
28401W        W45925  11.116   5.786  13.453  0.2061  0.2200  0.0026
28402W        W45926   8.863   8.325  13.545 -0.2415  0.0260 -0.2426
28403W        W45927   7.462   8.917  16.355  0.0842 -0.1688 -0.0200
28404W        W45928   8.736   1.830  17.439  0.1891  0.1231 -0.1645
28405W        W45929  14.174   3.713   2.727 -0.2113  0.0015  0.0272
28406W        W45930  11.533   7.276   3.942  0.1591  0.0941 -0.1447
28407W        W45931   5.355  13.665   0.160  0.1491 -0.3011 -0.2327
28408W        W45932   8.363   6.864  17.276 -0.2239 -0.3111  0.0668
28409W        W45933   2.383   0.570   3.221  0.0327 -0.0351 -0.1631
28410W        W45934   5.610   7.841   0.335  0.0225 -0.0666 -0.1014
28411W        W45935   0.914  13.160   4.893 -0.3985 -0.0983  0.0226
28412W        W45936   4.832   1.459  13.599 -0.0107 -0.1210  0.1208
28413W        W45937  11.440   5.613  12.271  0.1980  0.0130  0.0677
28414W        W45938   4.454  12.128  15.253  0.1924  0.0399 -0.1878
28415W        W45939   8.754   3.127   0.219  0.1013 -0.0161 -0.1241
28416W        W45940   9.139   1.536   2.991 -0.1768  0.1335  0.1552
28417W        W45941   2.152   2.636  11.785 -0.1984 -0.0829 -0.4000
28418W        W45942   0.671   2.261   5.582  0.1030 -0.0633 -0.0184
28419W        W45943  12.916   0.355  16.498  0.0558  0.1198 -0.1965
28420W        W45944   3.337   8.832  12.719 -0.1208  0.2339 -0.1372
28421W        W45945   4.129  15.810   0.551 -0.4285 -0.2045  0.1288
28422W        W45946  10.316   6.900  15.246  0.3204  0.3078  0.0219
28423W        W45947   9.629   2.060   1.124  0.0536 -0.0623  0.0846
28424W        W45948   5.094   5.508   2.238  0.1911  0.0818  0.2449
28425W        W45949  15.092   4.862   0.831 -0.0350 -0.0779 -0.0627
28426W        W45950   6.977  13.867   5.109 -0.2417  0.1424  0.2777
28427W        W45951  15.084   1.564   5.782  0.2731 -0.2386 -0.1942
28428W        W45952   0.201   7.228   2.327 -0.3799 -0.1222  0.2957
28429W        W45953   7.148  17.119  15.905  0.1444 -0.0126 -0.0309
28430W        W45954  13.951  16.217  15.561 -0.0165 -0.0300  0.1250
28431W        W45955  11.789  11.312   1.636  0.3510 -0.1507 -0.1400
28432W        W45956  14.170   2.061  12.988  0.1445 -0.1165  0.0042
28433W        W45957   5.813  12.385  16.763  0.1397 -0.3985 -0.0188
28434W        W45958   3.437   9.674  13.491  0.0862  0.2795 -0.0969
28435W        W45959   8.049   6.832  15.801  0.2386  0.1404 -0.2460
28436W        W45960  10.917  12.605   2.482 -0.0535  0.1394 -0.1083
28437W        W45961  10.916  16.218  17.325 -0.1262 -0.0614 -0.3522
28438W        W45962  16.195   0.565  13.718  0.1719  0.0480  0.0797
28439W        W45963  15.575   0.905   5.383 -0.1058 -0.0788 -0.0747
28440W        W45964  12.563  10.301  11.768  0.1737 -0.2910 -0.1475
28441W        W45965   6.180  14.350   1.027  0.0538 -0.2084 -0.1788
28442W        W45966   0.093  13.288   0.098 -0.2049 -0.1669 -0.2022
28443W        W45967  15.787   6.799  15.496 -0.3509 -0.1184 -0.3270
28444W        W45968  12.112   7.885  13.906 -0.2740  0.2716 -0.1795
28445W        W45969  15.630  15.906  12.870 -0.1524  0.3720  0.1077
28446W        W45970   8.759  13.318   2.695  0.1309  0.0288 -0.1602
28447W        W45971   2.044   1.700   4.139  0.0136  0.0340  0.2408
28448W        W45972  10.956   8.796  15.998 -0.0566 -0.4260 -0.4175
28449W        W45973   0.143  15.570   2.701  0.1319 -0.0763  0.0852
28450W        W45974  16.710  13.787   2.179  0.1095 -0.0814 -0.0563
28451W        W45975   0.542   1.046  13.744  0.2789  0.0317  0.0142
28452W        W45976   8.415   2.586  15.850 -0.1120 -0.1075 -0.2680
28453W        W45977   8.648  12.708  13.299 -0.0118 -0.0733 -0.0002
28454W        W45978   7.820   3.135  16.444  0.0253 -0.3134  0.1915
28455W        W45979   2.178  13.133   3.393  0.0428  0.1763  0.3502
28456W        W45980  16.497  16.379  13.127 -0.2427  0.2304  0.2312
28457W        W45981  10.642  13.320   3.098 -0.1446 -0.2449  0.0416
28458W        W45982  12.755  12.903   2.785 -0.2508 -0.0593  0.0039
28459W        W45983  11.913   6.982   2.647  0.3728 -0.0093  0.0425
28460W        W45984  13.248  10.748   5.577  0.0771 -0.3369  0.2347
28461W        W45985  11.503   7.569   0.119  0.1836  0.1375 -0.0954
28462W        W45986   3.035  14.561  14.528  0.0688  0.0409 -0.0964
28463W        W45987  11.745   6.483  16.999  0.1781 -0.0711  0.0577
28464W        W45988   3.635   4.336  17.446  0.1171 -0.2180 -0.1634
28465W        W45989  17.123   4.007   4.639  0.1454  0.2251  0.2347
28466W        W45990   2.992  11.463  16.861 -0.2142 -0.2223 -0.0795
28467W        W45991  10.856   7.573   1.490  0.0062 -0.2600  0.1489
28468W        W45992  10.168   6.009   1.706 -0.1112 -0.0131 -0.0542
28469W        W45993   2.347  15.903   5.037  0.0985 -0.1442 -0.0040
28470W        W45994   2.707  12.886   4.678 -0.0931  0.3197  0.2431
28471W        W45995  11.885  11.450  17.084 -0.1675  0.0328 -0.2583
28472W        W45996  16.868  13.739  16.571 -0.0408  0.0678 -0.2862
28473W        W45997   0.546   5.959   3.862  0.1142 -0.0709  0.1622
28474W        W45998   2.521   2.557   5.704  0.0275 -0.0784  0.0295
28475W        W45999   0.729   4.601   1.482 -0.1986 -0.0642 -0.1344
28476W        W46000   3.814   7.469   0.131 -0.3289  0.0607 -0.1063
28477W        W46001   0.931   9.527   5.392  0.0264  0.0980 -0.1381
28478W        W46002   9.145   1.447   0.574  0.3498 -0.1419  0.3213
28479W        W46003   5.762   3.759  12.944  0.3182  0.1068  0.3481
28480W        W46004  11.972   0.633  12.237 -0.1880  0.1658 -0.0146
28481W        W46005   8.359  15.755   3.961  0.2179  0.0947  0.3122
28482W        W46006   4.372  13.206   3.922  0.1999  0.1625 -0.1594
28483W        W46007   9.703   9.359  12.178  0.1345  0.3479 -0.2768
28484W        W46008  13.166   1.893  15.796  0.1712 -0.2024 -0.0219
28485W        W46009  12.963  11.101   2.820  0.1974  0.1742 -0.0851
28486W        W46010  14.175   8.858   4.436 -0.0427  0.1110  0.0819
28487W        W46011  11.477   1.882  16.398  0.1709 -0.0708  0.0340
28488W        W46012  14.597   0.240   5.900 -0.0658 -0.2796  0.0758
28489W        W46013  16.416   8.173   1.852 -0.1529 -0.0691 -0.2289
28490W        W46014  12.354  11.250  16.050  0.0186 -0.1437 -0.3720
28491W        W46015  11.801   5.686  16.935 -0.2036 -0.3624  0.1973
28492W        W46016   5.877   4.248  17.647  0.2403 -0.0990  0.0184
28493W        W46017   8.108   6.369   4.186 -0.4216  0.1699  0.2386
28494W        W46018  16.049  13.421  12.951 -0.0847  0.0301 -0.1192
28495W        W46019  16.031   4.933  17.527  0.1736  0.1692 -0.0207
28496W        W46020  10.837   6.947  14.163 -0.0566  0.1068 -0.1635
28497W        W46021  16.066   8.709   1.404  0.0750 -0.0327  0.0164
28498W        W46022  11.010   2.667  13.225  0.0763 -0.0307 -0.0045
28499W        W46023  16.339   6.406  13.705 -0.0315 -0.4052  0.1088
28500W        W46024  16.099   1.146   1.462  0.1146 -0.2102  0.2270
28501W        W46025  11.010   9.905  13.133  0.0573  0.2366  0.0626
28502W        W46026  13.686   6.585   3.201  0.0675 -0.3496  0.1337
28503W        W46027  16.867  12.558  17.436  0.2656  0.2156 -0.0297
28504W        W46028   3.393  13.283  17.153  0.1650 -0.1950 -0.2220
28505W        W46029  16.538  13.893  13.590 -0.3492  0.0944  0.0008
28506W        W46030   4.381  12.218   3.117 -0.2010  0.3371  0.1322
28507W        W46031   1.637   6.931   4.940 -0.2743  0.0907 -0.0858
28508W        W46032   8.284   4.991   1.557 -0.0216  0.1840  0.1091
28509W        W46033   8.869   2.038   4.651  0.1604  0.0821 -0.0125
28510W        W46034   9.117   4.481   4.051 -0.1981 -0.1763  0.0973
28511W        W46035   6.684   0.558  17.092  0.0791  0.0831  0.1769
28512W        W46036   9.071  11.737   2.625 -0.3898  0.1144  0.1401
28513W        W46037  11.131  10.237  14.236  0.1949  0.1705 -0.1375
28514W        W46038  16.368   2.395  13.717 -0.0788 -0.0234 -0.0412
28515W        W46039   0.682   8.900   3.664  0.1110 -0.0885  0.1210
28516W        W46040   9.199   4.839   1.174 -0.1917  0.3515 -0.0300
28517W        W46041  14.910  16.588  14.541  0.2157  0.2554  0.1838
28518W        W46042   0.313   9.314   2.563  0.0291  0.3226  0.1938
28519W        W46043   9.303  14.872   4.837  0.2010 -0.3083  0.2881
28520W        W46044  14.497   4.528   1.573  0.0664  0.5292  0.3009
28521W        W46045  10.418  12.366   1.300 -0.1047  0.1602 -0.2852
28522W        W46046   0.869   2.963   4.635  0.0461  0.0829  0.0259
28523W        W46047   4.947   3.860   4.337  0.2464  0.0209 -0.0962
28524W        W46048   6.147   6.218  13.141  0.0460 -0.0237  0.1733
28525W        W46049   0.658   1.137   0.803  0.4186 -0.5810  0.0901
28526W        W46050   5.883  13.920   3.182 -0.3156  0.0331 -0.2243
28527W        W46051  13.613  12.998  13.114 -0.0328 -0.0116  0.4774
28528W        W46052   5.890   1.759   5.272  0.2087 -0.0948  0.0856
28529W        W46053   3.832  12.259   5.947 -0.0273  0.1969 -0.1112
28530W        W46054   0.309   1.798  15.174  0.0206 -0.2143 -0.2649
28531W        W46055   1.880  12.470  14.141 -0.2426  0.0684  0.0817
28532W        W46056   7.767   2.178  16.570 -0.1004  0.0690  0.0077
28533W        W46057   2.897   5.946  17.241 -0.0363 -0.1374 -0.2086
28534W        W46058  12.934  13.428   3.960 -0.0360  0.3306 -0.1827
28535W        W46059   6.341  15.710  13.374  0.0217  0.0867  0.0653
28536W        W46060   0.122   9.621   5.010  0.1349  0.0272 -0.1519
28537W        W46061   4.857   3.897  15.117  0.2611 -0.2341 -0.2689
28538W        W46062   8.030  11.306   4.062  0.0061  0.0217  0.0935
28539W        W46063  12.524   1.713  17.470 -0.1348  0.0748 -0.1407
28540W        W46064  13.435   3.926  13.699 -0.0928 -0.2047 -0.0877
28541W        W46065   6.842  13.597   0.618  0.1415 -0.0438  0.0188
28542W        W46066   4.003   8.306  12.410  0.1986  0.1230  0.0119
28543W        W46067   3.940  11.582  13.940  0.0620  0.0671 -0.0241
28544W        W46068  15.506  13.134  13.764  0.0480  0.0480  0.0069
28545W        W46069   3.902   4.901  12.920  0.1387 -0.0714 -0.2706
28546W        W46070   9.406   7.912  13.338  0.0311 -0.0869  0.2424
28547W        W46071   9.423   4.152  15.828  0.0360  0.0219  0.1744
28548W        W46072  11.157  16.176  11.633  0.3626 -0.0631 -0.3760
28549W        W46073   5.589   6.178   3.981  0.2399 -0.0042  0.0619
28550W        W46074   2.154   2.972  16.935  0.1518 -0.1775  0.1835
28551W        W46075   3.382  16.479  12.951  0.2649  0.0848 -0.2750
28552W        W46076  11.175   9.553  15.116  0.1329 -0.2146  0.0180
28553W        W46077  16.883   9.718   1.099 -0.3147  0.3239 -0.2147
28554W        W46078  15.810   0.112   4.923 -0.1831  0.0580 -0.1095
28555W        W46079   5.807   0.697   4.388 -0.2066  0.0136 -0.0508
28556W        W46080   3.164  16.169  13.819 -0.1940 -0.1869 -0.0826
28557W        W46081  12.639  15.084  13.567  0.0418 -0.1641  0.0433
28558W        W46082   1.358  11.129  12.338  0.1264  0.1119 -0.1440
28559W        W46083  15.908   3.851  14.183 -0.1389 -0.0140  0.0212
28560W        W46084  11.388   3.658   4.485  0.0769 -0.2253  0.2517
28561W        W46085   0.743  15.875   0.587  0.1775 -0.0283 -0.2154
28562W        W46086  14.324   3.015  12.770  0.0899  0.3764  0.3480
28563W        W46087  13.144   3.957  14.623  0.1733 -0.1471 -0.0102
28564W        W46088   5.498   9.396   4.866 -0.0867  0.0405 -0.1612
28565W        W46089  15.181  14.625  14.289  0.1073  0.0183  0.0084
28566W        W46090  10.724  13.101   0.921 -0.2450  0.2466 -0.0335
28567W        W46091   5.639   4.148   3.568 -0.1378 -0.1135  0.1362
28568W        W46092  16.706  12.692  15.458  0.0424  0.0137 -0.0973
28569W        W46093   3.602  15.725  17.565  0.1124  0.1563  0.1123
28570W        W46094  12.130  11.969  14.192  0.0986 -0.0711 -0.1717
28571W        W46095  13.440   9.108   1.654 -0.2873  0.0362  0.2982
28572W        W46096   0.888   4.852  14.499  0.3371  0.3649  0.0962
28573W        W46097  11.863  11.352  15.779 -0.0571 -0.0015 -0.0865
28574W        W46098  16.224  12.482  14.674 -0.1420 -0.1002  0.1165
28575W        W46099   3.824   4.947   4.174  0.0344  0.0752 -0.0299
28576W        W46100   8.666   7.344   4.193 -0.1507  0.0261 -0.0313
28577W        W46101   7.075  13.736  16.373 -0.1395 -0.0305 -0.2620
28578W        W46102  12.350   3.678   0.010  0.0066  0.0226  0.2947
28579W        W46103  10.574  11.176  16.441 -0.2596  0.1650 -0.0499
28580W        W46104   5.431   0.172  16.978 -0.0999 -0.1200 -0.0587
28581W        W46105  10.655   4.495   3.482 -0.0995  0.1631 -0.0055
28582W        W46106   3.087  15.658   5.872 -0.3726 -0.1298 -0.0430
28583W        W46107   8.637  16.842  14.967  0.2298 -0.1060  0.0101
28584W        W46108   9.338  13.202   5.271 -0.0201  0.0863  0.3185
28585W        W46109   1.282  10.656   2.904 -0.1867  0.3184 -0.2086
28586W        W46110  10.778   3.096   0.459  0.3595  0.1005  0.0841
28587W        W46111   3.808  15.501   5.278  0.2995  0.1068  0.4118
28588W        W46112   7.396   5.277   4.720 -0.0500 -0.0099  0.1171
28589W        W46113   2.068   1.087   0.703  0.0810  0.2032 -0.1046
28590W        W46114  16.791   6.609   3.482  0.1145 -0.0125 -0.1856
28591W        W46115   6.203  11.843   3.898  0.1116 -0.0806 -0.1962
28592W        W46116   6.399  10.648  16.398  0.1635 -0.1641 -0.2088
28593W        W46117   9.645  14.180   1.762  0.0022  0.0921 -0.0430
28594W        W46118   6.427   0.406  15.355 -0.1284  0.1917  0.4255
28595W        W46119   6.992   3.021  16.650 -0.0651 -0.2096  0.1143
28596W        W46120   2.064  10.457  16.490 -0.4620  0.2606  0.2095
28597W        W46121   5.802  14.099  17.443 -0.1348 -0.1508 -0.0868
28598W        W46122  13.643  11.658  13.252 -0.0880  0.0810 -0.0480
28599W        W46123  10.892  12.546  14.613  0.0469  0.1215 -0.1767
28600W        W46124   3.431  12.952  17.509  0.0854  0.0344  0.2222
28601W        W46125   8.546   7.445   5.988 -0.0289 -0.3035  0.2613
28602W        W46126   9.858   3.257   2.547 -0.1277  0.0484  0.1619
28603W        W46127  15.117   4.716   4.732  0.0741 -0.0564 -0.1357
28604W        W46128  14.833   0.650   3.752 -0.2116  0.0789  0.1711
28605W        W46129   7.758   9.847  17.207  0.0074 -0.3847 -0.1904
28606W        W46130  16.576   6.670  17.105 -0.0514  0.1792 -0.2940
28607W        W46131   9.172  13.969  13.810 -0.2035 -0.2582  0.0572
28608W        W46132  15.254  16.406   1.909 -0.0575  0.0836  0.2248
28609W        W46133   0.578  14.249  12.616  0.1072 -0.1609 -0.0686
28610W        W46134   7.531   3.944   4.323 -0.3621  0.0824 -0.2158
28611W        W46135  12.208  12.639   1.501 -0.0900 -0.1846  0.2609
28612W        W46136   4.292   6.998   2.984 -0.1546 -0.0698  0.0516
28613W        W46137  12.736  11.587  11.948 -0.2476 -0.0472 -0.2302
28614W        W46138   6.014  10.655   3.544  0.1298  0.1079  0.1354
28615W        W46139  15.263  16.987  13.535  0.0231  0.1000  0.2501
28616W        W46140   5.851   4.581   1.848  0.1606 -0.1650  0.1501
28617W        W46141  13.411   7.192   1.916 -0.1562  0.1346 -0.1084
28618W        W46142   5.500   5.436   1.206 -0.1935 -0.3395  0.0867
28619W        W46143   8.173  16.716  12.565 -0.3561  0.2143  0.1309
28620W        W46144  15.960  10.924  15.931 -0.1505 -0.0031  0.0924
28621W        W46145   0.177   2.582   1.393  0.0742 -0.0222 -0.2833
28622W        W46146  13.564  11.852   4.715 -0.1121  0.0524  0.0236
28623W        W46147  13.086  11.850   4.925 -0.0271  0.1791  0.0759
28624W        W46148   9.480  11.901   2.996 -0.0776  0.0438 -0.1166
28625W        W46149  13.179   7.638   0.721 -0.2746  0.0411  0.3230
28626W        W46150   6.863   0.656  14.438  0.0240  0.1147 -0.0984
28627W        W46151   6.576  15.096   0.523  0.0511 -0.0842  0.0874
28628W        W46152  13.908  12.166   4.974  0.4716  0.0807 -0.3355
28629W        W46153   3.295   7.166  13.430  0.1636 -0.0557 -0.0476
28630W        W46154   4.639  14.332   2.949 -0.3230 -0.2299  0.2760
28631W        W46155   8.876   0.618   1.916 -0.0293 -0.2320  0.0637
28632W        W46156   5.734   4.563  16.017 -0.3505 -0.0924  0.0316
28633W        W46157   8.298  12.738   0.540 -0.0920  0.2200  0.0941
28634W        W46158   6.587  12.617  12.887  0.1468 -0.1103  0.0232
28635W        W46159  13.220   3.945   0.145  0.2430  0.1470 -0.2922
28636W        W46160  11.616   8.030  14.053 -0.1994  0.0070 -0.3474
28637W        W46161  12.546  12.435   1.819  0.2980 -0.1102 -0.2459
28638W        W46162   6.345  12.466  17.417 -0.0257 -0.2188  0.2320
28639W        W46163   7.268   4.045  12.248 -0.0416  0.1591 -0.2137
28640W        W46164   2.190  16.330   0.805  0.0111  0.1991  0.2223
28641W        W46165  11.723   5.361   5.021  0.0202  0.0517  0.1127
28642W        W46166  10.510   2.965   4.047 -0.0072  0.1925  0.0826
28643W        W46167  15.036  16.853   0.843 -0.1829 -0.2659 -0.2132
28644W        W46168   9.611   8.154  12.853  0.3414  0.1318 -0.0949
28645W        W46169  10.399  12.759  14.332 -0.0838  0.0045  0.1358
28646W        W46170   0.722   4.367  16.095 -0.0883 -0.1764  0.0808
28647W        W46171   7.307   0.112   0.912 -0.0902 -0.1300  0.2218
28648W        W46172  13.137   3.577  15.012 -0.0373  0.0902 -0.0227
28649W        W46173   0.462   7.950  15.698 -0.1378  0.2275 -0.0278
28650W        W46174   2.104  16.511   0.245 -0.1735 -0.0892 -0.0036
28651W        W46175  13.724  15.718  15.299 -0.0916 -0.4163  0.1101
28652W        W46176   6.182   7.116   0.190  0.3474 -0.0262 -0.0529
28653W        W46177  15.792  10.012   1.971  0.1532  0.1625  0.2858
28654W        W46178   2.896   7.245  16.624 -0.0726 -0.2272  0.2034
28655W        W46179  13.254  14.422   6.183 -0.1441 -0.0972  0.1056
28656W        W46180   1.081  14.635  13.329 -0.1471 -0.0036  0.1780
28657W        W46181  10.770  13.209  15.928  0.0307  0.2973  0.1221
28658W        W46182   0.117   4.682   5.857  0.1746  0.0214 -0.0869
28659W        W46183  10.624  12.343  15.063  0.2145  0.0554  0.2181
28660W        W46184   6.348   1.772  13.031 -0.3047 -0.1241  0.2464
28661W        W46185   4.768   9.826   3.306 -0.4112 -0.1108 -0.0939
28662W        W46186   1.150  14.879  15.389  0.0110  0.1156  0.0021
28663W        W46187  16.501   2.924  11.732  0.4740  0.4973 -0.0868
28664W        W46188  10.501   9.877   1.651 -0.1735 -0.0436  0.1604
28665W        W46189   3.426   2.135  11.665 -0.2376  0.2385  0.0662
28666W        W46190   4.120   0.342   2.307  0.1471  0.3765  0.3383
28667W        W46191   3.205  13.505   2.246  0.2105 -0.0733 -0.1219
28668W        W46192   5.822  10.109  14.854  0.2952  0.0147  0.0337
28669W        W46193   7.650  11.403  17.360  0.0361 -0.0414  0.0061
28670W        W46194   1.877  13.430   1.971 -0.3508 -0.0053  0.3155
28671W        W46195   6.892   2.375   3.363  0.1116  0.0708 -0.1238
28672W        W46196   8.387   9.090   1.281 -0.3880  0.1478 -0.1334
28673W        W46197   7.269  12.575   1.980  0.2629 -0.2108  0.0974
28674W        W46198   7.219  14.082  12.520 -0.2106  0.3270 -0.1197
28675W        W46199   6.290   9.933   1.004  0.0467 -0.1356  0.0142
28676W        W46200  13.228  11.432  17.010 -0.0287 -0.0222 -0.1649
28677W        W46201   4.723   0.306   1.130 -0.1405  0.2358 -0.1690
28678W        W46202  16.710   1.221  12.814 -0.0285  0.1570 -0.1599
28679W        W46203  13.106   4.114  11.541 -0.0794 -0.1712 -0.2240
28680W        W46204   3.570  12.370  12.865  0.3604  0.1780 -0.0711
28681W        W46205  15.809  15.864   3.249  0.1714  0.3068  0.0667
28682W        W46206  10.429   0.632   2.668 -0.1932  0.5305 -0.1662
28683W        W46207  13.736  10.860  17.206  0.1274  0.0181 -0.1623
28684W        W46208   2.427   6.470   0.290 -0.1420 -0.0713  0.1567
28685W        W46209  10.836   8.257  13.396  0.1277  0.4004 -0.0947
28686W        W46210   5.020   3.127  12.884 -0.1142  0.0542  0.0499
28687W        W46211   2.746  10.822   0.703  0.3418 -0.2922 -0.1598
28688W        W46212  14.897  10.423  13.867  0.1329  0.1181 -0.0526
28689W        W46213   2.140  10.671   5.437  0.0089  0.1501 -0.1641
28690W        W46214   1.361   3.774   0.745 -0.0676 -0.1280  0.1525
28691W        W46215   4.712   6.793  11.719  0.0352 -0.2853 -0.0112
28692W        W46216   7.427   3.620  17.087 -0.1027  0.1647  0.0183
28693W        W46217  13.802  11.921  12.724  0.2368 -0.2082 -0.1788
28694W        W46218   7.578  16.577   0.300 -0.3344 -0.1415 -0.2309
28695W        W46219   5.213  15.378  14.073  0.0485  0.0893  0.0454
28696W        W46220  14.037  14.340  15.503  0.1082 -0.0747  0.1463
28697W        W46221  10.414  11.608  12.890  0.0780  0.1557 -0.0670
28698W        W46222  15.075  13.142  14.153 -0.3731  0.1476 -0.0274
28699W        W46223  11.205   3.251   0.561 -0.1624  0.1093  0.1660
28700W        W46224   1.698  11.442  16.493 -0.1749 -0.0330 -0.1325
28701W        W46225   7.156  16.052   2.365 -0.2550 -0.2640 -0.1635
28702W        W46226   1.427   2.661  17.012  0.2308 -0.0511  0.1955
28703W        W46227   1.179  16.079  12.888 -0.0361  0.2422 -0.0976
28704W        W46228   6.535  17.073   4.727  0.2259 -0.1589 -0.0251
28705W        W46229   9.076   3.851   0.533  0.0057  0.3445 -0.1773
28706W        W46230  10.004  15.898   3.173 -0.0342  0.0354  0.1440
28707W        W46231   6.553   2.788   3.359  0.0783 -0.2090  0.0211
28708W        W46232   8.274  13.826   1.036  0.2758 -0.4248 -0.1340
28709W        W46233  10.747  12.133   2.681 -0.0408 -0.0446  0.2031
28710W        W46234   8.350   1.391  17.558 -0.0732 -0.1059 -0.0214
28711W        W46235   9.105   1.575  16.316 -0.2012 -0.1168 -0.1092
28712W        W46236  15.458   9.635   0.840  0.2393  0.2351  0.0127
28713W        W46237   7.148   6.481  16.883 -0.2983  0.0204 -0.1076
28714W        W46238   9.289  14.831  17.539  0.1491  0.1371  0.0086
28715W        W46239  15.049  14.953  17.433 -0.0088  0.0113 -0.3292
28716W        W46240  15.177   9.916  13.111  0.0736 -0.0260 -0.0357
28717W        W46241  16.698  12.212  17.013 -0.0033  0.0171  0.0787
28718W        W46242  12.083   6.986   4.562  0.1626 -0.2794  0.0228
28719W        W46243   7.736   5.642  17.413  0.3108 -0.1031 -0.2485
28720W        W46244   4.210   2.680   6.130 -0.1522 -0.3755 -0.2981
28721W        W46245   8.323  11.130  12.444  0.0650 -0.1630 -0.0845
28722W        W46246  11.504  12.565   3.398 -0.0937  0.2213 -0.0533
28723W        W46247   4.697   6.057  17.561 -0.2489 -0.4404 -0.0114
28724W        W46248  14.389  11.156   1.608 -0.5963 -0.1605  0.0848
28725W        W46249   7.607  15.379   3.283  0.1547  0.4268 -0.1104
28726W        W46250   5.903   9.023   1.271  0.1615 -0.0230 -0.2493
28727W        W46251   3.988   9.401   2.902  0.1036 -0.1562 -0.0795
28728W        W46252  15.059  12.192   4.875 -0.1161 -0.2702  0.2425
28729W        W46253  12.789  13.574  17.282  0.0560 -0.1938  0.2276
28730W        W46254   6.853   7.721  14.712  0.0340  0.0301  0.1918
28731W        W46255   6.433  13.610  15.266  0.0590 -0.1711 -0.0985
28732W        W46256   6.823   7.445   2.542  0.3339  0.2675  0.0544
28733W        W46257   7.618   1.319   5.095  0.0474  0.2889 -0.0619
28734W        W46258  16.644  12.173  11.921 -0.1326  0.3473 -0.3114
28735W        W46259  15.296   7.128   2.364 -0.0300 -0.0804 -0.1618
28736W        W46260  15.614   7.387   4.463 -0.0625 -0.0179  0.1550
28737W        W46261   0.639   4.272  14.863  0.1668  0.0771  0.2088
28738W        W46262  14.343   9.837   5.013  0.0551  0.1157 -0.0576
28739W        W46263   5.312  16.516   3.131 -0.0357 -0.1126 -0.0625
28740W        W46264  12.556   2.607   2.054  0.0495  0.0734 -0.1284
28741W        W46265  11.974   3.069  16.495 -0.1660 -0.1015 -0.1012
28742W        W46266   7.165   3.307   0.149 -0.2297  0.1506  0.1651
28743W        W46267   3.402   3.853   6.252  0.2290 -0.0329 -0.3241
28744W        W46268  10.185  13.887   1.346  0.0277 -0.0627 -0.1868
28745W        W46269  12.275   4.689  13.498  0.0438 -0.1310 -0.4331
28746W        W46270  16.347   6.289  16.790  0.0757  0.2557 -0.1109
28747W        W46271  10.004  16.037  14.918  0.2338 -0.1230 -0.1009
28748W        W46272   1.360  15.351  16.684  0.3853 -0.1984  0.0970
28749W        W46273  10.161   3.657  13.234 -0.1875 -0.1312  0.0878
28750W        W46274  15.498  16.849   2.108  0.2386 -0.1107  0.1027
28751W        W46275   5.739   6.019   1.579 -0.1986 -0.0025 -0.2187
28752W        W46276   8.904  10.856   5.598  0.1377  0.4007 -0.3298
28753W        W46277  15.135  10.235   4.481 -0.2738 -0.1229 -0.1626
28754W        W46278  10.909   4.349   4.762 -0.0136  0.1360 -0.1016
28755W        W46279   8.275   5.183  16.542 -0.1309 -0.0615  0.0811
28756W        W46280  15.520   7.622   0.842  0.0150  0.0725  0.3308
28757W        W46281  11.620   4.205  17.596 -0.1958 -0.1460 -0.4070
28758W        W46282   7.934   6.811   2.988  0.1434  0.0422  0.0888
28759W        W46283   5.329   6.360   5.455 -0.0639 -0.1097 -0.1950
28760W        W46284  12.115   1.461   4.513 -0.1864  0.0529 -0.1204
28761W        W46285  15.913  13.292  14.749 -0.0966 -0.1652 -0.0897
28762W        W46286  13.088   6.147  16.166 -0.2651  0.0619  0.1127
28763W        W46287  14.120  15.355  13.655  0.0711 -0.1945  0.1343
28764W        W46288  12.462   0.722  14.739  0.4051 -0.0407 -0.0599
28765W        W46289  11.203   6.527  16.949  0.2818  0.1781  0.0002
28766W        W46290  15.899   9.485   1.131  0.2972  0.2887 -0.0272
28767W        W46291   9.825  10.966  13.188  0.1439 -0.2377  0.0260
28768W        W46292   8.214   4.703  12.645 -0.3313  0.2016 -0.0365
28769W        W46293  12.421   5.481  14.820  0.0663 -0.1985  0.3882
28770W        W46294   4.827   2.152  12.239  0.2290  0.0333  0.2280
28771W        W46295  14.005   5.080  17.430 -0.2043 -0.2889 -0.0341
28772W        W46296   9.083   8.649  14.909  0.1554  0.1549  0.0354
28773W        W46297   5.513  15.592   2.851  0.0862  0.1244 -0.0756
28774W        W46298  14.610  14.658  14.172 -0.1552 -0.0688 -0.0872
28775W        W46299  13.914  15.314  17.596 -0.1183  0.2450 -0.0389
28776W        W46300   3.807   2.330   0.274  0.2695  0.1661  0.2175
28777W        W46301   6.705  14.366   4.949 -0.0356  0.0716  0.0878
28778W        W46302  16.227  10.780  12.298 -0.1235  0.0758 -0.0214
28779W        W46303   4.805  12.926  12.809 -0.2280 -0.0239  0.1193
28780W        W46304   2.123   6.924   0.248 -0.4014 -0.0439  0.1159
28781W        W46305  12.636   0.210   4.080  0.2038  0.3062 -0.1586
28782W        W46306  11.013   6.267   4.361  0.0980  0.2301  0.3178
28783W        W46307  12.472   8.250   4.354 -0.3639  0.0584 -0.2984
28784W        W46308   5.703   5.855   0.454 -0.0594 -0.1783 -0.1009
28785W        W46309   8.617   9.766   1.779 -0.1047  0.1236  0.0331
28786W        W46310  11.932  13.219   3.972 -0.1002  0.0581  0.3067
28787W        W46311   2.397  16.035  13.514 -0.0021  0.0317 -0.2308
28788W        W46312   5.951   7.773   4.327 -0.2558 -0.1384  0.3053
28789W        W46313   5.506   3.705  13.375  0.1134 -0.1510  0.0885
28790W        W46314   8.314   3.647   4.348 -0.0533 -0.0701 -0.0492
28791W        W46315  13.700   0.313  17.200 -0.0066  0.0729 -0.2677
28792W        W46316  15.390  12.154   5.256  0.0393  0.2735 -0.1354
28793W        W46317   8.283  16.359  14.427  0.2057 -0.2303  0.1873
28794W        W46318   8.838   1.122   1.420 -0.1885  0.0961 -0.2121
28795W        W46319   2.102   1.241   5.770  0.0789  0.0356  0.0835
28796W        W46320   5.502   9.387   0.336 -0.0788 -0.1633 -0.2395
28797W        W46321   5.378   0.601  16.676  0.3153 -0.1973 -0.0373
28798W        W46322   8.992  15.431  16.463 -0.2673 -0.2478 -0.3340
28799W        W46323   3.170   1.460   2.638  0.0113  0.1096 -0.0487
28800W        W46324  15.792   2.559   4.922  0.5600 -0.0902  0.3981
28801W        W46325   0.256   3.443   2.417 -0.0372 -0.0459 -0.2988
28802W        W46326  10.473   1.654  17.501  0.2216 -0.1502  0.3905
28803W        W46327   3.531   5.886  17.137 -0.1998  0.0700  0.2111
28804W        W46328   3.944   8.053   0.652  0.1895  0.2331  0.0836
28805W        W46329   0.349  16.729  16.473  0.1995 -0.0478  0.0496
28806W        W46330   4.658  12.065  13.764 -0.0143 -0.2437 -0.0185
28807W        W46331  10.215   3.957  17.527 -0.3685  0.1034 -0.2309
28808W        W46332  16.061   9.047  13.879  0.3234  0.0715  0.6754
28809W        W46333  10.205   5.036   2.329 -0.0575 -0.0032  0.1777
28810W        W46334  12.526   7.880  14.992 -0.0538  0.2774  0.0971
28811W        W46335  11.220   8.351  17.045 -0.0861  0.1525 -0.2994
28812W        W46336   5.949   4.300  15.629  0.0369  0.0010 -0.0594
28813W        W46337  15.002  15.415  15.857  0.1434  0.2277  0.2661
28814W        W46338   2.818  16.136  15.582 -0.0458  0.2976 -0.0053
28815W        W46339   1.020   5.049  17.733  0.0706  0.2842 -0.1184
28816W        W46340  10.387  11.919  14.832 -0.2468  0.2086  0.1233
28817W        W46341   8.361   2.144  14.991 -0.1778 -0.0570 -0.3575
28818W        W46342   1.546   2.319  15.678 -0.0974 -0.1564 -0.0162
28819W        W46343   4.628  16.124   3.902 -0.1145  0.0463 -0.1089
28820W        W46344  13.024  14.474  16.534  0.0063  0.0103 -0.1197
28821W        W46345   5.093   2.904   2.552 -0.0355  0.3308 -0.1846
28822W        W46346  12.838   3.502  15.386 -0.0830 -0.0285 -0.0545
28823W        W46347   5.736   4.995   0.029  0.1060 -0.3514  0.0507
28824W        W46348  11.478   3.403   0.124 -0.1983 -0.1103  0.1612
28825W        W46349  14.149   5.130   2.278 -0.0311  0.1076 -0.3123
28826W        W46350  13.203   5.134   4.999 -0.0033 -0.1453 -0.1364
28827W        W46351   0.542   7.107  15.061  0.0090 -0.0695  0.1199
28828W        W46352  12.646   5.470   4.123 -0.0263  0.1445  0.3270
28829W        W46353   8.372   5.468  15.484  0.0624  0.0536 -0.2612
28830W        W46354   2.069   1.187  17.048  0.0768 -0.0304  0.1452
28831W        W46355   0.049   5.352   2.295  0.1798  0.0725 -0.0921
28832W        W46356  16.953   9.827  15.296  0.1056  0.0597  0.1429
28833W        W46357   8.830   7.425  15.575 -0.1166  0.1708 -0.2467
28834W        W46358   6.142   0.074   3.936 -0.2636  0.1317  0.0502
28835W        W46359   6.122  10.716   2.529  0.3081  0.3748 -0.0334
28836W        W46360  15.718   4.885  15.689  0.2962 -0.2584  0.1674
28837W        W46361   3.877   5.539   4.360  0.0472 -0.3662 -0.3828
28838W        W46362   2.267  11.233   2.352 -0.1195 -0.1313  0.0108
28839W        W46363   8.359   4.135  14.245  0.1586 -0.0382  0.0292
28840W        W46364   7.406   3.684  14.687 -0.2721  0.0293 -0.4199
28841W        W46365   3.959   7.134   3.746  0.3586  0.3251  0.2444
28842W        W46366  12.652   5.904  15.581  0.2235  0.0500 -0.1262
28843W        W46367   7.124   1.146   4.964  0.1849  0.0509 -0.0946
28844W        W46368  12.059  14.347  15.281 -0.0199  0.0757  0.1265
28845W        W46369   7.381   6.847   3.706  0.1110  0.0066  0.2806
28846W        W46370  14.808   6.764  16.374 -0.2860 -0.0930 -0.0061
28847W        W46371  17.038  11.944   3.616 -0.3642  0.0503  0.2773
28848W        W46372   4.466   7.382   5.083  0.1180  0.0125 -0.0063
28849W        W46373  16.975   3.835   1.551 -0.0469 -0.2034 -0.0670
28850W        W46374   9.323  16.514  13.695  0.4214 -0.2007  0.2028
28851W        W46375  14.801  13.780  15.376  0.0259  0.4753  0.0015
28852W        W46376  11.128   0.754   1.123  0.0418  0.1611 -0.0357
28853W        W46377   1.119   5.107   2.189 -0.0078 -0.1066  0.2294
28854W        W46378  13.201  15.806   5.059  0.4357  0.1532  0.1343
28855W        W46379   7.798   8.941   2.505 -0.2312  0.3157 -0.0072
28856W        W46380   3.042  10.492  15.014  0.1870  0.3712  0.0533
28857W        W46381   4.726  10.684  15.613  0.0280  0.0662 -0.0649
28858W        W46382  16.860   5.014  15.676  0.2209  0.2290 -0.0117
28859W        W46383   7.331   9.749   2.717  0.0919 -0.0029 -0.1343
28860W        W46384   0.889  11.488   2.571  0.0396 -0.0423 -0.2351
28861W        W46385  15.612   7.758   4.119 -0.1942  0.1987  0.0364
28862W        W46386   5.658  13.431   1.574 -0.3060 -0.0481  0.0492
28863W        W46387  14.961   6.275   1.558  0.1628  0.0787  0.0244
28864W        W46388   4.027   7.685   5.627  0.0700  0.1154  0.2129
28865W        W46389   5.959   7.358   1.873 -0.3057 -0.0212  0.0974
28866W        W46390   7.145  16.949   0.298 -0.1887 -0.1339 -0.2290
28867W        W46391   3.994   1.782   2.414  0.0743 -0.2145 -0.0049
28868W        W46392   2.891   5.559   2.809 -0.0394 -0.1970  0.1174
28869W        W46393  16.964  11.532   5.715 -0.1051 -0.1958 -0.0574
28870W        W46394   6.521   3.433  14.063 -0.0780 -0.0232  0.1019
28871W        W46395   5.303  13.286   4.813 -0.0149 -0.0107  0.0829
28872W        W46396   1.322  13.935  15.822 -0.2044 -0.2508 -0.1074
28873W        W46397  14.960   1.270   3.856  0.0080 -0.2380  0.2013
28874W        W46398  16.997   0.908  16.809  0.0416 -0.0685  0.1099
28875W        W46399   8.475  10.182  14.389  0.1242  0.5849 -0.1004
28876W        W46400  15.396   0.061   0.638 -0.3614  0.0406 -0.0870
28877W        W46401   3.764   2.418  15.473  0.1891 -0.0886 -0.3685
28878W        W46402   0.007   7.686  12.714 -0.4268  0.0710 -0.4169
28879W        W46403   0.613  12.690  12.881 -0.1268  0.1389 -0.1838
28880W        W46404   3.206  12.002  14.444 -0.0906 -0.2833  0.1056
28881W        W46405   9.734   0.610   2.884  0.0046 -0.1689 -0.1642
28882W        W46406   0.180  11.962   2.302  0.3054  0.0319 -0.3176
28883W        W46407   4.138   0.872  14.468 -0.0626 -0.1456 -0.0696
28884W        W46408  16.054   9.324  17.194 -0.1664 -0.1256  0.1497
28885W        W46409  12.305  15.375   3.864 -0.1816 -0.0638 -0.2396
28886W        W46410  11.744  14.182   6.019 -0.0449  0.3165  0.1300
28887W        W46411   5.515   9.920   2.858  0.0016 -0.0213  0.0028
28888W        W46412   1.257   8.310   0.274 -0.0920  0.0767 -0.0751
28889W        W46413  14.019  12.977  15.393  0.0514  0.0690  0.1034
28890W        W46414   5.466   8.527   4.768 -0.0398  0.1539  0.2222
28891W        W46415   7.708   0.827   5.182  0.0437  0.0948 -0.0824
28892W        W46416   8.819   8.312  14.642  0.2315 -0.1537  0.4134
28893W        W46417   1.524  13.995  16.313 -0.0047 -0.2412  0.2517
28894W        W46418  11.622   0.841   1.226  0.0464 -0.2709 -0.0648
28895W        W46419   3.576  12.136   5.495 -0.0548  0.3301  0.0413
28896W        W46420   4.740  14.767  13.859  0.0980 -0.1172 -0.0749
28897W        W46421  10.873   6.870   3.180  0.0350  0.0080 -0.1501
28898W        W46422  11.477   6.247  17.398  0.0826 -0.1628 -0.4681
28899W        W46423   3.220  12.563   0.772  0.1675  0.0486 -0.2913
28900W        W46424  14.853  14.384  11.939  0.2651 -0.0287 -0.0288
28901W        W46425   3.376  12.843   1.409  0.3536  0.3025  0.1295
28902W        W46426  13.227   2.046  16.286  0.3296  0.1549 -0.0136
28903W        W46427   7.359   1.969   2.022  0.2763 -0.1267  0.1464
28904W        W46428   8.048  15.896   1.491  0.1841 -0.1859  0.0666
28905W        W46429  13.925   5.752  13.801  0.0394  0.0034  0.1552
28906W        W46430  13.834   1.844   4.055  0.1285 -0.0416  0.2204
28907W        W46431   1.839   1.516  12.336 -0.0529  0.3443  0.2759
28908W        W46432  13.933   2.572   4.666 -0.3212  0.2067 -0.2477
28909W        W46433  12.007  15.361   0.210  0.0891 -0.2931 -0.0572
28910W        W46434   1.103   2.271   0.430  0.0255  0.2519 -0.1060
28911W        W46435  13.381   8.311   4.034  0.2731  0.2151  0.0043
28912W        W46436   5.484   1.129   3.302  0.2519 -0.1525  0.0028
28913W        W46437  11.721  13.116   0.131 -0.2580  0.1693  0.0617
28914W        W46438   8.990   3.972  17.488 -0.3577  0.2030 -0.2962
28915W        W46439  14.061   5.572  17.272  0.0607 -0.0539  0.2840
28916W        W46440   9.187  15.234  17.187  0.0438  0.2473  0.0751
28917W        W46441  12.561  11.209   4.824 -0.0170 -0.0117 -0.0235
28918W        W46442  10.764   4.641  16.021  0.1772  0.0059  0.1671
28919W        W46443  16.998   5.478   5.867 -0.2119  0.0581 -0.0894
28920W        W46444   8.916  11.368  13.535  0.4178 -0.3749  0.4234
28921W        W46445   1.628   8.541   2.265 -0.1500 -0.3191  0.0176
28922W        W46446   6.969  15.760  17.161  0.0750  0.0601  0.0213
28923W        W46447   9.696   9.932   1.132  0.1676  0.0822 -0.0133
28924W        W46448   4.154  12.692   5.123 -0.0314  0.0755  0.1498
28925W        W46449  11.387  16.704   4.484 -0.1685 -0.0371  0.3309
28926W        W46450  16.337  16.944  14.229 -0.2420 -0.0006  0.3444
28927W        W46451  13.047   8.183   4.379 -0.5043  0.0530  0.2784
28928W        W46452  15.504   5.409   5.790 -0.1586  0.0568  0.0303
28929W        W46453  13.649   8.135   2.734  0.1375  0.0001 -0.1675
28930W        W46454  13.382   4.738  16.885 -0.1448 -0.2456  0.0634
28931W        W46455   8.179   3.558   1.774  0.3524  0.0682  0.2348
28932W        W46456  15.659  14.934  12.954 -0.2129 -0.4082  0.2666
28933W        W46457  16.825   6.337  13.530  0.0886  0.1431 -0.2103
28934W        W46458   1.684  12.463   1.028 -0.3814 -0.0157  0.2503
28935W        W46459  10.451   6.979  16.605 -0.0134  0.0227 -0.1102
28936W        W46460   0.883  11.229  16.406  0.0740 -0.1274 -0.3211
28937W        W46461  12.101   1.053   5.304  0.0278  0.0165  0.0694
28938W        W46462  16.169  10.760  17.129  0.0817 -0.2675 -0.3692
28939W        W46463   9.682   7.179   4.469 -0.1138  0.2116 -0.0767
28940W        W46464   1.540   9.923   0.081 -0.1641  0.0577  0.2939
28941W        W46465   5.070   7.303   0.440  0.2340  0.1028  0.1311
28942W        W46466  10.488   7.868   2.825 -0.0699  0.2365 -0.2416
28943W        W46467  10.448  16.539  16.592 -0.0341  0.0411  0.2016
28944W        W46468  11.482  12.862   5.274  0.1306 -0.1479  0.0167
28945W        W46469  12.769  10.004   4.151 -0.1927 -0.1896  0.0506
28946W        W46470   4.376   7.973   3.371  0.2880 -0.1667 -0.0082
28947W        W46471   4.121   8.275  17.075 -0.0566 -0.0326 -0.2009
28948W        W46472  14.965   2.949   1.552  0.1568  0.1820 -0.1697
28949W        W46473   5.424   2.010   1.077 -0.0226  0.3199 -0.0861
28950W        W46474   8.552  16.188   2.772 -0.1720 -0.0051  0.1481
28951W        W46475   2.812   8.030  14.543  0.0449  0.1430  0.3202
28952W        W46476   3.486  16.363  16.130  0.0691  0.0771  0.1398
28953W        W46477  15.874   4.930   2.682 -0.1526 -0.0441 -0.2091
28954W        W46478   4.546  12.290   5.066  0.0720 -0.4652 -0.0339
28955W        W46479   1.963   0.192   1.256 -0.2424  0.0250  0.1486
28956W        W46480  13.301   5.020   2.797  0.0745  0.1392 -0.3493
28957W        W46481  12.006   7.342  16.380 -0.2613  0.0923 -0.0817
28958W        W46482   7.686   8.574   1.377  0.2089 -0.1283 -0.1493
28959W        W46483   0.839  12.073   5.069 -0.0243  0.0341  0.1905
28960W        W46484   3.525   4.605   5.538  0.0301 -0.0923  0.0532
28961W        W46485   0.533   0.169   1.033 -0.1503  0.2028 -0.1427
28962W        W46486  15.268   0.941  12.469 -0.1547 -0.1384  0.1321
28963W        W46487  10.325   2.116  15.695  0.2139 -0.0439 -0.0661
28964W        W46488   9.928   1.098   4.837 -0.0689  0.1030 -0.0650
28965W        W46489   4.176  14.965   2.609  0.2001  0.3982 -0.2048
28966W        W46490  17.108   4.032  13.012 -0.0043  0.2962  0.2172
28967W        W46491   2.196  13.695   3.174  0.0723  0.0343 -0.1686
28968W        W46492   4.486   2.722   0.849  0.3077  0.1962 -0.2117
28969W        W46493  14.775   8.641  13.603  0.0750  0.1610 -0.0296
28970W        W46494  16.932   4.573  16.988  0.1425  0.0239 -0.5044
28971W        W46495  10.806  11.708   4.727 -0.3014  0.0647 -0.1621
28972W        W46496   0.245  15.913   2.363  0.1341 -0.0905  0.0532
28973W        W46497   3.176  11.544   2.954 -0.3351 -0.1999  0.0889
28974W        W46498  11.252   1.817   3.749  0.1945 -0.0693 -0.3050
28975W        W46499  16.095   8.256  12.284  0.0430  0.2169 -0.1662
28976W        W46500  13.012   5.115   2.433 -0.0171  0.0669  0.0619
28977W        W46501  10.953   3.264  15.718  0.1328  0.2533 -0.3472
28978W        W46502   2.520   2.227   1.818  0.2619 -0.1687  0.2344
28979W        W46503   4.193   6.710  13.311  0.1806 -0.1303 -0.1596
28980W        W46504  13.133  16.004  12.991 -0.0951  0.1142 -0.2126
28981W        W46505   2.871   2.895  15.190  0.0759  0.0091 -0.1965
28982W        W46506   7.113  12.222  16.444 -0.3990 -0.1026 -0.2313
28983W        W46507  15.224  15.329  12.822 -0.2525 -0.0372 -0.0675
28984W        W46508  11.998  13.488  13.741 -0.0961 -0.2098  0.2838
28985W        W46509  12.178  11.268  17.477  0.1789 -0.2613 -0.0054
28986W        W46510  11.042   5.698  16.111  0.0378 -0.2297 -0.0552
28987W        W46511  10.810  13.472  17.675 -0.1227  0.0527  0.1009
28988W        W46512  16.211  11.863  13.371 -0.2071  0.2567  0.0337
28989W        W46513  10.788   1.738   4.261 -0.1520 -0.0468 -0.2203
28990W        W46514   6.014   9.353   2.683 -0.1843  0.0993  0.0429
28991W        W46515   9.597  12.986  12.640  0.2539 -0.2596 -0.3054
28992W        W46516   5.180  14.005  15.661 -0.0078  0.2916  0.4501
28993W        W46517   8.570   5.893   1.742  0.0972  0.1629  0.1558
28994W        W46518   3.754   2.531   1.104 -0.2240  0.3401  0.0316
28995W        W46519   8.858   9.700  15.565  0.0803  0.3521  0.1170
28996W        W46520  13.374  16.206   1.669  0.0534 -0.3360  0.0985
28997W        W46521   9.503   9.008   2.776 -0.3835  0.1110 -0.2768
28998W        W46522  10.340   1.012   2.322 -0.1741  0.0978 -0.2101
28999W        W46523   4.762  13.615   5.138  0.2399 -0.0411 -0.0362
29000W        W46524   0.073  10.022  15.760 -0.2462 -0.2513  0.2971
29001W        W46525   4.979  15.977   1.868  0.0539  0.1338 -0.1438
29002W        W46526   9.418  12.206  16.305  0.0186 -0.0689  0.1029
29003W        W46527  14.742  16.507   1.071 -0.0502 -0.0171 -0.0750
29004W        W46528  16.272   0.507  14.699  0.0687 -0.2281  0.1963
29005W        W46529   2.249   7.841  16.346 -0.0169 -0.1210  0.0969
29006W        W46530   1.115  15.929  17.322  0.0705  0.0870 -0.0429
29007W        W46531   6.199   3.016   0.481  0.1998  0.0809  0.2500
29008W        W46532  15.751   1.024  12.859 -0.0793 -0.1353  0.0086
29009W        W46533  10.513   2.884   1.315 -0.0134 -0.2456  0.1818
29010W        W46534   8.317  10.168  12.857 -0.2156 -0.1802  0.0462
29011W        W46535   9.999  11.891   4.730  0.0138 -0.3131 -0.1589
29012W        W46536   6.802  16.582   4.878 -0.0704 -0.0486 -0.0684
29013W        W46537   6.855   8.917   5.728 -0.3509  0.0070  0.0716
29014W        W46538  16.017  15.816   1.005 -0.2116  0.1699  0.1372
29015W        W46539  14.160  15.592   1.276  0.1961  0.2816  0.0952
29016W        W46540  14.247  12.320  15.383  0.2043 -0.3883  0.0807
29017W        W46541  13.114   6.879   5.790  0.3050 -0.4006  0.2373
29018W        W46542   5.021  15.550  15.853  0.0203  0.0995  0.3496
29019W        W46543   0.361  15.394  16.298  0.2796 -0.1100  0.0692
29020W        W46544  14.449   2.853  17.642  0.1893  0.2175 -0.0312
29021W        W46545   3.342   0.070  15.188  0.2365  0.1515 -0.0130
29022W        W46546   6.877   3.436   2.365  0.2124 -0.0640 -0.0388
29023W        W46547  10.273  10.234  12.732  0.2711 -0.0622  0.1178
29024W        W46548   1.677  13.257   1.453  0.0616 -0.1200 -0.1588
29025W        W46549  10.190   2.979  16.081 -0.0121  0.0628  0.0663
29026W        W46550  12.687  14.357  14.610  0.0050  0.2566 -0.3056
29027W        W46551   7.088   2.543   3.994  0.3846 -0.1273  0.2181
29028W        W46552   6.824   7.612  16.833  0.0585 -0.0410  0.1197
29029W        W46553   6.414   4.359   4.759  0.0957  0.1782  0.2047
29030W        W46554  10.920   6.742  13.209  0.1794  0.1310  0.0017
29031W        W46555  16.272  11.987   3.681 -0.0221 -0.0176  0.0770
29032W        W46556   4.747  12.960   4.149  0.1592  0.0773  0.1154
29033W        W46557   0.921   3.519  17.028  0.0896 -0.0038  0.2437
29034W        W46558  11.895  15.926   0.391  0.2746 -0.1236  0.2769
29035W        W46559   6.291   1.893  13.954  0.0858 -0.2211  0.0696
29036W        W46560   5.045   3.064  16.858  0.0393 -0.3055 -0.1553
29037W        W46561  15.185  16.899  14.285 -0.2858  0.0483  0.1569
29038W        W46562   5.033  13.824  16.096 -0.0535 -0.0860 -0.1382
29039W        W46563  16.687   4.066   3.464  0.1090  0.2947 -0.0034
29040W        W46564  16.086  15.043   2.710 -0.0377 -0.1423  0.0828
29041W        W46565   0.534  11.501  12.071 -0.1365  0.3092 -0.1634
29042W        W46566   5.596  17.132   0.045  0.0689  0.0111 -0.1206
29043W        W46567   7.695  11.695  15.913  0.0049 -0.0102  0.2016
29044W        W46568   4.873  15.231   1.964  0.3725  0.0791 -0.2918
29045W        W46569   6.297   4.066  13.429  0.0449 -0.1122  0.1803
29046W        W46570   9.202   7.581  16.250 -0.0141  0.1010 -0.1272
29047W        W46571   6.399   2.940   5.226  0.1747  0.3606 -0.2523
29048W        W46572   7.394   4.390   4.580  0.1014  0.0482 -0.0970
29049W        W46573   3.279  14.108  14.507 -0.1000  0.3095  0.1485
29050W        W46574   4.684  16.692   2.443 -0.1428 -0.0416 -0.1732
29051W        W46575  11.587   9.657   1.851 -0.1156 -0.1957 -0.0655
29052W        W46576  11.819  10.283  12.862  0.1001 -0.0237  0.1818
29053W        W46577   8.955  16.833  16.126  0.2350  0.2643  0.1126
29054W        W46578   5.086   9.894  13.303 -0.1823  0.1075  0.4590
29055W        W46579  17.065   6.714  17.033  0.0994 -0.2772  0.1553
29056W        W46580  13.277   7.290  14.830  0.1718  0.3661  0.1445
29057W        W46581  10.862  12.933  13.262  0.0601  0.1617  0.0173
29058W        W46582  11.393   4.933  12.410 -0.0516  0.0749  0.0216
29059W        W46583   3.141  15.692  13.645  0.2112  0.0346  0.0073
29060W        W46584  13.308  16.170  13.537 -0.0015  0.0967  0.2110
29061W        W46585  10.191  10.098   2.045  0.1200 -0.0560 -0.0234
29062W        W46586   5.413  16.499   0.774  0.1712 -0.0968  0.0139
29063W        W46587  10.390   1.797  13.579 -0.2013  0.1598 -0.1692
29064W        W46588  16.587  14.816  16.563 -0.0122 -0.1299 -0.3411
29065W        W46589  12.921   6.565  13.144  0.0959 -0.0019 -0.2283
29066W        W46590   8.260   3.062  15.694  0.0309  0.0913  0.5135
29067W        W46591  11.963  12.117   0.450 -0.0010 -0.0432  0.1293
29068W        W46592  16.283  11.710   2.860  0.2316  0.2401 -0.0186
29069W        W46593   7.360   6.505   1.315 -0.0347 -0.1623  0.0602
29070W        W46594  15.031  12.560   2.761 -0.2323  0.2134 -0.2389
29071W        W46595   5.071   2.881   1.027  0.0311 -0.2272 -0.2345
29072W        W46596   8.116  11.684  13.400 -0.1698  0.1951  0.0829
29073W        W46597   8.704   0.096  14.286 -0.2318 -0.1295  0.1188
29074W        W46598  15.577   8.581   2.145 -0.1354  0.0987  0.2133
29075W        W46599   5.028   8.240  14.277  0.1118 -0.0057  0.2917
29076W        W46600   1.038  15.109  17.092 -0.2755  0.2331 -0.3868
29077W        W46601   1.607   4.318   4.641 -0.0563  0.1147  0.0846
29078W        W46602  13.032  15.144  13.243 -0.1630  0.2302 -0.2497
29079W        W46603   8.896   6.227   1.952  0.0938  0.1028  0.3159
29080W        W46604  11.612  10.400  17.241  0.1556 -0.0118 -0.2804
29081W        W46605   0.483   0.666  14.235  0.1662  0.1692 -0.1519
29082W        W46606   3.958  15.892  16.836  0.1200 -0.0247  0.1521
29083W        W46607   2.890   1.517  16.852 -0.0817  0.1803  0.0064
29084W        W46608  13.605  10.589   4.234 -0.3511 -0.3194 -0.0239
29085W        W46609  11.664  13.293   1.096 -0.0360  0.3228  0.0087
29086W        W46610   6.587   2.132   4.146 -0.1026  0.1575  0.2916
29087W        W46611   0.455   9.784  17.594  0.3406  0.0894  0.0718
29088W        W46612   9.379  12.339  14.194 -0.0907 -0.1957 -0.2110
29089W        W46613  10.350  16.450   1.883 -0.1693  0.2940  0.0650
29090W        W46614  17.130   5.217  13.728 -0.2150 -0.2213 -0.2516
29091W        W46615   5.683   7.234   2.259  0.2195  0.0461 -0.0033
29092W        W46616   7.752   3.484   6.193  0.1510  0.2644 -0.0224
29093W        W46617   4.435   9.773  15.842 -0.0041 -0.0152  0.2424
29094W        W46618  15.634  16.877  16.749 -0.2944 -0.0484  0.2089
29095W        W46619   9.669  10.829   0.604 -0.3284  0.2937 -0.0043
29096W        W46620   0.308  16.116  13.988 -0.1588 -0.0303 -0.0656
29097W        W46621   5.393  13.579  15.648 -0.0730  0.2066  0.1739
29098W        W46622   7.380   3.314   0.657 -0.0657 -0.3673 -0.2437
29099W        W46623  15.546   7.624  14.112  0.1322  0.1365 -0.1268
29100W        W46624  11.760   4.026   0.826  0.2418  0.1432  0.1841
29101W        W46625  13.952   5.039  14.275  0.0947 -0.1696 -0.1425
29102W        W46626   7.439   5.519   2.458  0.0219  0.0329 -0.0919
29103W        W46627  13.365   7.486   4.533  0.3703 -0.4160  0.1403
29104W        W46628  13.532   6.893   2.350  0.3890 -0.1097  0.0871
29105W        W46629   7.374  12.145   1.694  0.2759  0.0497 -0.0376
29106W        W46630  14.494  15.413  15.854  0.0194 -0.2545 -0.1693
29107W        W46631  14.028   1.130   2.697 -0.1073  0.0404  0.1329
29108W        W46632  16.184   4.373   0.778  0.3466  0.0078 -0.0165
29109W        W46633   5.416   4.872  13.994  0.1434  0.0889  0.1859
29110W        W46634  14.594  16.697   2.370  0.0057  0.1111 -0.0375
29111W        W46635   5.541   5.219   2.695 -0.2252  0.2876 -0.2473
29112W        W46636   1.871  11.127  13.638  0.1382  0.1629  0.1415
29113W        W46637  13.684   3.580   2.130  0.1090  0.0073 -0.0605
29114W        W46638  10.004  16.799   2.038  0.1760 -0.1163  0.1770
29115W        W46639  16.302  13.780  15.337 -0.0489  0.0666  0.1853
29116W        W46640   5.480   9.591  16.791 -0.0567  0.0383  0.2727
29117W        W46641   3.933   3.667   5.362  0.1820 -0.1996  0.0460
29118W        W46642   4.386  14.358  14.438 -0.6725  0.0631  0.2230
29119W        W46643   9.558  10.561  17.021  0.0484 -0.0709  0.2073
29120W        W46644   8.742  10.803   3.810  0.0958 -0.3321 -0.0828
29121W        W46645  14.604  10.740  16.223 -0.1533  0.1208  0.1572
29122W        W46646   3.389   2.759   3.365  0.0640 -0.1440  0.0429
29123W        W46647   8.982  16.185   4.261 -0.0673  0.2787 -0.0559
29124W        W46648   8.947  15.458  17.693  0.0256  0.1924  0.0117
29125W        W46649   6.500   3.679  16.758  0.0913  0.0586  0.2096
29126W        W46650  10.462  11.393  13.642  0.0209 -0.1102 -0.3554
29127W        W46651   0.766  15.228   5.611 -0.1768 -0.0280  0.0711
29128W        W46652   4.353  16.089   3.470 -0.0413 -0.0154 -0.0095
29129W        W46653  10.136  10.035   0.925 -0.1641  0.1075  0.3099
29130W        W46654  10.762   2.019   5.195 -0.0165 -0.2739  0.4834
29131W        W46655   2.246   8.144  12.575  0.0761 -0.0193  0.1063
29132W        W46656  11.287   4.044   0.648 -0.1750 -0.0165 -0.0337
29133W        W46657   3.296   1.646   1.757 -0.2160 -0.1181 -0.1776
29134W        W46658  12.025  11.303   4.117  0.2097 -0.3577  0.0833
29135W        W46659  12.928   2.285   2.023  0.0272  0.1271  0.1170
29136W        W46660   5.645   1.983  13.826  0.2545 -0.0643 -0.1780
29137W        W46661   0.165  12.905   4.535  0.1289 -0.0821 -0.0779
29138W        W46662   0.878   5.295  15.003 -0.0170  0.1044 -0.0940
29139W        W46663   8.754   5.121  13.559  0.0845  0.2202  0.0839
29140W        W46664   9.570   2.228   1.558 -0.1886 -0.3892  0.0230
29141W        W46665   8.268   3.828   2.211  0.0363  0.0159  0.0081
29142W        W46666  14.427   7.127   1.829  0.0522  0.1821  0.1688
29143W        W46667   2.983  10.061  15.345  0.3027 -0.0359 -0.0569
29144W        W46668   9.751   4.543  13.809 -0.1160  0.2838 -0.1726
29145W        W46669   1.721  12.317   5.444 -0.0427 -0.2523 -0.0763
29146W        W46670   2.833  14.960  12.183 -0.2318  0.0836 -0.0342
29147W        W46671   5.370   4.329   0.124  0.0200  0.0280 -0.0265
29148W        W46672  16.749   7.006   6.079  0.3192 -0.1166  0.3219
29149W        W46673  12.285   4.320  13.841  0.1717 -0.0882  0.0122
29150W        W46674   8.736  13.791   4.137 -0.2127 -0.3428  0.1407
29151W        W46675  14.311   9.740  12.847 -0.0316 -0.0880  0.0909
29152W        W46676  12.751   8.217  17.453 -0.5056  0.2489  0.1103
29153W        W46677   7.865   0.520  15.809 -0.0859  0.0197 -0.0347
29154W        W46678   7.508  13.704  15.424 -0.0096  0.0862 -0.2390
29155W        W46679  10.351   8.037   3.337  0.2005 -0.0498  0.1748
29156W        W46680   5.111   7.874   4.125 -0.1693  0.2774  0.4350
29157W        W46681  14.546   8.484  12.978  0.4148 -0.1747  0.2184
29158W        W46682   1.040  16.768   3.329  0.1836 -0.0223  0.0870
29159W        W46683   4.076   7.739  13.297  0.0934  0.3083  0.1843
29160W        W46684  15.791  11.092   1.573  0.0753  0.0197 -0.2349
29161W        W46685  12.063  14.554   3.438 -0.0935 -0.2234 -0.2917
29162W        W46686  12.976  13.932   3.941  0.1481  0.5349  0.0291
29163W        W46687  13.472   5.081  14.910 -0.0800 -0.2142  0.2184
29164W        W46688   4.979   0.617  15.104 -0.0230 -0.0342 -0.0960
29165W        W46689   4.067  11.741  15.249  0.0041  0.0673 -0.2063
29166W        W46690   7.028  11.563  12.159  0.1993 -0.0173 -0.0605
29167W        W46691   8.560   9.514   5.151  0.1219 -0.0118 -0.1039
29168W        W46692   3.084   2.189   1.685  0.1568 -0.1560  0.1596
29169W        W46693  10.695   1.564   0.951 -0.1732  0.0069  0.0123
29170W        W46694  13.863   4.452  14.103  0.1660 -0.0939 -0.1838
29171W        W46695   0.514  13.134  13.743  0.1171 -0.3557 -0.0441
29172W        W46696  10.465  17.037   3.334 -0.2250  0.2324  0.2237
29173W        W46697   7.987   2.812   3.009 -0.1388 -0.0481 -0.1079
29174W        W46698   1.017   5.027   1.326  0.2116  0.2934  0.0926
29175W        W46699   6.477   9.350   1.378  0.0321 -0.1075 -0.2622
29176W        W46700   9.364   9.509  16.361 -0.1119 -0.1667 -0.1763
29177W        W46701  13.951   3.112  17.492  0.0557 -0.0548  0.4096
29178W        W46702   7.150   2.451  14.096  0.1237  0.1382  0.1540
29179W        W46703   4.994   4.408  12.909  0.3314 -0.1335  0.1860
29180W        W46704   2.257   2.197   1.357 -0.1569  0.1480 -0.1066
29181W        W46705   8.545   0.726  16.326  0.1603 -0.1463 -0.3934
29182W        W46706   1.535  14.299   5.377  0.0271  0.3307  0.0879
29183W        W46707   0.929  11.230   5.061  0.0248 -0.0254 -0.0740
29184W        W46708  15.151   2.939   6.020  0.1543  0.0534 -0.0360
29185W        W46709   4.567   6.903   0.551  0.0455  0.2906  0.0699
29186W        W46710   6.271  17.030  15.942 -0.2534 -0.1908  0.0512
29187W        W46711   4.929  12.612   5.395  0.0250  0.4660  0.1272
29188W        W46712   4.243  12.361  17.254 -0.1578  0.0084  0.0962
29189W        W46713  16.588   4.005   0.407  0.0538 -0.2746  0.0625
29190W        W46714  11.336  10.144  12.114 -0.1687  0.0399 -0.0034
29191W        W46715   8.585   2.346  12.286  0.1649 -0.3482 -0.1823
29192W        W46716  16.014   6.369  15.357  0.0526  0.3119  0.0332
29193W        W46717  15.457  13.798  16.267 -0.1310  0.0405  0.0013
29194W        W46718   2.657  16.138   5.296 -0.0499 -0.1555  0.0809
29195W        W46719  11.422  10.233  17.710 -0.1690 -0.3376  0.2527
29196W        W46720   3.256   6.581  15.129 -0.2056  0.0738 -0.1276
29197W        W46721   8.782   9.232  14.042 -0.0661 -0.1403  0.0133
29198W        W46722   0.649   4.677  13.398 -0.2849  0.0030  0.1023
29199W        W46723   1.302   2.130  12.484  0.0288 -0.0550 -0.1250
29200W        W46724  13.353   6.070  13.738  0.1139  0.1802  0.1001
29201W        W46725  13.152  13.143   0.721 -0.3382  0.0776  0.1555
29202W        W46726  11.731   7.772  12.601 -0.2027  0.0843 -0.1427
29203W        W46727  12.190   6.699   0.872  0.0911 -0.0100 -0.0844
29204W        W46728   4.044  10.554   1.412 -0.0959  0.1848  0.1649
29205W        W46729   7.576   6.316  14.243  0.5145  0.0163 -0.5556
29206W        W46730  11.400   1.188  12.835  0.0010  0.0376  0.0125
29207W        W46731   7.627   4.225   1.338  0.1000  0.0592  0.1157
29208W        W46732   2.174  14.010  15.675  0.1467  0.2079  0.0812
29209W        W46733   4.030  14.148  12.351 -0.3240 -0.1109  0.1823
29210W        W46734   0.962  12.249  13.106 -0.0851  0.2276  0.1589
29211W        W46735  12.145   4.142  17.584  0.1377 -0.0821  0.2042
29212W        W46736   9.325   6.949   4.723  0.2881 -0.3500 -0.3487
29213W        W46737  15.933  14.972  14.713  0.1892 -0.0732  0.1364
29214W        W46738  10.817  11.588   3.233  0.2858 -0.2289 -0.1382
29215W        W46739   6.630   6.440  15.395 -0.0136 -0.0891  0.0083
29216W        W46740   4.808   8.575  15.122 -0.0326  0.1785 -0.1178
29217W        W46741  13.396   7.673  14.014 -0.0296 -0.0122  0.0798
29218W        W46742  11.806  15.780   3.295 -0.1651  0.0886  0.1982
29219W        W46743   4.640   5.203  15.689 -0.1062  0.0715 -0.4165
29220W        W46744   9.462   8.928   3.688 -0.2461  0.0480  0.1019
29221W        W46745   8.625  15.371   4.112 -0.0315 -0.1086 -0.0213
29222W        W46746  12.548   6.574  15.690 -0.0637  0.0595  0.1252
29223W        W46747  15.041   4.041   2.665  0.1357  0.1494  0.0261
29224W        W46748   0.144   3.473   4.593 -0.0835 -0.3186  0.3144
29225W        W46749  11.862  15.654   5.258 -0.1426  0.1131  0.0240
29226W        W46750   4.184  11.778   2.307  0.0509  0.0512  0.0207
29227W        W46751   5.526   1.156   2.745  0.3713  0.1783  0.0452
29228W        W46752  13.853  12.257  14.964 -0.2008  0.0150  0.1949
29229W        W46753   0.758  10.454   6.238 -0.0774 -0.0275 -0.0382
29230W        W46754  14.732  10.813  17.452 -0.0192  0.0972 -0.0604
29231W        W46755  11.439   6.089   3.625 -0.1568 -0.2369 -0.0272
29232W        W46756   8.688  15.317   1.070 -0.1032  0.0967 -0.1057
29233W        W46757   5.420   0.325  13.540 -0.0619 -0.2848 -0.1767
29234W        W46758   0.318   4.161  14.505  0.0971 -0.2152 -0.2565
29235W        W46759  15.412   5.640  16.954 -0.1016  0.2184 -0.3150
29236W        W46760   4.120   3.944   0.984  0.0725 -0.0324  0.1504
29237W        W46761  12.776   6.355  14.732 -0.0636 -0.3070  0.1801
29238W        W46762  14.120  11.629   0.043  0.0378  0.2315 -0.0399
29239W        W46763  12.015   7.355   3.766 -0.2324  0.3316  0.0705
29240W        W46764   8.535  15.478  16.707  0.2479  0.2015 -0.1737
29241W        W46765   9.360   2.652  15.874  0.0132 -0.1765 -0.1071
29242W        W46766   9.057  11.219  16.174  0.0500  0.0741 -0.0187
29243W        W46767  15.914  15.472  14.521  0.2009  0.2089  0.3944
29244W        W46768  14.964   1.504  17.277 -0.0084 -0.2425  0.1588
29245W        W46769   7.191  13.997  15.000  0.0877  0.0113  0.3322
29246W        W46770   7.862  13.651   1.478 -0.2469 -0.1180  0.1192
29247W        W46771   6.059   1.327  13.337  0.0364 -0.0038  0.0423
29248W        W46772  17.107   4.389   3.505  0.0547  0.1032 -0.1362
29249W        W46773   6.927  16.057   1.866 -0.2167  0.2210 -0.0167
29250W        W46774  12.803   0.294   2.638  0.0333  0.0265  0.1574
29251W        W46775   4.422   4.045   1.662 -0.0047 -0.0212  0.1367
29252W        W46776  10.715   3.582  12.955  0.0078 -0.1792 -0.1073
29253W        W46777   9.198   9.076  15.145  0.1798 -0.1051  0.1618
29254W        W46778   5.042   5.421  14.262 -0.1801  0.2674  0.5909
29255W        W46779  11.706   2.891  12.945 -0.1367 -0.0621  0.1472
29256W        W46780   4.609  15.155   2.968 -0.0101  0.1162  0.0054
29257W        W46781  11.597   0.630  12.567 -0.1481 -0.0546 -0.4990
29258W        W46782  17.125  13.315  14.044 -0.0853  0.0332 -0.1327
29259W        W46783  17.018  12.460   0.872 -0.2914  0.2125 -0.0006
29260W        W46784  13.245  14.066   0.557 -0.0317 -0.1317 -0.0554
29261W        W46785  15.514   0.156  17.316 -0.1954  0.0677 -0.0472
29262W        W46786   7.577  14.028  15.781  0.1861 -0.0129  0.0933
29263W        W46787  15.495   8.970   4.580 -0.3816 -0.0473 -0.1817
29264W        W46788  15.066  14.029   1.790 -0.0531 -0.1387  0.1868
29265W        W46789  16.383  10.578  17.640 -0.2478  0.0039 -0.0224
29266W        W46790  12.055   1.924   5.423  0.4033  0.2402  0.1630
29267W        W46791  10.855  14.536   5.178  0.0977  0.0930 -0.1034
29268W        W46792   4.935   8.884  15.600 -0.1229  0.1758 -0.0196
29269W        W46793  12.546  11.718  15.173 -0.1190 -0.3033  0.0056
29270W        W46794   5.330  15.325   4.061  0.0101 -0.1367  0.0452
29271W        W46795   9.399  10.844   5.079 -0.1792 -0.0393 -0.0996
29272W        W46796   4.981  11.542   3.416 -0.0221  0.0532  0.1441
29273W        W46797   4.748   4.885   0.416  0.1498  0.0505 -0.3484
29274W        W46798  13.539  10.245  13.569 -0.1218  0.1506  0.0385
29275W        W46799  14.935   3.577  16.065 -0.2562  0.0578 -0.2099
29276W        W46800   2.956   5.990   3.149 -0.3075 -0.1774  0.1777
29277W        W46801  11.569  12.435  17.130 -0.2752 -0.1465  0.2193
29278W        W46802  17.095   9.465  14.025 -0.3453 -0.0508  0.0890
29279W        W46803  10.272   4.888  12.777 -0.1445 -0.0295  0.1238
29280W        W46804  12.714   4.036   0.862 -0.0490 -0.0740 -0.3152
29281W        W46805  12.116  15.298  14.261 -0.0190  0.2876  0.0727
29282W        W46806   3.336   3.462   2.122 -0.0153 -0.0877  0.2923
29283W        W46807   0.847  16.338  13.702 -0.2904  0.1192  0.0568
29284W        W46808   3.419  13.296   4.756 -0.0991 -0.1110  0.0304
29285W        W46809  14.535   2.608  13.624  0.0035  0.1312 -0.2178
29286W        W46810   8.530   4.803   1.909  0.1005  0.5552 -0.0951
29287W        W46811  16.536   3.872  13.051  0.0219  0.0840 -0.0043
29288W        W46812   7.831   8.460   4.796 -0.0545 -0.1952 -0.1529
29289W        W46813   7.471  14.549  11.904  0.2373  0.3769  0.0877
29290W        W46814   4.972   1.927  15.786  0.1270  0.0407 -0.0331
29291W        W46815   2.240  16.363   2.933  0.0685  0.1280  0.1327
29292W        W46816   3.773  12.117   2.486 -0.0159  0.0475  0.3547
29293W        W46817  13.038  13.633   0.465  0.2256 -0.3834  0.0440
29294W        W46818  17.073  14.737   4.645  0.4386 -0.2047  0.0759
29295W        W46819   7.304   0.858   1.793  0.2342 -0.1138 -0.0452
29296W        W46820   4.246   8.918   5.206  0.1638  0.0031 -0.0120
29297W        W46821   1.082   6.189   1.320 -0.0533 -0.0981  0.0358
29298W        W46822   1.406   4.079   3.068  0.0045 -0.2511 -0.2564
29299W        W46823   1.141  14.612   5.379  0.2709 -0.0606  0.2194
29300W        W46824   1.869  16.639   2.371  0.2010  0.2237  0.0168
29301W        W46825   3.663   6.087   1.248 -0.0922  0.4515 -0.1501
29302W        W46826   6.004  15.387   2.790 -0.1995  0.0344 -0.2193
29303W        W46827   1.188   4.028  17.048  0.0736 -0.0577 -0.1844
29304W        W46828   9.886  12.617  14.480  0.0611 -0.1523  0.1865
29305W        W46829  11.086  13.392   4.549  0.0414  0.0430 -0.0647
29306W        W46830  13.306  10.319  16.041 -0.0458  0.1895 -0.1514
29307W        W46831  15.631  15.986  16.209 -0.1310  0.2062 -0.0686
29308W        W46832   5.385   9.931  12.705  0.0028 -0.2079 -0.0671
29309W        W46833  11.798   5.897  17.392 -0.0183 -0.1816 -0.0571
29310W        W46834  15.624   0.317   2.717  0.1655 -0.0051  0.2481
29311W        W46835  13.149   3.485  13.742  0.0927  0.0680  0.1156
29312W        W46836   3.199  12.183   2.672 -0.1162 -0.0324 -0.0345
29313W        W46837   6.242   0.151  13.450  0.2519 -0.1499 -0.2008
29314W        W46838   5.216  15.919  16.429 -0.1358  0.4718 -0.0660
29315W        W46839   7.724   0.514  14.392  0.0386 -0.0754 -0.0937
29316W        W46840  13.879  15.776  17.460 -0.0221  0.2691 -0.4126
29317W        W46841   4.202   6.955  14.471 -0.0071  0.1756 -0.0643
29318W        W46842  16.509  13.366  15.613 -0.3105  0.0986  0.0353
29319W        W46843   9.333   1.910  16.735  0.1362  0.1323 -0.4902
29320W        W46844   4.639  16.331  14.645 -0.0393  0.2508  0.2355
29321W        W46845   3.261   0.965   2.283 -0.0775  0.0357  0.0451
29322W        W46846   1.475   7.504   3.767 -0.1741  0.1610 -0.0996
29323W        W46847  16.395  15.925  13.405 -0.0519 -0.1159  0.0294
29324W        W46848  10.814  13.407  16.899 -0.1133 -0.1330  0.0217
29325W        W46849   3.346   5.752   0.820 -0.0826  0.2403  0.1629
29326W        W46850   9.381   5.214  12.747 -0.0477  0.0749 -0.3281
29327W        W46851   7.993   0.876   1.587  0.0487 -0.0332 -0.0454
29328W        W46852  11.111  15.671  17.191  0.2220  0.0467 -0.0981
29329W        W46853   7.805   9.849  16.141 -0.0430 -0.0580  0.1797
29330W        W46854   9.182  12.959   3.802  0.2241  0.1000 -0.1689
29331W        W46855   7.825  15.128   3.695  0.0551  0.0027 -0.2005
29332W        W46856  16.472  14.075  17.345  0.1040  0.0368 -0.2599
29333W        W46857   7.774   5.098  12.517  0.1753 -0.0056  0.1308
29334W        W46858   0.904  13.089   3.252 -0.1359 -0.0227 -0.0320
29335W        W46859  11.759   4.150   1.320 -0.1094 -0.1948 -0.1288
29336W        W46860   8.668  13.078   4.671  0.0854 -0.0262  0.0686
29337W        W46861   6.357  10.181  17.325  0.1969 -0.0442 -0.0055
29338W        W46862   3.556   6.131  13.502 -0.1911  0.0959  0.3114
29339W        W46863  13.519   3.576   1.492 -0.0470 -0.1670  0.0815
29340W        W46864  15.603  13.113   4.113 -0.1638 -0.3511 -0.2096
29341W        W46865   4.730   8.185   4.231 -0.0867  0.0658  0.1138
29342W        W46866  15.938   7.679   4.939  0.1377  0.0251  0.0035
29343W        W46867  11.060   8.654   5.178 -0.1333  0.0288  0.2229
29344W        W46868  13.435   9.421   5.668  0.1542 -0.3179 -0.0945
29345W        W46869   3.793   0.764   2.998 -0.0416 -0.0813  0.0430
29346W        W46870  15.423   5.061  14.462  0.1048 -0.0736  0.0462
29347W        W46871   2.261  14.237  16.910 -0.0957  0.1139  0.0312
29348W        W46872   1.339   7.117   3.419  0.2516  0.0074 -0.2750
29349W        W46873   3.947   5.551  16.999 -0.0948  0.0244 -0.0935
29350W        W46874   9.231  11.554   4.382 -0.0216 -0.1559 -0.0586
29351W        W46875   3.513  16.999   0.069  0.1451  0.2990  0.0816
29352W        W46876   0.206   3.902  17.369 -0.3278  0.1782 -0.2774
29353W        W46877   6.544   4.176   3.571 -0.0889  0.1419 -0.0715
29354W        W46878  13.205   4.747  14.567  0.0882  0.2307 -0.0089
29355W        W46879   3.416   5.678  15.718  0.0086  0.0637 -0.0787
29356W        W46880   6.208   5.531   5.727 -0.2202 -0.0208 -0.2972
29357W        W46881   5.584   8.060   4.001 -0.1302  0.0535  0.1116
29358W        W46882  14.943  15.429  14.788 -0.1243 -0.6155 -0.2597
29359W        W46883   7.019   9.166  17.597  0.0881 -0.1018 -0.0185
29360W        W46884   0.052   8.295   4.728 -0.0495 -0.0653  0.0884
29361W        W46885   6.220  16.354  12.079 -0.3955  0.2761  0.0111
29362W        W46886  16.057   0.852   2.848  0.0334  0.2637 -0.1638
29363W        W46887   6.158   8.078  14.952  0.1047 -0.0135 -0.0389
29364W        W46888   1.362   3.639  16.262  0.1201  0.3043  0.1706
29365W        W46889  11.127  17.080  13.956 -0.1969  0.2653 -0.1121
29366W        W46890   9.703  13.607  11.988 -0.2895 -0.5046  0.0135
29367W        W46891  16.866   4.201  15.257 -0.0154 -0.1795  0.0127
29368W        W46892   6.234  15.621   0.156  0.2960 -0.2828 -0.0775
29369W        W46893  14.757  13.969   5.923 -0.2076 -0.2947  0.0311
29370W        W46894   1.186   1.579   1.223 -0.1799 -0.2665  0.4410
29371W        W46895  16.457   9.849   4.183  0.0843  0.2060  0.0288
29372W        W46896   1.547   6.031  14.898 -0.1442 -0.0050 -0.0871
29373W        W46897  12.077   8.872   5.556  0.3181 -0.3145  0.2642
29374W        W46898  11.837  15.736  15.744  0.2237  0.2202 -0.1876
29375W        W46899  16.144   3.251  13.302 -0.1806  0.0922  0.1412
29376W        W46900  10.274  13.922   4.312 -0.1017  0.0937  0.0845
29377W        W46901   1.949  11.965  15.870  0.1132  0.0486 -0.2308
29378W        W46902   2.488   5.910   5.588  0.1060 -0.0205  0.1275
29379W        W46903  13.898   1.308   3.993 -0.0677 -0.1977  0.1558
29380W        W46904   9.498   0.162  14.760  0.1200  0.0544  0.0118
29381W        W46905   6.729  16.177  17.552  0.1336  0.1688  0.2883
29382W        W46906  12.750  10.490   1.245  0.1973 -0.4612  0.0914
29383W        W46907  13.140  13.181   4.395  0.0602  0.0103  0.0046
29384W        W46908  11.719  15.341   3.875 -0.0582 -0.1773 -0.1279
29385W        W46909   1.219   6.912   0.866 -0.0834  0.1779  0.0308
29386W        W46910   0.877  14.068  13.440  0.1966 -0.1993 -0.0977
29387W        W46911   9.653   1.006   3.751 -0.0905 -0.0464  0.0041
29388W        W46912   3.330   2.294  15.741 -0.0324 -0.2311  0.0643
29389W        W46913   2.340   0.056   6.434  0.1302 -0.2018 -0.3351
29390W        W46914   7.301  13.616  15.905  0.0375  0.1216  0.1407
29391W        W46915  10.613  15.408   5.315  0.2207  0.0272 -0.1485
29392W        W46916   9.457   9.581  14.851  0.1361  0.1480  0.0844
29393W        W46917   5.443   8.812  15.700 -0.0070 -0.1142 -0.1986
29394W        W46918   2.415   4.165  12.957  0.2691 -0.1478 -0.2728
29395W        W46919  12.178   1.215   2.776 -0.1004 -0.0075  0.1493
29396W        W46920   7.087  12.408  15.935  0.2569 -0.1503 -0.1358
29397W        W46921   4.218  13.726   4.843 -0.0937  0.0090 -0.2046
29398W        W46922   9.449  14.861   0.592 -0.2849  0.3052  0.1384
29399W        W46923  13.052  11.476   3.140  0.2210 -0.3086  0.2040
29400W        W46924  16.240   9.560  17.628 -0.1737 -0.1012 -0.0695
29401W        W46925   5.595  12.664  13.124 -0.1034 -0.0572  0.1817
29402W        W46926   6.189   1.782   1.611 -0.0820 -0.0161 -0.1540
29403W        W46927  15.926   6.478  14.211  0.1349 -0.1908 -0.0561
29404W        W46928   0.069   1.586   3.009  0.2009  0.2987 -0.5378
29405W        W46929  13.381  14.909  17.511 -0.2677  0.1138 -0.1092
29406W        W46930  10.400   6.993   4.868 -0.2740  0.0734 -0.2421
29407W        W46931  12.969  13.859  13.365  0.0963 -0.1501  0.0828
29408W        W46932   0.481  11.907  12.405 -0.1627 -0.2219 -0.1903
29409W        W46933   5.629   6.371  16.761  0.0523 -0.2275 -0.1205
29410W        W46934  15.845  11.397   1.973  0.3329  0.2051 -0.2459
29411W        W46935   5.405   0.426   4.234 -0.2238  0.1690 -0.2242
29412W        W46936   2.047  15.975  17.333  0.0625  0.3091 -0.2501
29413W        W46937   3.984   3.612  15.491  0.2915  0.4406  0.1632
29414W        W46938  12.221   2.141   2.860  0.3091 -0.2198  0.3801
29415W        W46939   4.355   9.185   0.880 -0.1652 -0.0106 -0.0098
29416W        W46940   1.993   6.788  15.295  0.0571  0.0195 -0.0572
29417W        W46941  14.334   1.934   2.247 -0.1892 -0.1452 -0.1359
29418W        W46942  14.217   9.702  13.708  0.2541 -0.0055  0.1949
29419W        W46943   9.167  14.228   2.761 -0.0102  0.0395  0.0050
29420W        W46944   4.930   7.515  15.229 -0.1350 -0.2883 -0.5469
29421W        W46945   1.824   5.194  13.695  0.0290 -0.2758  0.1455
29422W        W46946   5.123  10.161   3.074  0.2570  0.3714  0.2601
29423W        W46947  13.835   7.566  15.452  0.4908 -0.0452  0.1137
29424W        W46948   0.105   9.062  13.225  0.0943 -0.0567  0.2041
29425W        W46949  16.053   9.014  15.228  0.2578 -0.1028 -0.0498
29426W        W46950  13.387   3.134   5.112 -0.1765 -0.0127 -0.0367
29427W        W46951  12.019   3.563   3.396 -0.2377 -0.0695  0.0835
29428W        W46952  13.302  15.175   4.251  0.1117  0.1080 -0.1663
29429W        W46953   5.879   1.553   2.770  0.1023 -0.1385  0.0175
29430W        W46954  11.895   8.452   4.469 -0.0526 -0.1188 -0.1979
29431W        W46955  15.441  15.603   0.963  0.1548  0.1481 -0.0467
29432W        W46956  13.979  16.065   3.080  0.3379  0.1546 -0.1963
29433W        W46957  11.111   4.875   3.237 -0.1073  0.3306  0.0613
29434W        W46958  11.288   3.532   1.913  0.0830 -0.0307 -0.1468
29435W        W46959   1.790   2.277   0.152 -0.0339  0.1737  0.1550
29436W        W46960   7.288   5.491   2.979  0.0987 -0.2533  0.1202
29437W        W46961   2.065   4.488   4.918 -0.0110 -0.0145  0.1193
29438W        W46962   7.639  16.881   2.528  0.2127  0.1137 -0.1337
29439W        W46963   2.956   9.169  14.836 -0.0906 -0.0490  0.2366
29440W        W46964   0.898  11.217   0.476  0.0661 -0.3764  0.1591
29441W        W46965   0.408   2.067  17.629  0.1015 -0.0703 -0.1214
29442W        W46966   4.893   4.351   0.291  0.1808  0.0345  0.2541
29443W        W46967   7.684   1.549   4.637 -0.0964  0.2547 -0.0058
29444W        W46968   1.004   6.252   0.474 -0.1012 -0.0236  0.2999
29445W        W46969   4.709   5.398   1.918  0.4824  0.0590  0.0781
29446W        W46970   3.950   1.118  16.718 -0.2924  0.0467 -0.1729
29447W        W46971  10.274   5.654   0.412 -0.1567  0.0728 -0.0279
29448W        W46972  10.030  15.618   4.943  0.0047  0.1400  0.1644
29449W        W46973   6.641   9.647  14.474 -0.5331  0.0994  0.0430
29450W        W46974  13.697   4.529  12.764 -0.0447 -0.1290 -0.2685
29451W        W46975   7.677   7.814   2.100 -0.1272 -0.0409  0.1026
29452W        W46976  10.982   4.826  13.765  0.1227 -0.0687 -0.3672
29453W        W46977  15.638   9.122  12.286  0.1668 -0.0838 -0.0803
29454W        W46978   7.248   1.964  12.654  0.0614  0.1411  0.2882
29455W        W46979   4.665  12.808   0.591 -0.0435  0.0489  0.2046
29456W        W46980   1.124   7.376  12.680 -0.2797  0.1745 -0.2984
29457W        W46981  13.316   6.275   3.358  0.0776  0.4421  0.1940
29458W        W46982   0.031   9.337  16.970 -0.2168 -0.1543 -0.0144
29459W        W46983   4.034   0.509  14.017  0.0935  0.0478 -0.1990
29460W        W46984  16.562   5.257  16.023  0.0615 -0.0844  0.0243
29461W        W46985   8.992  14.188   3.841 -0.0983 -0.1473 -0.1001
29462W        W46986   0.028   6.162   1.116 -0.0797  0.1507  0.0330
29463W        W46987  15.138  10.237   0.706  0.2111 -0.2624 -0.0583
29464W        W46988  16.135  11.969  14.805  0.1008 -0.0500 -0.1922
29465W        W46989  16.683   7.217  16.436 -0.0026 -0.1145 -0.1750
29466W        W46990   0.101  12.789  12.820  0.0726  0.0958 -0.1504
29467W        W46991  11.758  15.127  15.101 -0.0969 -0.1830 -0.3690
29468W        W46992   3.614   3.775   5.739 -0.1420  0.0821 -0.1177
29469W        W46993  10.358  10.083   0.433  0.1395  0.0199 -0.4379
29470W        W46994  10.495  17.042   1.072 -0.2093 -0.0636 -0.0779
29471W        W46995  14.234  13.646   5.207 -0.0309  0.0903  0.1963
29472W        W46996  12.802  12.660  14.698 -0.0095  0.2084 -0.3358
29473W        W46997  16.804   5.289  13.392 -0.0877  0.0703  0.2751
29474W        W46998   9.895   5.325  12.829  0.1179 -0.0815  0.2860
29475W        W46999   8.080  10.325  14.135  0.0716 -0.0326 -0.1705
29476W        W47000   6.973   7.399   5.228 -0.1280 -0.2248  0.2044
29477W        W47001  13.968  16.664  13.211  0.1803  0.1046 -0.2004
29478W        W47002   3.702  15.786   2.176  0.2441  0.1020 -0.2104
29479W        W47003   2.041   5.530   1.247  0.1666  0.1874  0.0133
29480W        W47004  16.010  14.491  15.507 -0.1427 -0.0859  0.1765
29481W        W47005  10.234   5.624  14.988  0.1315  0.1747 -0.1609
29482W        W47006  11.026   1.239   5.064  0.2788 -0.0881 -0.2076
29483W        W47007  15.640   6.308   3.286 -0.0090  0.2562 -0.3381
29484W        W47008  12.269   5.995  15.184  0.1624  0.1276 -0.1513
29485W        W47009  11.477   1.422  16.113  0.1331 -0.1458 -0.0663
29486W        W47010  16.349  12.416   1.943 -0.0150 -0.0959 -0.0548
29487W        W47011   0.736  13.307  16.580 -0.0039  0.0345 -0.1933
29488W        W47012   5.967  12.407   1.572  0.2609 -0.1534 -0.0324
29489W        W47013  10.068   4.587  12.315 -0.0381 -0.1316 -0.0958
29490W        W47014   1.305   2.613   3.764 -0.1531 -0.1458 -0.1099
29491W        W47015   0.907  13.201   3.737  0.2269 -0.1634  0.1575
29492W        W47016   0.947   1.707  16.354 -0.2524  0.0186 -0.0375
29493W        W47017  10.111  10.645  12.314  0.0186 -0.0817  0.3998
29494W        W47018   9.101   5.424  16.186 -0.2664  0.1270 -0.1700
29495W        W47019  10.800  13.953   5.199  0.0976  0.0666 -0.0490
29496W        W47020  17.132  13.488  14.802  0.1929 -0.0698  0.2584
29497W        W47021  17.015   7.369   1.818  0.2758 -0.1413 -0.0232
29498W        W47022  12.024  13.919  13.324  0.0768  0.2998  0.0535
29499W        W47023  15.145  16.183  13.035  0.2337 -0.2882  0.2422
29500W        W47024  16.440  16.034  16.675  0.3088 -0.0098  0.0476
29501W        W47025  14.629   6.245  13.147 -0.0993 -0.1655  0.3101
29502W        W47026   1.524   4.569   0.395 -0.0630 -0.1436 -0.1813
29503W        W47027   0.436  14.606   2.640  0.1071  0.1522 -0.1506
29504W        W47028   1.787   4.595   3.834  0.0643  0.0595  0.0075
29505W        W47029   9.538   0.419  14.269 -0.0465  0.1508  0.0027
29506W        W47030   9.946   2.286   3.026 -0.0206 -0.1716  0.2164
29507W        W47031   0.611   0.876   2.608  0.4105 -0.4125  0.1426
29508W        W47032   3.235  15.928  17.305  0.0282  0.0292 -0.4012
29509W        W47033   0.723  12.741  14.630  0.0858  0.1289 -0.0661
29510W        W47034   2.006   5.139  14.703 -0.0514 -0.2146  0.1623
29511W        W47035   4.489  12.892   4.838 -0.1726 -0.1723 -0.0227
29512W        W47036   0.244   0.320  15.109 -0.2361  0.1129 -0.0573
29513W        W47037  16.965   2.077   4.886  0.1484  0.1793  0.0110
29514W        W47038  12.033   8.774  17.254  0.0519  0.3863 -0.0034
29515W        W47039  16.636  12.164  13.607 -0.0594  0.1812  0.0310
29516W        W47040  13.610   8.113   0.184  0.1279 -0.1171  0.1061
29517W        W47041   4.723   6.480   5.965 -0.0882 -0.2626  0.0341
29518W        W47042  12.246  15.462  13.412 -0.0849 -0.2067 -0.0335
29519W        W47043  16.576  13.439  12.945  0.0989  0.0906  0.1588
29520W        W47044   1.253  15.035   4.836  0.0849 -0.0656 -0.4134
29521W        W47045  10.279   2.304  13.468  0.3584 -0.1355  0.3023
29522W        W47046   4.445  12.630  12.662 -0.0210 -0.2101  0.0364
29523W        W47047  13.872   6.496   5.281  0.1247 -0.2305 -0.0934
29524W        W47048   5.082   3.542  16.234 -0.2129 -0.1269 -0.0570
29525W        W47049   8.985  14.031   2.320 -0.0354 -0.0344 -0.1808
29526W        W47050  10.048   5.323   0.056 -0.4088  0.0745  0.0449
29527W        W47051   1.094   1.521  17.605 -0.1714 -0.1246  0.0656
29528W        W47052  15.071   9.801   0.435 -0.0156  0.2587 -0.1894
29529W        W47053   5.029  14.644   5.356  0.0721 -0.0001  0.0508
29530W        W47054   3.315   8.393  15.587  0.3601  0.1222  0.0607
29531W        W47055  14.059   8.597  16.508 -0.0414  0.0323 -0.0288
29532W        W47056   2.042   9.241   0.009 -0.0533 -0.1166  0.0177
29533W        W47057  14.741  14.192   3.902 -0.1012  0.2272 -0.0746
29534W        W47058  14.945  12.059   3.669 -0.1563 -0.3134  0.3465
29535W        W47059  12.453   9.209   3.000 -0.1990  0.1067 -0.0841
29536W        W47060  15.993   0.806  13.213  0.1259 -0.2386 -0.1410
29537W        W47061   4.112   3.375  12.744 -0.4393  0.0474 -0.1439
29538W        W47062   5.257   7.544   3.223  0.2793 -0.1944 -0.0700
29539W        W47063  10.686   4.524  17.470 -0.2764 -0.0219  0.1439
29540W        W47064   9.840   4.148  12.532  0.1113  0.2237  0.0872
29541W        W47065   5.336   3.105  14.241  0.1249  0.1027 -0.0070
29542W        W47066   7.972   0.425   1.311 -0.0547  0.0351  0.1531
29543W        W47067  15.714   5.106   1.777  0.0377  0.3702 -0.1223
29544W        W47068   6.463   7.143   1.024  0.2285 -0.0723 -0.0015
29545W        W47069  14.255  10.909  13.046 -0.2011  0.1440  0.0434
29546W        W47070   7.869   1.432   1.158 -0.0778 -0.0958  0.3319
29547W        W47071   4.970  15.751  16.873  0.1161  0.2506  0.2352
29548W        W47072  14.199  16.877   4.906  0.2306  0.0622 -0.0146
29549W        W47073  11.705  16.992   3.433 -0.1874 -0.0390  0.2163
29550W        W47074  14.563   8.421   2.890  0.2463 -0.1424 -0.0634
29551W        W47075   7.629  11.638  16.394 -0.2545 -0.0741 -0.0550
29552W        W47076  13.348   5.344  12.890 -0.3565  0.2332  0.0018
29553W        W47077   9.322  16.025   4.947  0.3515  0.2303 -0.0461
29554W        W47078  11.637  10.412  12.429  0.1687  0.0058 -0.2630
29555W        W47079   8.409   7.152   3.719 -0.2387 -0.0156  0.0454
29556W        W47080   2.145  15.451  15.606  0.0179 -0.0038  0.1880
29557W        W47081  14.604  14.306   5.631 -0.2260  0.1365 -0.0465
29558W        W47082   3.364  13.681  15.742 -0.1616  0.1145 -0.1045
29559W        W47083   7.753   0.431   4.750 -0.2256 -0.0982 -0.1200
29560W        W47084   9.445   0.353  13.352  0.0226 -0.0446 -0.2099
29561W        W47085   7.902   3.417  16.908 -0.0062  0.0836  0.0394
29562W        W47086   4.561   3.934  17.467 -0.1589  0.1600 -0.0812
29563W        W47087   5.219   0.793  13.447  0.1243 -0.2338  0.1720
29564W        W47088  11.934  10.987   2.431 -0.2146 -0.2139  0.2599
29565W        W47089   1.114   5.823   0.254  0.1737 -0.0948 -0.0222
29566W        W47090  14.329  10.193   1.089  0.1642  0.3536  0.0762
29567W        W47091   9.732  10.968  12.649 -0.0935  0.0211  0.2264
29568W        W47092  12.280   1.670   2.990  0.0455 -0.1434  0.2649
29569W        W47093  10.057   1.566  13.934 -0.0584 -0.1898 -0.2432
29570W        W47094   5.604   4.690   2.827 -0.0226  0.1157  0.1025
29571W        W47095   8.837   3.456   4.037  0.2439  0.1527  0.0051
29572W        W47096  16.114  11.397   2.517  0.1819  0.0489  0.0551
29573W        W47097   8.444  15.595  17.677  0.1504  0.0119  0.1272
29574W        W47098  14.357   2.700  15.321  0.0610 -0.0830 -0.0740
29575W        W47099   3.375   4.053  13.498 -0.2128  0.0163  0.0101
29576W        W47100  10.458  16.263  14.784 -0.2970  0.2241 -0.1506
29577W        W47101   9.755   8.664   1.900  0.0978  0.4467  0.0851
29578W        W47102  11.577   9.430   3.337  0.1555 -0.1548 -0.5156
29579W        W47103  12.703   6.025   4.868 -0.1816 -0.1596 -0.0060
29580W        W47104   1.926  12.996  16.545 -0.1651 -0.0412 -0.0879
29581W        W47105  12.820   0.144   5.089  0.0041  0.2685 -0.0409
29582W        W47106   4.782   1.285   2.113  0.2387 -0.0353 -0.2784
29583W        W47107   8.050   0.457  14.012 -0.2733 -0.0219  0.2199
29584W        W47108  15.645  13.292   1.920 -0.0960  0.0427  0.0299
29585W        W47109   0.812   7.315  14.187  0.1168 -0.1607  0.2561
29586W        W47110  13.600   2.746  13.211  0.1710 -0.0198 -0.0656
29587W        W47111  11.410  11.182  17.219 -0.1142  0.0601  0.1537
29588W        W47112  13.408  16.635   5.347 -0.1875 -0.2400 -0.0616
29589W        W47113   4.720   9.043  12.203 -0.0891 -0.0190 -0.0986
29590W        W47114   0.398  15.154  15.365 -0.5168 -0.1807  0.0472
29591W        W47115  11.052  14.584  10.949  0.1805  0.3759 -0.2345
29592W        W47116   5.083  13.889  12.486  0.3707  0.0918  0.3032
29593W        W47117   5.511   2.717  12.305 -0.3701  0.2465 -0.1961
29594W        W47118  16.037   2.971  16.612  0.2477  0.1232 -0.2153
29595W        W47119  10.236  13.606   3.914  0.0043  0.0448 -0.0638
29596W        W47120  16.833   8.415  14.380 -0.0397  0.3814  0.2692
29597W        W47121   4.260  10.355   2.655  0.1183  0.0742 -0.1568
29598W        W47122   8.062  17.094  13.214  0.0303  0.0770  0.1200
29599W        W47123  13.766   9.711  12.851 -0.1532 -0.1412 -0.0029
29600W        W47124   1.872  10.892   3.663  0.1106 -0.1483 -0.1301
29601W        W47125   2.638   6.356   2.229 -0.1469 -0.2394 -0.0033
29602W        W47126  15.686  10.546   0.492 -0.1043  0.1456  0.0898
29603W        W47127  11.123  11.948   0.071  0.0128  0.0284  0.0690
29604W        W47128   0.640  13.199  17.604 -0.0996  0.0037 -0.0020
29605W        W47129   0.919   8.012   3.065  0.0003 -0.1389  0.2058
29606W        W47130  16.382   0.153  17.593  0.1540 -0.0386 -0.2329
29607W        W47131   1.580  12.324   0.576 -0.0156  0.0072  0.2139
29608W        W47132  10.532  13.825   4.751 -0.0639  0.1749  0.0162
29609W        W47133  12.549   2.393  14.751  0.0316  0.0538  0.1505
29610W        W47134   6.906   2.551   0.105  0.0191  0.0560 -0.3266
29611W        W47135   4.919   5.551  16.187 -0.0316  0.0886 -0.1088
29612W        W47136  12.288   2.912   1.739 -0.2270 -0.1508 -0.1108
29613W        W47137  14.028   2.429   2.307  0.1452  0.1781  0.1445
29614W        W47138  15.802  12.328  12.779 -0.1092  0.2194  0.1426
29615W        W47139  16.062   4.792   1.997 -0.1069  0.0475  0.1447
29616W        W47140   2.419   3.097   1.129 -0.1897 -0.1338 -0.3091
29617W        W47141   1.711  15.758  16.512  0.2056  0.2016 -0.1204
29618W        W47142   3.169   9.884  14.893  0.5524 -0.0934  0.2044
29619W        W47143   3.347  15.221   4.431  0.0935  0.1308  0.0759
29620W        W47144   9.246   9.372  17.343  0.1814 -0.2564  0.0353
29621W        W47145  16.260   6.312   1.982  0.2645 -0.0405 -0.3628
29622W        W47146  10.291  13.762  17.725 -0.3952  0.0876 -0.1724
29623W        W47147   5.869   0.925   0.168 -0.0381 -0.2469 -0.1176
29624W        W47148   0.185  16.132  13.291 -0.0011 -0.2043 -0.0186
29625W        W47149  16.747  15.762   0.451 -0.0783 -0.0756 -0.2730
29626W        W47150   7.532  12.544  15.663 -0.1395  0.0024 -0.2229
29627W        W47151  13.699   4.228  13.332  0.0819 -0.4228  0.1170
29628W        W47152  10.325   1.841  13.052  0.0342 -0.0160  0.0881
29629W        W47153  10.525   4.893  15.629 -0.0920 -0.0311 -0.1704
29630W        W47154   2.637   7.054   2.571  0.1532 -0.2300 -0.2825
29631W        W47155   8.063  15.413  13.379  0.0814  0.0885 -0.0526
29632W        W47156  16.360   5.526  13.260  0.0520 -0.1401 -0.1233
29633W        W47157   8.092  12.111   1.504 -0.4933 -0.2111 -0.1964
29634W        W47158  13.855  14.626   0.955 -0.0572 -0.2342 -0.1491
29635W        W47159  11.730   0.578   4.148 -0.0115 -0.2866 -0.0172
29636W        W47160   6.921  15.345  16.362 -0.1988 -0.0129  0.1089
29637W        W47161  16.551  15.131   2.879  0.0544  0.0998  0.4479
29638W        W47162  14.202   9.220  15.836  0.2117  0.2040 -0.0650
29639W        W47163   0.003   6.064   0.114  0.2951 -0.2917 -0.2583
29640W        W47164   1.741  15.377  16.129  0.0808  0.2283 -0.1331
29641W        W47165  13.286  10.058  12.747  0.0390 -0.0392  0.2040
29642W        W47166  13.105   3.903   1.161  0.1995 -0.1049  0.1160
29643W        W47167  10.413  12.926  16.497  0.1717  0.1954 -0.1961
29644W        W47168  12.986  15.403   2.178 -0.0913  0.1808  0.1258
29645W        W47169   1.932   4.165  15.724  0.0840  0.1560  0.1017
29646W        W47170  16.451  13.054   0.475 -0.0289  0.2180  0.1460
29647W        W47171   0.248   5.181   4.790  0.2294 -0.1184  0.3125
29648W        W47172   4.953  15.921   3.551  0.1629  0.0136  0.0973
29649W        W47173  11.648   0.713  14.736 -0.0488  0.3998  0.0840
29650W        W47174  12.273   2.990   5.559 -0.0738 -0.0142  0.1763
29651W        W47175  11.578   1.204  17.697  0.1384 -0.0447  0.0825
29652W        W47176  14.089   1.609  17.173 -0.1004 -0.0583 -0.2057
29653W        W47177  13.667   5.415   0.141  0.1459 -0.0500  0.1809
29654W        W47178   3.572  11.247   3.106 -0.3801  0.1833 -0.3739
29655W        W47179  13.202   2.926  16.222  0.4210 -0.0928 -0.0298
29656W        W47180  11.506   1.131   5.223  0.0560  0.1456 -0.0735
29657W        W47181   0.007  16.024   3.589  0.0242 -0.3345  0.0654
29658W        W47182   3.176  14.770  14.124 -0.0126  0.0835  0.2507
29659W        W47183   8.768  14.659  12.670  0.0298 -0.0786  0.0071
29660W        W47184  10.051  12.697  12.154 -0.0027  0.1386 -0.2651
29661W        W47185  15.848   9.975   1.006  0.1511 -0.1452 -0.3238
29662W        W47186   0.036   3.707   5.404 -0.2287 -0.0090  0.2333
29663W        W47187  10.898   0.211   1.321 -0.2211 -0.0562 -0.0746
29664W        W47188   7.621  12.203   0.235 -0.2116  0.1817 -0.0671
29665W        W47189   9.680   6.152   1.621 -0.0071  0.0790  0.0034
29666W        W47190  13.065  10.774  12.430  0.2169 -0.2650  0.1306
29667W        W47191   3.658   2.636  17.165  0.0626 -0.2861 -0.3648
29668W        W47192  12.613   9.833  14.165 -0.0593  0.0465  0.0651
29669W        W47193   9.740   4.699  12.699 -0.0053 -0.0109  0.0587
29670W        W47194  16.855  13.885   4.756  0.0225 -0.0487  0.3464
29671W        W47195   8.166  15.102  17.597 -0.1714 -0.0626 -0.1231
29672W        W47196  14.168  11.453   4.655 -0.1697 -0.0493  0.0449
29673W        W47197   7.798  16.669  12.938  0.0035  0.0287 -0.1685
29674W        W47198   4.902  15.805  13.733 -0.0152  0.1764 -0.0231
29675W        W47199   2.611   2.509   0.376 -0.1450 -0.0423 -0.1662
29676W        W47200  16.389   8.951  16.518 -0.2858  0.0841  0.2491
29677W        W47201  12.621   6.948   4.418 -0.1165 -0.0769  0.1429
29678W        W47202  12.461   8.261  14.053 -0.2732  0.2260  0.0888
29679W        W47203  13.447  14.251  15.675  0.1364  0.0653 -0.2085
29680W        W47204   0.881   1.091   4.914 -0.2415 -0.1465 -0.0464
29681W        W47205  16.544   0.975   0.340 -0.1912  0.0385 -0.0894
29682W        W47206   5.111   3.125   2.025 -0.3701 -0.3571 -0.0807
29683W        W47207  14.918   2.495   4.519 -0.0450 -0.0152 -0.1083
29684W        W47208  15.273  10.352  15.584  0.0611  0.0914 -0.0979
29685W        W47209   0.540   4.876  16.774  0.0857  0.0237 -0.1165
29686W        W47210  14.483  10.864  16.820  0.2145  0.1989 -0.0577
29687W        W47211  10.390   0.920  16.965 -0.1802 -0.0866 -0.2055
29688W        W47212   8.808  14.578   0.109 -0.1031  0.0114 -0.2030
29689W        W47213   8.342  16.738   5.267 -0.1023  0.1293  0.0374
29690W        W47214  16.604  16.685   4.700  0.3913 -0.0230  0.2842
29691W        W47215   0.622  11.274  15.141  0.1476 -0.3189 -0.0531
29692W        W47216   8.419   7.088   0.577 -0.1314  0.0533 -0.2208
29693W        W47217   3.257  14.924   5.413 -0.0089 -0.0296  0.2283
29694W        W47218  13.533   2.646  17.217  0.4236 -0.1297  0.2260
29695W        W47219  11.173   3.554   1.418 -0.1219 -0.0719  0.0560
29696W        W47220  13.187   5.168  14.040  0.0895  0.3381 -0.3897
29697W        W47221  15.429   5.670  12.236  0.0347  0.2012  0.0780
29698W        W47222  16.073   2.192   4.946 -0.1753 -0.0887 -0.1829
29699W        W47223   2.878   4.112   3.112 -0.1807 -0.3873 -0.1319
29700W        W47224   6.499   9.620  15.463 -0.0834  0.0535 -0.0738
29701W        W47225   0.947   4.062   0.985  0.1711 -0.3475 -0.0641
29702W        W47226   3.186   1.051  14.320  0.2003 -0.1510 -0.0591
29703W        W47227   4.509   8.559  16.364 -0.1074 -0.0249 -0.1718
29704W        W47228   3.992   9.523   0.345 -0.0881  0.0783  0.2686
29705W        W47229  14.497   3.368  17.553 -0.0972  0.0246  0.0259
29706W        W47230   1.414  13.422   1.061  0.1739 -0.4343  0.1302
29707W        W47231  16.885   8.284   5.185  0.0069 -0.0112 -0.3276
29708W        W47232  10.351   1.952   1.765  0.1006 -0.2977 -0.1674
29709W        W47233  15.364   3.901  15.190  0.0709 -0.1693 -0.0713
29710W        W47234   7.404   6.911   0.910  0.1580  0.0459 -0.2316
29711W        W47235   3.342   3.210  13.307  0.1070 -0.0818 -0.0927
29712W        W47236  11.535   1.886   3.312 -0.3912  0.1648 -0.0119
29713W        W47237   8.666  11.212   3.077 -0.1362 -0.2467  0.0303
29714W        W47238  13.238   3.475   4.776  0.1216  0.0212  0.3904
29715W        W47239   7.741  14.790   4.244 -0.2086 -0.2060 -0.0278
29716W        W47240  14.218   6.144   6.608  0.1394  0.3530 -0.1680
29717W        W47241   9.008   0.268  12.810  0.1949  0.0791  0.2026
29718W        W47242  12.844  10.075  16.247 -0.3975  0.0996 -0.0756
29719W        W47243   3.455   0.238  16.075  0.0574 -0.1627  0.2501
29720W        W47244   4.415   9.603   0.590 -0.1113  0.1345 -0.1538
29721W        W47245   0.916  16.919  14.165  0.0210  0.1064 -0.2107
29722W        W47246  10.957  13.469   1.910 -0.0032  0.0094  0.1290
29723W        W47247   6.312  11.525   1.378 -0.1380  0.0882 -0.1012
29724W        W47248   4.093  12.612  15.639 -0.2627  0.0242  0.0648
29725W        W47249  10.358   9.312  17.689 -0.0631  0.0199  0.0462
29726W        W47250   1.029  16.391   0.307 -0.2144 -0.2256 -0.3290
29727W        W47251   9.296  14.323  14.257  0.1280 -0.1161 -0.0822
29728W        W47252   4.118   1.396  14.549  0.4001 -0.1473  0.0301
29729W        W47253  15.890  14.570  13.914 -0.2780  0.2279 -0.1108
29730W        W47254  13.617   6.446   1.289 -0.1556  0.0913  0.3647
29731W        W47255   1.295  15.512   2.016  0.0928 -0.0866 -0.1729
29732W        W47256  16.787   7.599   3.019  0.0628 -0.1006 -0.2536
29733W        W47257  12.630   5.968   2.526  0.0609  0.1561  0.0496
29734W        W47258   2.324   4.749   0.796 -0.1190 -0.0601 -0.0846
29735W        W47259  12.529   7.510   3.659  0.0442 -0.1207  0.0162
29736W        W47260  11.264  11.606   4.481 -0.0481 -0.4148  0.0981
29737W        W47261   9.641  12.343   2.786 -0.0001 -0.0368  0.1779
29738W        W47262  13.223   5.067   3.517  0.2445 -0.3517 -0.1426
29739W        W47263   2.737  14.790   1.252  0.1571  0.0297  0.4197
29740W        W47264  15.676   0.515  13.632  0.0130  0.3454 -0.0696
29741W        W47265  15.487   2.880  17.642 -0.0695  0.0519  0.0618
29742W        W47266   1.503   3.968  15.908 -0.0595  0.0118  0.1126
29743W        W47267   6.121   6.654  13.843 -0.1742 -0.0106  0.0590
29744W        W47268   0.555   3.711   2.053 -0.1512  0.0121  0.1846
29745W        W47269  14.638  12.369  15.808  0.0131  0.0445  0.2873
29746W        W47270  15.232  16.181  15.385 -0.2550  0.3526  0.2145
29747W        W47271   7.462  15.474  17.267  0.1569 -0.4127  0.0991
29748W        W47272   1.881   0.494   0.540  0.1218  0.1414 -0.0990
29749W        W47273   7.117  10.121   4.371 -0.1852  0.4498 -0.0263
29750W        W47274   0.087  15.414  17.557 -0.2796 -0.3578 -0.0122
29751W        W47275   0.628  12.802   1.389 -0.3294 -0.1250  0.0122
29752W        W47276   7.168  15.054  15.813 -0.1876 -0.0936  0.0389
29753W        W47277   7.804   1.670  12.416  0.3821 -0.0563 -0.2835
29754W        W47278   1.413  17.049   2.933 -0.2769 -0.2036 -0.1314
29755W        W47279   0.419  14.421  15.031 -0.1223  0.0941 -0.0254
29756W        W47280  15.270  14.037  14.110  0.0180  0.2373 -0.1902
29757W        W47281   9.958  12.252   1.750  0.0099  0.0512  0.0362
29758W        W47282   2.627   2.285   2.354 -0.1549 -0.1525  0.1987
29759W        W47283   3.694  14.331  15.820  0.0956 -0.2421 -0.1018
29760W        W47284   8.539   8.408   1.840 -0.0758 -0.2444 -0.0908
29761W        W47285   7.692  10.052   2.503  0.1110 -0.1607  0.2867
29762W        W47286   5.131   9.917   1.555 -0.3583  0.1182  0.0670
29763W        W47287  11.098   9.308  12.478 -0.1889  0.1850 -0.2549
29764W        W47288   9.270  11.851  14.235  0.1957 -0.0531 -0.1636
29765W        W47289   0.987   1.860  13.270 -0.1098 -0.1314  0.2555
29766W        W47290   3.600   9.640   2.149  0.1028  0.2274  0.0246
29767W        W47291   5.030   5.503  16.868 -0.3302  0.0928  0.0714
29768W        W47292   6.987   3.509  16.890  0.2463 -0.1445  0.0607
29769W        W47293   1.423   5.415   2.618 -0.4839 -0.2851 -0.1903
29770W        W47294   8.121   3.504  15.437 -0.0067  0.0718  0.1208
29771W        W47295   2.417  13.697   2.744  0.0188 -0.0857  0.0961
29772W        W47296   3.483   9.427   5.685 -0.1417  0.1559  0.0443
29773W        W47297  15.341  14.379   5.268 -0.1294 -0.0219 -0.1865
29774W        W47298   1.910  12.577  16.891  0.2312 -0.0092 -0.0617
29775W        W47299   1.586   6.790  13.597  0.3714  0.1007  0.0312
29776W        W47300  16.448  10.380  12.639  0.0579 -0.0930 -0.1803
29777W        W47301   1.435  12.686   2.765  0.0123 -0.0127 -0.1186
29778W        W47302   3.416  11.145  13.274 -0.2050 -0.1018 -0.2537
29779W        W47303   5.171   2.908   4.616 -0.0584 -0.5159  0.2022
29780W        W47304  11.760   8.847   4.175  0.1294  0.1800  0.0469
29781W        W47305   5.403  11.304   0.290 -0.0428  0.1394  0.0700
29782W        W47306  12.957  13.046  16.162  0.2125  0.1396  0.1240
29783W        W47307  16.294   8.013  17.425  0.0960 -0.2582 -0.1550
29784W        W47308   6.226   3.598   4.089 -0.1479  0.0392  0.1899
29785W        W47309   4.216   9.179   4.779 -0.0271 -0.0373 -0.1998
29786W        W47310  14.549   6.381   6.175  0.2327  0.0869 -0.2719
29787W        W47311   4.958  13.660   4.693  0.1589  0.4363  0.3385
29788W        W47312   6.053   1.254   1.582  0.4695 -0.2963  0.0873
29789W        W47313   5.864   6.458   4.793  0.2836  0.0594  0.0438
29790W        W47314  11.065  11.420  14.684 -0.0339 -0.2979 -0.0112
29791W        W47315   4.952   4.331   0.862 -0.1299  0.0291  0.1798
29792W        W47316   9.890   4.420   3.290 -0.3194 -0.0442 -0.0229
29793W        W47317  10.800   7.843  15.074  0.3040 -0.1855  0.1666
29794W        W47318   6.854   6.844  14.885 -0.1148  0.1416  0.0164
29795W        W47319   5.468   1.508   0.903  0.1887  0.0288  0.2122
29796W        W47320   2.546   2.997  14.313  0.0309 -0.0227 -0.0455
29797W        W47321   7.298   3.017   4.786 -0.0435 -0.0770 -0.2468
29798W        W47322   5.570  17.136  14.989 -0.1150  0.1656 -0.1264
29799W        W47323   1.779   6.820  17.425 -0.0487 -0.2112 -0.2153
29800W        W47324   0.140   8.030  12.072 -0.1425 -0.0723  0.1300
29801W        W47325   9.512   8.548   4.254  0.1193 -0.0807 -0.0821
29802W        W47326  10.557   6.468  15.195  0.0588 -0.2796  0.0963
29803W        W47327  12.460   7.354  14.385  0.0362 -0.0201  0.1988
29804W        W47328   7.816   3.425   4.412  0.0853 -0.2236  0.3169
29805W        W47329   9.376  11.004   2.546  0.1440 -0.0735  0.0579
29806W        W47330   5.985  15.396  16.486 -0.0216 -0.1033 -0.0344
29807W        W47331   6.223   5.254  13.821  0.0887 -0.0630  0.0865
29808W        W47332   0.172   2.355   5.790  0.0508 -0.0481 -0.1157
29809W        W47333  16.316  15.434  13.546 -0.2845  0.0256 -0.2134
29810W        W47334   0.947  16.174   1.420  0.0565 -0.0465 -0.0924
29811W        W47335   1.965   1.894   3.677  0.0430 -0.1517 -0.0042
29812W        W47336   6.925   4.731   1.860  0.0333 -0.0421  0.2176
29813W        W47337   2.863   8.756   4.664 -0.3032 -0.2606  0.4589
29814W        W47338  13.112  14.972  14.316  0.0457 -0.0310 -0.1324
29815W        W47339   8.070   3.099   0.430  0.1482 -0.2542  0.0373
29816W        W47340  11.154   1.487   4.587 -0.0432 -0.2105 -0.0834
29817W        W47341  15.229   2.785  12.282 -0.0979 -0.0813 -0.2730
29818W        W47342   5.721  12.277  12.774  0.2260  0.0429 -0.0993
29819W        W47343   8.654  13.092  17.439  0.1868 -0.2134 -0.1764
29820W        W47344   4.491   9.595  12.086 -0.0098 -0.1542 -0.1598
29821W        W47345   0.851   9.280  12.698  0.1919  0.0561  0.1071
29822W        W47346   4.615  14.280   1.815 -0.2223  0.1060  0.3439
29823W        W47347  14.606   7.993  16.932 -0.0081 -0.0679  0.1864
29824W        W47348  17.034   0.463  17.103  0.0159  0.0395  0.3503
29825W        W47349  13.853   0.526  15.821  0.1312 -0.0554  0.1376
29826W        W47350   0.841  15.284  16.624  0.3148 -0.0812 -0.4805
29827W        W47351   1.117   9.545   1.061  0.0991  0.1845 -0.1255
29828W        W47352  15.945   3.451  14.517 -0.2771  0.1956  0.0793
29829W        W47353   0.496  13.485   5.058 -0.1503 -0.0580  0.0236
29830W        W47354   9.401  12.920  16.447 -0.2850  0.3402  0.0182
29831W        W47355   4.624   5.296  14.128  0.1866 -0.1631 -0.0944
29832W        W47356  17.104   5.251   0.589  0.0380 -0.0106 -0.0452
29833W        W47357  11.516   0.293   5.264 -0.1948  0.1495  0.0407
29834W        W47358   6.271   0.631   0.978 -0.0790  0.0629 -0.0553
29835W        W47359   2.213   0.179   0.793 -0.4692 -0.0597  0.2546
29836W        W47360   7.505  14.226  13.837  0.4655  0.3603 -0.0477
29837W        W47361   6.296  10.020   4.981  0.0349  0.1311  0.0692
29838W        W47362  10.018  16.506   2.425 -0.0665  0.0888  0.2574
29839W        W47363   4.655  15.671  17.373 -0.0759  0.0656  0.1358
29840W        W47364  13.268  15.697  15.079 -0.2614 -0.0597 -0.0613
29841W        W47365   0.035   3.921   0.788 -0.4362 -0.0455 -0.0688
29842W        W47366  13.576   1.179  14.112  0.0318  0.3279 -0.4558
29843W        W47367  15.627  10.525   4.021 -0.1651 -0.1256  0.3688
29844W        W47368  16.084  12.870   1.147 -0.2082 -0.2880 -0.3012
29845W        W47369   8.631  15.101  14.921  0.0857 -0.0179  0.1483
29846W        W47370  15.306   3.984   3.495 -0.1760 -0.0466  0.0041
29847W        W47371  11.093  12.966  16.817 -0.2700  0.1365 -0.2386
29848W        W47372  10.091  11.343   4.874 -0.0165 -0.0539  0.2218
29849W        W47373   9.511  10.252  13.456  0.1442 -0.2069  0.4345
29850W        W47374   2.740  14.774   4.933  0.0441 -0.0681 -0.2199
29851W        W47375   4.584   5.374   5.051 -0.2457 -0.0840 -0.0103
29852W        W47376  16.580   8.152  14.840  0.1183 -0.0927 -0.0178
29853W        W47377  15.499   1.875  16.660  0.1891 -0.0664  0.0448
29854W        W47378   7.735  12.844   1.835  0.1520  0.0625 -0.2615
29855W        W47379   7.779   3.899  13.552  0.1814 -0.1105  0.0824
29856W        W47380   7.436   7.230   1.920  0.1525  0.0535  0.1261
29857W        W47381   9.745  15.369   0.427  0.0795  0.2635  0.1278
29858W        W47382  14.781   9.735  17.701 -0.1569  0.1382 -0.2128
29859W        W47383  16.740   6.481   1.242  0.0521  0.4365  0.4849
29860W        W47384   4.656  17.031  15.107 -0.1198 -0.1868 -0.0929
29861W        W47385   9.858   6.461   0.654 -0.0484  0.1783 -0.0633
29862W        W47386   1.781   9.410   1.125  0.2495  0.2024  0.1654
29863W        W47387  12.118  16.665   3.538 -0.3545 -0.3953  0.0041
29864W        W47388   3.356   7.071   4.664 -0.2200 -0.2644 -0.2213
29865W        W47389  11.127  11.772  14.175 -0.0441 -0.2484 -0.2344
29866W        W47390   0.804   1.857  17.431 -0.2384  0.0973 -0.1525
29867W        W47391   7.413  14.976  12.329 -0.0927 -0.0826 -0.0237
29868W        W47392   3.276   3.145  15.169 -0.1291  0.1929 -0.4100
29869W        W47393   2.032   3.517   2.250  0.0498  0.1257 -0.0732
29870W        W47394   9.598  16.206   4.410  0.2753 -0.0747  0.0622
29871W        W47395   6.989  10.387  15.122 -0.3829  0.0665 -0.0027
29872W        W47396   8.024  13.437  17.653  0.3264 -0.1600 -0.0810
29873W        W47397   2.087   5.572  14.463  0.0536  0.0989 -0.1552
29874W        W47398   1.446   9.172  14.590  0.1470 -0.2254  0.0158
29875W        W47399  10.202   7.851  17.553 -0.3022 -0.0001 -0.1453
29876W        W47400   6.917   6.540   2.401 -0.1887  0.2020  0.1959
29877W        W47401   0.513  11.094   3.752 -0.2391  0.1225  0.0413
29878W        W47402  10.387   1.954   0.786  0.1664  0.2106 -0.0338
29879W        W47403   1.742   3.519   4.830  0.2174 -0.2986  0.2203
29880W        W47404   4.112   1.136   4.696 -0.0609  0.2689  0.0796
29881W        W47405  11.551   2.122  13.625 -0.0367 -0.1779  0.1883
29882W        W47406   6.702  11.241   5.039 -0.1721 -0.1112 -0.1536
29883W        W47407   2.211   5.139  14.162 -0.0889 -0.2801 -0.1083
29884W        W47408   7.774   2.767   1.634 -0.2552 -0.4607  0.2311
29885W        W47409   0.971   7.373  15.092  0.2796 -0.1002 -0.1136
29886W        W47410  16.823   7.774   3.923  0.1034  0.2081  0.0422
29887W        W47411  13.449  12.118  15.235 -0.1024  0.2324  0.0097
29888W        W47412   0.928  13.528   1.004 -0.0507 -0.2469  0.3412
29889W        W47413   0.498  12.773   4.985 -0.0514  0.1794  0.0193
29890W        W47414  15.705   8.683  16.945 -0.0153 -0.0998 -0.0701
29891W        W47415  16.024   1.432  14.197  0.2132 -0.0604  0.4717
29892W        W47416   4.550   4.279  16.485  0.2249  0.0924  0.3114
29893W        W47417   1.453   9.561   3.771  0.2202 -0.0733 -0.0758
29894W        W47418   6.059  15.718   5.209 -0.2011 -0.0830  0.0421
29895W        W47419   3.038   0.683   1.775 -0.2624 -0.1398 -0.0951
29896W        W47420   0.052  13.980   0.967 -0.0698  0.1956 -0.1321
29897W        W47421  15.122   9.094  11.841 -0.1659 -0.0857 -0.2488
29898W        W47422  16.298   7.317  14.977 -0.3335  0.2765  0.0187
29899W        W47423   7.889   6.236  13.839  0.1057 -0.0969 -0.0105
29900W        W47424   8.157   6.445  14.249  0.2053  0.2507 -0.2088
29901W        W47425   2.403  12.487   4.787 -0.2410  0.1233  0.0078
29902W        W47426   8.903  12.190   0.727  0.1159 -0.1723  0.0042
29903W        W47427  10.445  13.544  15.041  0.0086 -0.0566  0.2865
29904W        W47428  10.173  15.280   0.165  0.3181 -0.0605 -0.0166
29905W        W47429   3.703  15.496   4.598  0.2627  0.1664 -0.2402
29906W        W47430   9.399   0.124  15.617  0.2882 -0.0677 -0.0189
29907W        W47431  13.964  16.812  13.747 -0.0667 -0.0762 -0.1347
29908W        W47432   0.265   3.282  14.092  0.1033 -0.1328 -0.1563
29909W        W47433  12.774  13.279  15.740  0.2785  0.0447 -0.0723
29910W        W47434  14.012  10.542  14.706  0.2529  0.1159  0.0456
29911W        W47435  14.273  14.077  15.993 -0.2446  0.2991 -0.1187
29912W        W47436   5.218   6.974  14.619  0.4258 -0.0414  0.0692
29913W        W47437  10.426   2.501  14.890 -0.0076 -0.1518  0.1822
29914W        W47438  17.047   3.091   2.177 -0.2192 -0.0234 -0.0125
29915W        W47439  13.515  12.088  16.686  0.2495  0.1718 -0.4061
29916W        W47440   3.511   6.037   0.212 -0.1881 -0.4591  0.2062
29917W        W47441   7.692   7.480   2.791  0.0139  0.1006 -0.0068
29918W        W47442  14.126  16.805   2.384 -0.3474 -0.2270  0.4075
29919W        W47443  13.502   8.449   0.792 -0.0223 -0.2914 -0.0421
29920W        W47444   4.037  12.113   0.523  0.0313  0.1517 -0.2412
29921W        W47445   4.669   6.648  17.506  0.0988 -0.1961 -0.1456
29922W        W47446  14.968   2.825   3.037 -0.1139  0.1052  0.0156
29923W        W47447   1.645   9.050   0.304 -0.2696  0.0465  0.0746
29924W        W47448  16.033   9.549   3.129  0.1598 -0.2366 -0.1246
29925W        W47449   2.488  14.002   1.297  0.0379  0.5277  0.1486
29926W        W47450   8.600   8.859  14.970 -0.1381 -0.1767  0.1975
29927W        W47451  12.821   0.222  16.048  0.0026  0.2526  0.0648
29928W        W47452  15.903   9.126  16.735  0.1089  0.3888  0.1525
29929W        W47453   2.099   5.693   0.732  0.0568  0.0226 -0.1599
29930W        W47454  16.417  14.499  14.101 -0.2474 -0.2694  0.1176
29931W        W47455   6.139   7.479  16.535  0.0737  0.2342 -0.2367
29932W        W47456   5.657  10.486  16.841  0.1015  0.0188  0.2883
29933W        W47457   9.683  15.370  12.501  0.0889 -0.3017  0.0173
29934W        W47458  12.670  15.987  11.971 -0.0426  0.1314  0.0782
29935W        W47459   8.450   8.701  16.827 -0.3549 -0.0186 -0.0039
29936W        W47460   1.609   7.921   4.699 -0.0498 -0.0357  0.0119
29937W        W47461   4.860   2.964  15.931 -0.2443 -0.0203 -0.0920
29938W        W47462   2.176   4.584  13.210  0.0526 -0.0698  0.0091
29939W        W47463  16.893  14.338   4.931  0.1650 -0.1049 -0.2382
29940W        W47464   0.635   8.397  15.904 -0.0653  0.1347  0.0282
29941W        W47465   6.199   0.608   2.739 -0.0787  0.1380 -0.0759
29942W        W47466  14.944  12.924  13.059  0.0614 -0.0094 -0.1483
29943W        W47467  16.216  16.107  14.937  0.2175  0.0596  0.0572
29944W        W47468   0.111   4.659   4.896 -0.0269 -0.0454 -0.0937
29945W        W47469  11.623  11.682   1.352  0.2070 -0.3524 -0.0026
29946W        W47470  12.824   3.747  15.982 -0.2437  0.0733 -0.1150
29947W        W47471   0.269  12.723  14.507  0.1155 -0.2572 -0.0477
29948W        W47472   9.899   7.978   4.143  0.1123  0.2825 -0.1491
29949W        W47473   8.408  15.560  12.974  0.1169  0.2541  0.0487
29950W        W47474  13.430   4.760  15.919 -0.1455 -0.0548  0.1109
29951W        W47475   2.732  13.804  14.280 -0.1104 -0.1018 -0.2724
29952W        W47476   2.487   8.947   5.516  0.0503  0.1108  0.4234
29953W        W47477   0.389   9.006   2.142 -0.0192  0.0442  0.0813
29954W        W47478  16.086   4.508  16.568  0.1018  0.2074 -0.4360
29955W        W47479  10.250   3.276  16.994 -0.3603  0.1815  0.0124
29956W        W47480   1.535   9.203  17.563 -0.2648 -0.1186 -0.0526
29957W        W47481  15.137   8.015  12.677  0.1446  0.0706 -0.0077
29958W        W47482  15.885  16.983   1.773  0.2452  0.2764  0.3070
29959W        W47483  11.023   5.572  16.774 -0.1011 -0.0733 -0.0167
29960W        W47484  14.037   0.737   1.262  0.1429 -0.0135  0.0924
29961W        W47485  12.251   3.630   2.070 -0.1737 -0.2083 -0.1361
29962W        W47486  11.502   9.395  14.230  0.1251  0.1709 -0.0902
29963W        W47487   1.608   1.131   5.668 -0.1185  0.0074 -0.2972
29964W        W47488  15.944  12.052   2.747 -0.1150 -0.0791  0.3069
29965W        W47489   0.557  14.607   0.045  0.2210  0.1206  0.0968
29966W        W47490  13.669  12.111  11.460 -0.0914  0.4659 -0.1220
29967W        W47491   1.607   5.125   3.013 -0.0421  0.1176  0.0679
29968W        W47492   1.576  12.974  13.002  0.1264 -0.2653 -0.2590
29969W        W47493  15.674  14.509  16.501 -0.2904 -0.0603 -0.0289
29970W        W47494   0.063   8.194  12.573 -0.1637 -0.1399  0.0463
29971W        W47495   2.677  13.421   4.220  0.1014  0.0295 -0.1133
29972W        W47496  10.319  15.694  12.618 -0.0453 -0.1021 -0.4422
29973W        W47497  13.367   7.508  15.850  0.3684  0.1187 -0.0302
29974W        W47498  15.479  14.738  13.387 -0.1206  0.3989 -0.0946
29975W        W47499  13.548   9.205   3.638 -0.3489  0.2526 -0.1230
29976W        W47500   9.860  17.044  17.267 -0.3089 -0.0719  0.0855
29977W        W47501  14.282   2.663  14.060  0.2089  0.0172 -0.0675
29978W        W47502   7.555   2.697   3.865  0.0162  0.1666  0.1242
29979W        W47503   7.379  11.609   1.410  0.0787 -0.2629  0.0233
29980W        W47504  15.639   9.904  15.554  0.2536 -0.0251 -0.0741
29981W        W47505  15.321   8.406  12.390  0.0027 -0.2231 -0.0891
29982W        W47506  11.902   3.111  17.587 -0.0591 -0.1568 -0.1724
29983W        W47507   6.888   3.421   3.766 -0.4477  0.1260 -0.1096
29984W        W47508   3.714   6.296   4.680 -0.3851  0.3113  0.0017
29985W        W47509   3.253   1.542   5.064 -0.1399 -0.1520  0.0654
29986W        W47510   6.433   3.968   4.391  0.2574 -0.0828 -0.2603
29987W        W47511  11.163  13.413  13.435  0.0216 -0.2663 -0.2339
29988W        W47512   6.653   6.191  17.027 -0.2968 -0.2025  0.0525
29989W        W47513   4.284   3.633  17.198  0.0920  0.1539  0.2838
29990W        W47514   3.452  11.926  16.932 -0.1027  0.0928 -0.0796
29991W        W47515   6.345   4.752   5.052 -0.2078  0.0883 -0.0996
29992W        W47516   9.412   9.462  15.377 -0.1083  0.0401 -0.2635
29993W        W47517  12.177   5.023   0.037  0.1187  0.0393  0.0310
29994W        W47518   4.510  14.196   2.303  0.0880  0.4285 -0.3140
29995W        W47519  12.662   3.931   1.476 -0.0723  0.3197  0.1794
29996W        W47520   4.772  10.271   5.456 -0.0329 -0.1230 -0.0668
29997W        W47521   8.305   6.757   2.208 -0.1248 -0.0840 -0.0889
29998W        W47522   2.029  11.896   1.801 -0.2533 -0.0957 -0.3639
29999W        W47523   4.090   0.645  12.787  0.0311 -0.1876 -0.0445
30000W        W47524  13.290   7.243   5.503 -0.3752 -0.0163  0.0606
30001W        W47525  15.998   3.582  15.946  0.0915  0.1121  0.1476
30002W        W47526   6.319   6.621  12.697  0.0028  0.0665 -0.1047
30003W        W47527  10.249  16.105  12.136 -0.2398  0.0060  0.0886
30004W        W47528   3.671  13.410  15.998  0.4015 -0.1838  0.0872
30005W        W47529  12.303  15.822  15.924  0.0638  0.2297 -0.1738
30006W        W47530  16.484   9.666   2.842 -0.2165 -0.0076 -0.2794
30007W        W47531   1.220   5.654   4.685  0.3152  0.3386  0.0690
30008W        W47532   8.957   5.226   3.208 -0.0322 -0.2139  0.2778
30009W        W47533   6.262  11.545  13.786 -0.0428 -0.3077 -0.0995
30010W        W47534  17.083  15.320  14.173 -0.3434 -0.0502  0.3015
30011W        W47535  15.203  11.981  16.442 -0.0339  0.0131 -0.1054
30012W        W47536   5.508  13.584  17.002  0.0554 -0.0968  0.1826
30013W        W47537   2.976  15.246  14.596  0.0004 -0.0821 -0.1159
30014W        W47538  15.187  10.700   0.440  0.2653 -0.2328  0.2129
30015W        W47539   8.801   0.092  17.451 -0.1386 -0.2602  0.1590
30016W        W47540   8.930   8.010   0.776 -0.2298  0.1472 -0.1478
30017W        W47541   7.428   2.260  14.974  0.0231  0.1073  0.1919
30018W        W47542   4.538   4.043   0.185  0.1768  0.1692 -0.1323
30019W        W47543   4.060  10.288   3.240 -0.3105  0.1761 -0.0760
30020W        W47544  12.960   3.651   0.558  0.0322  0.2685  0.0013
30021W        W47545   0.240  15.899  14.856  0.0175  0.1258  0.1819
30022W        W47546   3.792  11.420  16.351  0.0405 -0.1336 -0.1099
30023W        W47547   4.668  16.716  13.655 -0.2537  0.0897  0.0909
30024W        W47548   6.565  13.241  14.048  0.3827  0.1004  0.0613
30025W        W47549   9.378   1.246   4.659  0.0043  0.0594  0.3426
30026W        W47550  14.597   7.163   3.165  0.1123 -0.2600 -0.3099
30027W        W47551   6.520  10.454  14.670  0.0952  0.1939  0.0104
30028W        W47552   2.899  15.805   2.742 -0.2780 -0.2357 -0.0191
30029W        W47553   7.472   9.663   4.687  0.1025  0.0084  0.0116
30030W        W47554   2.998   8.342  16.847 -0.0546  0.0066  0.1892
30031W        W47555  13.169  12.705  13.677  0.2160 -0.1489  0.0547
30032W        W47556   1.344  13.814  14.546 -0.0405 -0.1918 -0.1428
30033W        W47557  16.201   5.865   2.771  0.1735 -0.1878 -0.0166
30034W        W47558  10.617   1.695  15.781  0.3249 -0.0499 -0.3212
30035W        W47559  16.327   8.586   3.514 -0.0558  0.0197 -0.1859
30036W        W47560  11.572  11.951   4.626 -0.1105 -0.1996 -0.1407
30037W        W47561  10.985   6.317   1.917  0.0349  0.0229 -0.0773
30038W        W47562   5.942   7.686   3.784  0.2093  0.3545 -0.0446
30039W        W47563  14.525  14.641   3.713  0.0145 -0.1788  0.2937
30040W        W47564  12.262  15.167  16.627  0.1127 -0.2441  0.0895
30041W        W47565   0.466   1.959   2.907 -0.0779  0.0226  0.2924
30042W        W47566   0.073   2.234  17.249  0.0839  0.0915  0.0239
30043W        W47567   9.821   8.159  16.883 -0.0077 -0.2570 -0.1451
30044W        W47568   3.274   7.097   2.302 -0.4160  0.0924  0.0805
30045W        W47569   7.991   3.885   0.494  0.2143  0.0687 -0.0008
30046W        W47570   2.698  15.930  17.356  0.1008 -0.2003 -0.0040
30047W        W47571   9.311   4.341  12.621  0.1771 -0.2401  0.0117
30048W        W47572  14.614  16.577   4.259 -0.1456  0.2749  0.0743
30049W        W47573  13.672  15.462  13.088 -0.3217  0.1053 -0.1117
30050W        W47574   0.824  14.930   5.160  0.2930 -0.3152  0.2119
30051W        W47575  12.208   9.928   4.464  0.0129 -0.0076  0.0689
30052W        W47576   5.577   5.756  17.720 -0.1467 -0.3158  0.1076
30053W        W47577  15.295   1.898   3.030 -0.0323  0.0183  0.1034
30054W        W47578   0.415   6.577   1.020 -0.3718 -0.1138  0.0994
30055W        W47579  17.042   2.825   3.855 -0.0928  0.0408 -0.1706
30056W        W47580  11.276   6.941   2.666 -0.1024 -0.0169  0.0910
30057W        W47581   4.586  11.803   2.652  0.0006  0.1307  0.0618
30058W        W47582   6.116   9.847  15.676  0.0103  0.0436  0.0906
30059W        W47583   9.170  16.074   2.472  0.0147  0.2699 -0.1110
30060W        W47584   5.102   9.527  17.665  0.0866 -0.0599 -0.0581
30061W        W47585   3.820  15.242  12.808 -0.0923  0.0057 -0.0287
30062W        W47586  10.870   4.966  17.654 -0.2111  0.1220  0.1398
30063W        W47587  12.025   7.024   0.186 -0.0180 -0.1883 -0.2728
30064W        W47588  10.559   8.055  16.181 -0.0854 -0.1186 -0.2341
30065W        W47589   0.154   8.776   4.431  0.0887 -0.0281  0.0681
30066W        W47590  16.294   5.075  16.445  0.1219  0.1025 -0.2581
30067W        W47591   9.411   1.842   1.832  0.1562 -0.2558  0.0280
30068W        W47592   6.879   8.822   2.742  0.2306 -0.0726 -0.3281
30069ION     NA47593   2.834  12.564  11.655 -0.0080 -0.0403  0.1100
30070ION     NA47594   6.826  10.189   6.136  0.0609 -0.2559  0.0267
30071ION     NA47595   4.531  11.628  15.379 -0.1702  0.0821 -0.2084
30072ION     NA47596   0.623   4.595  11.699  0.0969  0.0899  0.1199
30073ION     NA47597   8.499   6.472  11.356  0.2297  0.0405 -0.1023
30074ION     NA47598   3.759   9.711  11.386  0.0271 -0.0306 -0.1761
30075ION     NA47599  10.538   3.361   6.356 -0.1341 -0.0011 -0.0460
30076ION     NA47600  10.281   0.229   6.281 -0.0633 -0.0318  0.0816
30077ION     NA47601   1.758   5.298   6.569  0.0787  0.3024 -0.2177
30078ION     NA47602   1.868  17.017   6.399  0.0013 -0.1812  0.0094
30079ION     NA47603  14.799  10.999  11.299 -0.2444 -0.0642  0.1518
30080ION     NA47604   2.618   3.959  12.169  0.1671  0.0579  0.2173
30081ION     NA47605   5.739  11.432   6.375 -0.2374 -0.0600 -0.0849
30082ION     NA47606  10.069   1.124   6.304  0.0344 -0.5933 -0.4500
30083ION     NA47607  12.849  11.289   1.552  0.0734 -0.0083 -0.2425
30084ION     NA47608   2.829   5.643  11.833 -0.0452 -0.1397  0.1789
30085ION     NA47609  16.840   0.380   6.635 -0.2858  0.1431  0.2155
30086ION     NA47610  14.459   9.482   6.335  0.1677  0.3963  0.1864
30087ION     NA47611   0.448  13.636   0.051 -0.0089  0.0284 -0.3247
30088ION     NA47612   2.903   9.655  11.425  0.2036 -0.1379 -0.0418
30089ION     NA47613  17.132  11.216   2.767 -0.2963  0.3510 -0.3150
30090ION     NA47614  12.594  16.872   6.432 -0.0302  0.0163  0.2874
30091ION     NA47615   3.389   6.501  12.742 -0.4567  0.1179 -0.1979
30092ION     NA47616  14.556   5.186   4.452  0.0196  0.1402  0.1478
30093ION     NA47617  12.215  14.539   6.057 -0.2118 -0.0274  0.1020
30094ION     NA47618   5.100  16.859  11.794 -0.0363  0.0792 -0.2528
30095ION     NA47619   9.274   9.197   6.018 -0.2225 -0.2654 -0.1661
30096ION     NA47620  16.100   5.277   0.579 -0.1386 -0.1646 -0.0779
30097ION     NA47621  11.312   2.759  11.648 -0.2121 -0.0375 -0.0525
30098ION     NA47622  14.565  15.677  11.889 -0.2755  0.0668  0.2036
30099ION     NA47623   9.910   5.175  11.309 -0.2219  0.1653 -0.0152
30100ION     NA47624   7.028   0.081   6.102  0.0255  0.0303 -0.0152
30101ION     NA47625  16.154  12.224  11.539  0.1292 -0.1737  0.2808
30102ION     NA47626   5.662  12.784  11.535  0.2138 -0.1632 -0.3242
30103ION     NA47627   9.326   6.763  11.335 -0.1904 -0.0612 -0.3578
30104ION     NA47628   9.225   8.369  13.196  0.1365 -0.2309 -0.1481
30105ION     NA47629   3.246  17.149   6.584 -0.2289  0.2857  0.4247
30106ION     NA47630  12.662  16.164   5.426 -0.0085 -0.0810  0.0334
30107ION     NA47631   7.486  10.874   6.135  0.0665  0.0267 -0.1133
30108ION     NA47632   0.502   5.881  12.912 -0.0602  0.2121 -0.2473
30109ION     NA47633   5.745  10.422  11.400  0.2128 -0.0610 -0.2506
30110ION     NA47634   3.039  11.342   6.271 -0.3061 -0.1819  0.1874
30111ION     NA47635   9.462   0.367   1.418  0.1012 -0.0607 -0.1940
30112ION     NA47636   4.375   6.341  11.634 -0.0930  0.1215  0.1702
30113ION     NA47637  14.671   3.401  12.071  0.1453 -0.2578  0.1720
30114ION     NA47638   6.233  16.814   6.316 -0.0862 -0.0113 -0.0401
30115ION     NA47639  11.300   1.710  11.397 -0.0002 -0.3237  0.3435
30116ION     NA47640  15.053  14.929   1.086 -0.2626  0.0741 -0.0344
30117ION     NA47641   8.919  16.053   6.093  0.0008  0.0547  0.3547
30118ION     NA47642  14.649   7.032  11.421 -0.3017 -0.1463  0.1983
30119ION     NA47643   9.970  11.147   2.999 -0.0606  0.2728 -0.2807
30120ION     NA47644   3.333  12.061  13.108  0.2476 -0.3212 -0.2675
30121ION     NA47645   7.647   7.931   4.891 -0.0641 -0.1648 -0.0787
30122ION     NA47646  10.548   5.011   6.188 -0.1103  0.0050  0.1561
30123ION     NA47647   3.292   3.063  11.717 -0.1711 -0.0595  0.0372
30124ION     NA47648   1.370   2.592   0.150 -0.1246 -0.4753 -0.3487
30125ION     NA47649   4.502  14.495  13.534 -0.0403  0.3489 -0.1618
30126ION     NA47650   2.057  12.164   3.236 -0.0716  0.2106 -0.3108
30127ION     NA47651  12.929   1.600  11.963  0.1208  0.0975 -0.1164
30128ION     NA47652  11.814  13.975  11.085 -0.4006  0.0999  0.0925
30129ION     NA47653  10.825  16.675   6.089  0.0939  0.0764  0.2375
30130ION     NA47654   1.376  15.364  11.762 -0.1838  0.1575  0.1530
30131ION     NA47655   2.339   0.105  17.054 -0.0559 -0.3265  0.0614
30132ION     NA47656  12.373   1.102   4.821 -0.3619 -0.1616  0.1613
30133ION     NA47657   3.030   7.569   6.375  0.2666  0.1098 -0.5268
30134ION     NA47658   5.846   6.291  11.414 -0.1941 -0.1547 -0.1214
30135ION     NA47659   4.977   8.412   6.219 -0.1136 -0.0057 -0.2884
30136ION     NA47660   2.655  14.014   6.564 -0.4844  0.2036  0.0061
30137ION     NA47661   9.035  12.939   5.678 -0.0718  0.0388  0.0702
30138ION     NA47662   0.280  16.767   6.609  0.1548 -0.2213  0.2183
30139ION     NA47663  16.880   0.242  11.777  0.0886  0.0675  0.0658
30140ION     NA47664   7.995   2.226   6.264  0.0639 -0.1800  0.1498
30141ION     NA47665  11.426   4.479  11.637 -0.0367  0.1330  0.1502
30142ION     NA47666   7.649   0.743   6.212  0.0998 -0.0609 -0.1286
30143ION     NA47667   7.009  16.176   4.113  0.2649  0.2380 -0.1904
30144ION     NA47668  12.438   3.009  11.860  0.2767  0.1134 -0.3149
30145ION     NA47669   0.111  14.040   6.482  0.2934 -0.0018  0.3733
30146ION     NA47670  15.327   7.799   6.327  0.3478  0.2347  0.2533
30147ION     NA47671  15.674   4.748   0.094 -0.2386  0.1633 -0.2300
30148ION     NA47672   8.574  10.263  11.485  0.3370 -0.1487  0.0266
30149ION     NA47673  16.070   4.736  11.686 -0.0364 -0.0450  0.0871
30150ION     NA47674   8.229   4.351   6.295  0.3023  0.0220  0.1302
30151ION     NA47675   3.578  15.994  11.601  0.2774  0.5096  0.2710
30152ION     NA47676  12.971  10.352   5.085 -0.1735 -0.0583  0.0573
30153ION     NA47677   4.244   5.696  11.744 -0.3512 -0.2154 -0.0797
30154ION     NA47678   7.391   1.616   6.039  0.0089  0.2858 -0.1698
30155ION     NA47679   6.555  10.878  11.537  0.3155 -0.0590  0.2484
30156ION     NA47680  12.032   2.215   6.528  0.1782  0.3724  0.2963
30157ION     NA47681   5.424   7.829   4.503 -0.0384  0.0795 -0.0707
30158ION     NA47682  10.354   9.361  11.051  0.2453  0.5466 -0.1363
30159ION     NA47683   8.382   9.571   3.552 -0.3483 -0.3713 -0.2173
30160ION     NA47684   5.219   4.196   6.336  0.2046  0.1092 -0.1231
30161ION     NA47685  11.868   4.285   6.570  0.2160 -0.3713 -0.1355
30162ION     NA47686   7.094  12.555   3.575  0.1027  0.0516  0.2094
30163ION     NA47687   6.484  12.981   6.287 -0.0701  0.2396  0.1629
30164ION     NA47688   1.069  14.013   6.270  0.2644  0.1342 -0.1318
30165ION     NA47689   6.366   9.842  11.532  0.2742  0.0264 -0.0672
30166ION     NA47690   7.681   4.608  16.482  0.0473 -0.0183  0.0338
30167ION     NA47691   7.733   4.887   1.449 -0.0028 -0.1429 -0.0930
30168ION     NA47692  13.212   2.430  13.314  0.0903 -0.3336 -0.3528
30169ION     NA47693   1.746  15.274   6.577 -0.0442 -0.1415  0.2771
30170ION     NA47694   0.134  11.293   5.240 -0.3380  0.0641  0.1049
30171ION     NA47695  15.241  10.166  11.495  0.0815  0.1177 -0.0123
30172ION     NA47696   7.434   8.825   0.924  0.0164  0.3281 -0.1739
30173ION     NA47697   6.045   5.354   3.241  0.1226  0.2574 -0.0519
30174ION     NA47698  13.583  15.559  11.552  0.2850  0.3406  0.2335
30175ION     NA47699  14.685  14.765  11.616  0.2156  0.2193 -0.1209
30176ION     NA47700  16.630  13.006  11.642  0.2842  0.1938  0.2358
30177ION     NA47701   7.513   8.245   6.125  0.0116 -0.6475 -0.0081
30178ION     NA47702   0.524  15.780  11.982  0.1073 -0.1725 -0.1015
30179ION     NA47703  16.602   1.039  11.723 -0.0397  0.0461  0.0247
30180ION     NA47704  11.494   0.801  11.280  0.3390 -0.1769  0.3197
30181ION     NA47705   1.471   2.451   6.611  0.1037 -0.1513 -0.1691
30182ION     NA47706   8.999   7.902   5.998 -0.0892  0.1629  0.3023
30183ION     NA47707  10.223  14.615   5.605  0.0340  0.1866  0.2298
30184ION     NA47708  14.445   1.395  11.715  0.1151 -0.0772 -0.2604
30185ION     NA47709   3.196   1.882   6.611  0.2099  0.3592  0.2656
30186ION     NA47710   7.005  10.477  11.452  0.2723  0.1992 -0.0549
30187ION     NA47711   3.952   3.348   3.676  0.0722 -0.1986 -0.0709
30188ION     NA47712   0.408   9.345   6.346  0.1619 -0.1234 -0.0461
30189ION     NA47713  10.782   0.581   6.350 -0.0027  0.1854 -0.3498
30190ION     NA47714   1.770   3.902   1.576  0.1706  0.1309  0.0587
30191ION     NA47715   1.654  10.381  11.682  0.1325 -0.3508 -0.2134
30192ION     NA47716   0.581   0.473   6.578  0.0433 -0.0802  0.3844
30193ION     NA47717  16.103   6.774  11.556  0.0005  0.0181 -0.0668
30194ION     NA47718   3.367   8.365  11.340  0.1317  0.0246  0.0956
30195ION     NA47719  16.280   3.752  11.910  0.0235 -0.1045  0.2613
30196ION     NA47720   1.438  16.075   6.475 -0.1998  0.3346 -0.0422
30197ION     NA47721  14.491   7.839   3.736 -0.1404  0.3045 -0.1976
30198ION     NA47722   5.645  15.638  11.404 -0.2256 -0.1945 -0.2256
30199ION     NA47723  13.246   7.774  11.167 -0.0669 -0.3966 -0.2245
30200ION     NA47724   8.954   0.330  11.190  0.0273  0.0276  0.1948
30201ION     NA47725  12.877  12.062   0.978 -0.0167  0.0609  0.0832
30202ION     NA47726  11.154   0.949   1.611 -0.0353  0.1773 -0.3309
30203ION     NA47727   0.721   7.748  11.585  0.0200 -0.2091  0.3059
30204ION     NA47728  15.314  10.649   6.233  0.0374  0.2978 -0.0378
30205ION     NA47729   1.227   0.336   5.168 -0.4604  0.1887 -0.2410
30206ION     NA47730   3.585   3.378   6.424  0.0584  0.2598  0.1199
30207ION     NA47731   8.530   4.911   6.161 -0.0083  0.0931  0.0215
30208ION     NA47732   8.548   6.423   5.992 -0.0683  0.0286 -0.3723
30209ION     NA47733   0.406   7.215   6.457 -0.0109  0.2727  0.1850
30210ION     NA47734   4.751  13.788   6.265  0.0267  0.1953 -0.2906
30211ION     NA47735   6.758   9.433   5.673 -0.0761 -0.0324 -0.0401
30212ION     NA47736   7.602   9.262  11.402 -0.1507 -0.1626 -0.3001
30213ION     NA47737  11.738   5.433   1.016 -0.0813  0.1472  0.1349
30214ION     NA47738  11.914   6.991  11.371 -0.1974 -0.1155  0.3191
30215ION     NA47739  10.722  14.363  13.852 -0.2953  0.2229 -0.4456
30216ION     NA47740   1.272   3.982   4.792 -0.2114 -0.1241 -0.0757
30217ION     NA47741   6.748   8.250  11.112  0.0473 -0.1074  0.1452
30218ION     NA47742  14.299   5.437  11.778  0.1556  0.1335  0.1993
30219ION     NA47743  13.685   0.281  11.737  0.2526  0.1210 -0.2441
30220ION     NA47744  14.150   8.747  11.388  0.1674 -0.0582 -0.2622
30221ION     NA47745   8.274   3.555   6.264  0.2756  0.1623  0.3577
30222ION     NA47746   5.397  10.057  11.378 -0.1879  0.0036  0.1412
30223ION     NA47747  12.542  16.052   0.374  0.3378  0.2719 -0.0575
30224ION     NA47748   0.008  10.053  12.385  0.0161 -0.0299 -0.2003
30225ION     NA47749   7.009  15.432   6.073  0.1813  0.2191 -0.1726
30226ION     NA47750  14.070   1.623   6.684  0.1535 -0.1693 -0.0939
30227ION     NA47751   4.600  12.303  11.703  0.0200 -0.0615  0.3814
30228ION     NA47752   8.142  10.062  11.231  0.2485 -0.1319 -0.1857
30229ION     NA47753   2.490  15.082   6.391  0.1905  0.1901 -0.0234
30230ION     NA47754   4.531  11.382   6.261 -0.1475 -0.1279  0.1428
30231ION     NA47755  11.361   8.536  12.076 -0.1039 -0.0740 -0.4587
30232ION     NA47756  14.046  10.404  11.402 -0.0618 -0.2396  0.0886
30233ION     NA47757   5.596  15.168   3.118 -0.0797  0.0008 -0.2444
30234ION     NA47758   9.232  15.555  14.405 -0.0399 -0.0542  0.1197
30235ION     NA47759  14.500   2.313  11.796  0.0867  0.0061  0.2288
30236ION     NA47760  11.313  17.108  11.189  0.1181 -0.1582  0.0658
30237ION     NA47761  11.701  10.158  11.422  0.2485 -0.2112  0.0243
30238ION     NA47762   0.105   3.948  11.975 -0.3873 -0.0777  0.2279
30239ION     NA47763   2.931  16.763  11.552  0.0307  0.1365  0.3160
30240ION     NA47764  13.503  16.527  11.800 -0.0877 -0.2824  0.1008
30241ION     NA47765   9.892  16.506   6.106 -0.1467  0.4060  0.0922
30242ION     NA47766  13.438  13.608  17.521 -0.0051 -0.0419  0.1462
30243ION     NA47767   9.603   3.481   6.340  0.0217 -0.0099 -0.0653
30244ION     NA47768   7.605  15.635   6.361 -0.0901 -0.1461 -0.1747
30245ION     NA47769  16.465   7.978  12.108  0.1201  0.3607 -0.4622
30246ION     NA47770   6.097  11.646  11.463 -0.2139  0.2023  0.4938
30247ION     NA47771   7.899   5.996  15.170 -0.2191 -0.2235  0.1750
30248ION     NA47772  16.364  16.065   6.083 -0.0918 -0.3514  0.0374
30249ION     NA47773   5.102  10.773   6.038  0.1289 -0.0851 -0.1403
30250ION     NA47774  17.151   7.004   5.731 -0.3775 -0.1848  0.2295
30251ION     NA47775   9.141   6.995  12.346  0.1769  0.0263 -0.3620
30252ION     NA47776   6.892  13.718  11.231 -0.0449  0.0500  0.1325
30253ION     NA47777   2.246  12.621   6.486  0.2028  0.3250  0.1758
30254ION     NA47778   9.948   8.405   5.979  0.1742  0.1149  0.1282
30255ION     NA47779   0.890   6.294   6.588 -0.2276 -0.2286 -0.1247
30256ION     NA47780   9.843   8.186  11.262 -0.1938  0.1978  0.1602
30257ION     NA47781   5.046  12.019   1.976 -0.1416  0.0479 -0.1439
30258ION     NA47782   6.819   1.384  11.594 -0.1977 -0.0004  0.0408
30259ION     NA47783   3.899  16.844   5.684 -0.0384 -0.2267 -0.2855
30260ION     NA47784   3.835   1.780  11.725  0.0239 -0.1315  0.2490
30261ION     NA47785   0.013   2.631   6.781 -0.0847  0.2199 -0.0681
30262ION     NA47786   1.163   6.799  12.033 -0.0667 -0.1061 -0.0568
30263ION     NA47787   7.656   8.984   5.740  0.1165 -0.0703  0.0972
30264ION     NA47788  13.072   6.649   6.240  0.0576  0.2966  0.1068
30265ION     NA47789   0.232  15.919   0.130  0.2292  0.1328 -0.0717
30266ION     NA47790   7.371  13.562  11.876  0.1519  0.1235 -0.0200
30267ION     NA47791   3.438  14.594   6.405  0.1475  0.2456  0.1113
30268ION     NA47792   4.394   9.973  11.264  0.0783 -0.0779 -0.1472
30269ION     NA47793  10.375   8.912   3.094  0.1556  0.1741 -0.2117
30270ION     NA47794  10.588   4.010  13.174 -0.3876  0.0615  0.0597
30271ION     NA47795  13.941  14.482  11.472 -0.1269 -0.2401  0.1644
30272ION     NA47796   4.259   8.153   6.482  0.0462 -0.0050 -0.1654
30273ION     NA47797   5.450   5.481  16.556 -0.1599 -0.1024 -0.0030
30274ION     NA47798   1.018  14.629  11.716 -0.2182 -0.1139 -0.3087
30275ION     NA47799  14.810  12.538   3.760  0.1251 -0.4053 -0.0842
30276ION     NA47800  12.935   0.611  11.553 -0.1282 -0.4713 -0.1231
30277ION     NA47801  10.371  13.024   5.793  0.2034  0.1109 -0.1722
30278ION     NA47802   7.307  14.693  11.431  0.2010  0.1132  0.0005
30279ION     NA47803   0.811   5.324   6.529 -0.3510  0.0517  0.0089
30280ION     NA47804   4.578   3.808   6.729 -0.1629  0.1171  0.1075
30281ION     NA47805  17.050   7.257  11.622 -0.2160 -0.0622  0.0773
30282ION     NA47806  16.732   4.543  11.557 -0.2917  0.3097  0.2200
30283ION     NA47807   0.360   8.620  11.424  0.0860  0.1393 -0.1392
30284ION     NA47808  15.117  13.973  13.578 -0.1753 -0.1404  0.0021
30285ION     NA47809   1.442   0.942  11.818  0.2116  0.0106 -0.0868
30286ION     NA47810  16.751   1.776   3.014  0.2835 -0.1050  0.0201
30287ION     NA47811  10.256   8.749  12.695  0.0171  0.2553  0.0899
30288ION     NA47812   4.673   0.639  11.750  0.0817 -0.0206  0.1273
30289ION     NA47813  14.669  11.999  11.396  0.2110 -0.0257  0.0164
30290ION     NA47814  15.323  12.562  11.544  0.3563  0.0377  0.0731
30291ION     NA47815  11.734   6.011   6.275  0.0607 -0.1013  0.1989
30292ION     NA47816  11.575  11.359  11.589 -0.0509 -0.0971 -0.0768
30293ION     NA47817  14.613   4.020  13.778  0.1172  0.0430  0.0095
30294ION     NA47818  13.483  13.845   2.700  0.2796  0.0361 -0.1547
30295ION     NA47819  16.846   9.299  11.487  0.0234 -0.2510  0.3407
30296ION     NA47820   6.971   6.769  14.346  0.2142 -0.0048  0.0940
30297ION     NA47821  12.437   7.526   0.280  0.2531 -0.2479 -0.0520
30298ION     NA47822  15.472   7.269  11.525 -0.0121  0.2234 -0.1402
30299ION     NA47823  14.528  13.844  11.452  0.0522  0.0054  0.1383
30300ION     NA47824   9.956  10.492   6.046 -0.2758 -0.0831 -0.0072
30301ION     NA47825   3.166   3.789   6.667  0.3968  0.0746 -0.0759
30302ION     NA47826  15.470  13.935   6.450 -0.1514  0.0771  0.0983
30303ION     NA47827   5.069  12.030   6.481  0.1171  0.1752 -0.0284
30304ION     NA47828  13.894   6.949   6.285 -0.0280 -0.0823  0.0116
30305ION     NA47829   5.512   5.612   6.306  0.1120 -0.1192  0.1806
30306ION     NA47830  12.955   4.267   6.585 -0.0530 -0.1106 -0.0555
30307ION     NA47831  12.116   6.478   6.458 -0.0775  0.1286 -0.0781
30308ION     NA47832   2.015   9.002   6.516 -0.1038 -0.1942  0.1287
30309ION     NA47833   5.821   3.304   3.923  0.2117  0.0173 -0.5128
30310ION     NA47834  11.379  11.493   6.085 -0.2776 -0.2078  0.2287
30311ION     NA47835  11.370   4.913   6.437 -0.1601  0.1858  0.0919
30312ION     NA47836  11.490  12.946   6.064  0.1733 -0.0262  0.2663
30313ION     NA47837   3.338  11.506   0.891 -0.2272  0.0441  0.0096
30314ION     NA47838   6.318   1.400   1.989  0.2769 -0.2499 -0.0439
30315ION     NA47839   0.684   8.410   6.252  0.2174 -0.0934 -0.2625
30316ION     NA47840  14.581   0.505  11.753 -0.1322  0.3460 -0.0914
30317ION     NA47841  11.317   8.576  11.260  0.0505 -0.2863 -0.1656
30318ION     NA47842   2.050  16.721  11.694  0.0234  0.3907 -0.0907
30319ION     NA47843  10.706   1.379   2.393 -0.0098 -0.0335 -0.1058
30320ION     NA47844  16.567   3.854   6.866  0.1179  0.3026 -0.0261
30321ION     NA47845  15.695  14.258  11.625  0.1889 -0.2134 -0.0369
30322ION     NA47846  16.680   8.369  13.432  0.3028 -0.2005  0.0662
30323ION     NA47847   5.246  15.077  16.589 -0.1240 -0.2384  0.4290
30324ION     NA47848   1.975  12.560  11.578 -0.0558 -0.0706  0.1760
30325ION     NA47849  12.646  11.904  17.348 -0.1452 -0.0286 -0.2425
30326ION     NA47850   8.391  13.435  11.991 -0.2564  0.0326  0.0341
30327ION     NA47851   7.664  11.337   6.050  0.1986  0.0301 -0.0639
30328ION     NA47852   9.442   8.133   6.062 -0.1338  0.0446 -0.1477
30329ION     NA47853   1.895  10.503   5.877  0.1503  0.4185 -0.0705
30330ION     NA47854   0.209   5.268   6.270 -0.0730 -0.1870  0.0840
30331ION     NA47855  10.601   8.004   6.038 -0.1103  0.0767 -0.0313
30332ION     NA47856   7.669  11.989   2.675 -0.2747  0.1200  0.0581
30333ION     NA47857   1.671   7.253  11.520  0.1571  0.1435  0.1718
30334ION     NA47858  16.323  15.951  11.473 -0.0038 -0.0375 -0.0909
30335ION     NA47859   3.784  10.660  16.232 -0.0061  0.2075  0.1241
30336ION     NA47860   5.966   4.388  11.699 -0.2124  0.4379 -0.0409
30337ION     NA47861   0.689   8.972  11.605 -0.0277  0.0113  0.2588
30338ION     NA47862  16.660  13.334   6.552 -0.0513 -0.2693 -0.0181
30339ION     NA47863   8.863   2.277  10.992 -0.1766 -0.0751 -0.0400
30340ION     NA47864   5.974  16.097  16.970 -0.0525 -0.0629 -0.1288
30341ION     NA47865   7.365  12.838   6.120 -0.0538 -0.0991 -0.0608
30342ION     NA47866   4.468   1.233   1.067  0.0674 -0.0778  0.0260
30343ION     NA47867   1.409   3.461  15.760  0.2499  0.0864  0.3306
30344ION     NA47868  12.864  15.017  11.368  0.2763 -0.1291  0.1216
30345ION     NA47869  11.152   7.619  11.349  0.0105  0.3544  0.2211
30346ION     NA47870   1.246  14.928   5.836 -0.0353 -0.0189  0.1934
30347ION     NA47871  10.601  16.653   4.943  0.0706  0.0269 -0.0690
30348ION     NA47872   2.298  16.208  12.666  0.1049  0.1424 -0.2039
30349ION     NA47873   9.148   3.164   6.331  0.2170  0.1199 -0.2183
30350ION     NA47874   7.039   9.462  13.623  0.0384  0.0276  0.1129
30351ION     NA47875  15.928   0.460  12.010 -0.0425 -0.2253 -0.1728
30352ION     NA47876   6.696  16.684  17.520 -0.0309 -0.1146 -0.1317
30353ION     NA47877  13.559   4.541   1.768  0.5593 -0.0313  0.3719
30354ION     NA47878  13.204   5.306   6.359 -0.0931 -0.0561 -0.0003
30355ION     NA47879   9.808   6.222   6.261 -0.2763  0.1226  0.2193
30356ION     NA47880   6.180  15.946   6.438  0.0493 -0.0782  0.4157
30357ION     NA47881   7.223  11.868   6.235 -0.1318 -0.1025  0.3085
30358ION     NA47882   3.650   8.030   2.083 -0.0373  0.1828  0.0451
30359ION     NA47883  13.698   0.771  16.886 -0.0514 -0.0597 -0.0973
30360ION     NA47884   0.669   5.901   5.413 -0.1015  0.1051 -0.3666
30361ION     NA47885   2.253  10.999   0.646 -0.1072 -0.0608  0.1352
30362ION     NA47886  16.216  13.277   6.287  0.3651  0.2379  0.3193
30363ION     NA47887  16.644   8.663   6.226  0.3050  0.2925  0.0169
30364ION     NA47888  14.519  10.794   6.207  0.1412 -0.3250 -0.2395
30365ION     NA47889  11.631  16.628  17.299  0.1267 -0.1074  0.0253
30366ION     NA47890  16.972   0.966   6.713 -0.3196  0.2035  0.1715
30367ION     NA47891   9.781  12.614  11.200 -0.1499 -0.2239  0.2533
30368ION     NA47892   8.017  15.235  11.207 -0.1382 -0.0108 -0.1099
30369ION     NA47893   0.804   3.218   6.311  0.0787 -0.0930 -0.1519
30370ION     NA47894   6.639   0.716  11.319  0.2090  0.0867  0.3289
30371ION     NA47895  11.236  10.472   4.201  0.3789 -0.0120 -0.1876
30372ION     NA47896   8.591   9.304  11.232  0.1188  0.0815  0.1881
30373ION     NA47897  13.405   6.924  11.387 -0.1730 -0.4229  0.0013
30374ION     NA47898   8.026   9.763   5.746  0.0761 -0.3788  0.1460
30375ION     NA47899   6.746   1.001   6.162 -0.0728  0.0574 -0.1953
30376ION     NA47900  15.919   5.873  11.479 -0.1700  0.2088  0.1483
30377ION     NA47901   3.658   0.098   1.890  0.0856 -0.0735  0.1767
30378ION     NA47902  12.301   8.507  12.312  0.2005 -0.2293  0.1356
30379ION     NA47903   8.521   2.879   5.682  0.2665 -0.1114  0.0739
30380ION     NA47904   2.531   3.833   3.774  0.2899 -0.1612 -0.3572
30381ION     NA47905   3.861   8.787   6.141 -0.1080  0.2244  0.2088
30382ION     NA47906   4.049  13.662  11.412 -0.1620 -0.3583  0.2366
30383ION     NA47907   1.687   4.358   6.660  0.2857  0.3798 -0.1285
30384ION     NA47908   9.574  11.677  11.430  0.1031 -0.0218  0.1156
30385ION     NA47909   1.418   1.999  11.542 -0.4950  0.1355  0.1811
30386ION     NA47910  12.652   5.689  11.721  0.1040 -0.2045 -0.2531
30387ION     NA47911   7.894  14.683   6.235  0.2324  0.1363  0.0129
30388ION     NA47912   2.947   3.936  11.702  0.0467  0.2262 -0.1274
30389ION     NA47913   3.667  14.479  11.481 -0.0590 -0.0062  0.0233
30390ION     NA47914   3.793   0.753  11.665  0.1620  0.2228 -0.0898
30391ION     NA47915  11.696   5.459  11.645  0.0121  0.0504  0.1308
30392ION     NA47916   8.907   8.369  11.409  0.2454  0.1115  0.2164
30393ION     NA47917   2.995   4.902  11.777 -0.1723  0.3512 -0.0162
30394ION     NA47918   8.787   1.362  14.774 -0.0219  0.0391 -0.0345
30395ION     NA47919   6.918   8.776   6.231 -0.2402 -0.2602 -0.0572
30396ION     NA47920   9.853   2.571   6.427 -0.1907 -0.0996  0.0780
30397ION     NA47921   5.823   8.167   6.324 -0.2017  0.3477 -0.1955
30398ION     NA47922  12.462   4.696  11.572  0.0962  0.3152  0.3347
30399ION     NA47923   9.161   5.279  11.185  0.2009 -0.3041  0.2049
30400ION     NA47924  15.308   8.935   6.180 -0.0435 -0.1000 -0.0085
30401ION     NA47925  13.051   3.566  11.742  0.0474 -0.0928  0.3158
30402ION     NA47926  13.980   9.562  11.068  0.2134 -0.2332  0.0648
30403ION     NA47927   6.650   4.402   6.296 -0.0788 -0.1832  0.0464
30404ION     NA47928   5.196   2.803   6.617 -0.2145 -0.0597  0.1647
30405ION     NA47929   0.381   6.202  11.694  0.1943  0.1403  0.8233
30406ION     NA47930   1.210  10.661   6.341  0.2942  0.1483 -0.0550
30407ION     NA47931  10.863  10.650   6.192 -0.1969 -0.0680  0.1129
30408ION     NA47932  13.928  13.058  11.344  0.3562  0.0698 -0.4402
30409ION     NA47933   5.251  13.708  16.557 -0.0101  0.0393  0.1893
30410ION     NA47934   4.692  13.217  11.571 -0.0994 -0.0889 -0.0388
30411ION     NA47935   8.057  12.760  11.576  0.0916  0.0725 -0.0490
30412ION     NA47936  12.543  14.153  11.346 -0.1638 -0.0937  0.0422
30413ION     NA47937  11.033   4.173   6.117 -0.0634 -0.1945  0.3390
30414ION     NA47938  13.539   5.612   0.680  0.0155 -0.1539  0.0015
30415ION     NA47939  12.301   9.563  11.015 -0.0430 -0.2139  0.2015
30416ION     NA47940  12.669   1.296   6.688 -0.4053 -0.1568 -0.1111
30417ION     NA47941   9.638  11.734   6.046 -0.1029  0.1696 -0.2329
30418ION     NA47942   4.737  14.352   3.738  0.2073 -0.0574  0.1392
30419ION     NA47943   4.495  16.509   6.628 -0.1889  0.0732  0.0796
30420ION     NA47944  13.586   1.499   6.655 -0.0943  0.1278 -0.1069
30421ION     NA47945   8.005  14.024  16.450  0.2493 -0.3093 -0.4992
30422ION     NA47946   8.415   9.128  14.599  0.1009  0.0633  0.0117
30423ION     NA47947   8.019  15.969   6.303 -0.1899  0.1477  0.2794
30424ION     NA47948   5.570   1.561   6.415 -0.1169  0.3905  0.1758
30425ION     NA47949   0.134  14.364  11.756 -0.1477 -0.0835  0.0277
30426ION     NA47950  11.616   6.715   5.208 -0.0306 -0.1491  0.0560
30427ION     NA47951  11.310   1.258  13.617 -0.0920 -0.0216  0.2117
30428ION     NA47952  14.763   7.167   6.118 -0.1229  0.2725 -0.0218
30429ION     NA47953   7.443   9.959   3.476 -0.0908  0.2106 -0.0595
30430ION     NA47954  13.571   2.924   6.520  0.0015  0.2931 -0.2344
30431ION     NA47955   1.986   8.215  11.574  0.2010  0.1736  0.0746
30432ION     NA47956  13.149   3.759   4.344  0.0107 -0.0780 -0.2724
30433ION     NA47957   4.853  15.441  11.460  0.0443 -0.3936 -0.0572
30434ION     NA47958  15.373  15.077  11.548  0.0630  0.4564 -0.2723
30435ION     NA47959  13.507   3.634   6.623  0.0006  0.2888 -0.0535
30436ION     NA47960   3.293   8.910  11.284  0.1736  0.1118  0.2385
30437ION     NA47961   2.737  15.980  16.598 -0.0525  0.0273  0.1313
30438ION     NA47962  13.786  10.467   6.196  0.0741 -0.1118 -0.0073
30439ION     NA47963   0.659  11.628  11.601 -0.1182  0.0271  0.0751
30440ION     NA47964   1.348   9.719   6.347 -0.0865  0.1282  0.2166
30441ION     NA47965  16.616  10.167  11.478  0.1952  0.0131 -0.0923
30442ION     NA47966   0.351   4.948  11.805  0.2825 -0.0630  0.0215
30443ION     NA47967   9.329  13.210  11.203 -0.1370 -0.0216 -0.1163
30444ION     NA47968   8.415  16.446  16.392 -0.2582  0.4019 -0.0330
30445ION     NA47969  13.195   7.510   6.213  0.1936  0.0020 -0.0214
30446ION     NA47970  10.414  11.357   6.081 -0.2638 -0.0203  0.2242
30447ION     NA47971   4.133  12.247   6.421  0.1115  0.2344  0.0564
30448ION     NA47972  14.339  13.189   6.382  0.2173  0.0120  0.1678
30449ION     NA47973   0.852  15.538   2.840  0.0680  0.0037 -0.0696
30450ION     NA47974  12.949  13.123  11.156 -0.0681 -0.0062  0.1706
30451ION     NA47975   1.876  14.398   6.442 -0.0598  0.1242  0.1637
30452ION     NA47976   1.510   0.145  11.635 -0.0523 -0.0238  0.0345
30453ION     NA47977  13.284   7.985   3.248 -0.2296 -0.2017  0.1386
30454ION     NA47978  10.467  16.843   2.248  0.2747  0.1161  0.1059
30455ION     NA47979   0.734   9.847   6.146  0.0899  0.1815 -0.0677
30456ION     NA47980   0.634  10.634  11.491 -0.2297  0.0443  0.0442
30457ION     NA47981  15.499   1.285   6.530 -0.3662  0.0162  0.0029
30458ION     NA47982  14.299   5.644   2.044  0.1814 -0.4203  0.0759
30459ION     NA47983  12.160  15.288   6.242 -0.2863  0.1285 -0.0505
30460ION     NA47984   0.142  13.432  11.766  0.2907  0.3190  0.1064
30461ION     NA47985   4.209   4.931   6.487 -0.1681  0.3194  0.3132
30462ION     NA47986  16.047   2.689  11.933 -0.2790 -0.1522 -0.1408
30463ION     NA47987  15.525   3.971  11.674  0.0864  0.1115  0.0592
30464ION     NA47988  16.428   7.474  11.419 -0.2303 -0.0795 -0.0992
30465ION     NA47989   8.029  15.593  17.359 -0.0134 -0.0263  0.0942
30466ION     NA47990  14.172   6.263   0.121 -0.0035 -0.0328 -0.0342
30467ION     NA47991   7.853   8.999   6.198  0.4097 -0.0002 -0.0212
30468ION     NA47992   0.662   1.652   1.080  0.0586 -0.0802 -0.0749
30469ION     NA47993   4.444   0.127  11.566 -0.1815  0.2689  0.3332
30470ION     NA47994  13.271   9.998  11.356  0.0674 -0.1011  0.2174
30471ION     NA47995   8.674  16.845   6.224  0.0221 -0.0472  0.0370
30472ION     NA47996   6.436  12.100  11.329 -0.3997  0.2196 -0.0336
30473ION     NA47997   6.668   5.006  11.555  0.2853 -0.2195 -0.0699
30474ION     NA47998   1.143  10.360   3.936  0.1152 -0.2281  0.1343
30475ION     NA47999  14.356   6.121  11.553  0.2145 -0.1370 -0.0198
30476ION     NA48000   5.756   0.186  14.170 -0.3227 -0.3289  0.0113
30477ION     NA48001  11.891   5.975  11.401  0.1817  0.0763 -0.1041
30478ION     NA48002   8.791  12.118   6.008 -0.1243  0.0742  0.3028
30479ION     NA48003  13.584   6.072  11.663 -0.0662 -0.1577 -0.0064
30480ION     NA48004  15.094  11.109  17.663  0.0541  0.2824  0.0588
30481ION     NA48005   2.576  15.914  11.811 -0.0077 -0.1696 -0.0081
30482ION     NA48006   2.747  16.457   6.511  0.1688 -0.0210 -0.1203
30483ION     NA48007   6.745   3.573   6.028 -0.1259 -0.3799  0.3454
30484ION     NA48008   1.857   7.634   1.126 -0.0512 -0.2204  0.1696
30485ION     NA48009   1.012   3.404   2.837 -0.0919  0.2320 -0.0891
30486ION     NA48010  15.947   1.258  11.676 -0.0560 -0.5163 -0.4400
30487ION     NA48011   0.282  16.945   1.185  0.0795  0.0988 -0.0312
30488ION     NA48012   6.041  14.727  11.433  0.3185  0.2165 -0.1522
30489ION     NA48013  15.366   1.216   0.243 -0.1115 -0.1574  0.0638
30490ION     NA48014  12.414  12.249   2.303  0.0043 -0.0776 -0.0057
30491ION     NA48015   2.024  12.004  11.704 -0.2363  0.1071  0.2374
30492ION     NA48016   0.453   4.020   5.404 -0.1304 -0.3602  0.1286
30493ION     NA48017  17.062   7.647   2.252 -0.2841 -0.0636  0.0599
30494ION     NA48018   2.276   3.854   6.727  0.3162  0.3221  0.3089
30495ION     NA48019   0.808   2.641  11.566 -0.0509 -0.1807 -0.1316
30496ION     NA48020   5.885   1.081  11.397  0.2448  0.0277 -0.1111
30497ION     NA48021   7.807  14.383   2.007 -0.2261  0.0510 -0.2320
30498ION     NA48022   5.516  16.429   6.489 -0.0559  0.3311 -0.0008
30499ION     NA48023  10.925   9.805  11.034  0.0912 -0.0135 -0.1145
30500ION     NA48024   9.973  11.787  12.226 -0.1798 -0.0898 -0.0729
30501ION     NA48025   3.691   9.936  17.556 -0.2323  0.0831  0.1315
30502ION     NA48026  11.868   7.783  11.111  0.1005  0.0210  0.1195
30503ION     NA48027   2.309   5.258   6.782  0.1400  0.1641 -0.1715
30504ION     NA48028  13.997  15.857   6.412  0.1855 -0.0505 -0.0847
30505ION     NA48029  16.518  16.798   5.412  0.2512  0.1592 -0.0933
30506ION     NA48030  16.850   3.510  16.688 -0.1356 -0.0274 -0.0234
30507ION     NA48031   7.541   0.858  11.216 -0.0258  0.0431  0.1904
30508ION     NA48032   8.948  15.932   1.938 -0.1233  0.3892  0.1386
30509ION     NA48033   0.385  13.174   6.335  0.1457 -0.1232  0.1115
30510ION     NA48034  13.324   5.102  11.684  0.2027 -0.2183  0.0347
30511ION     NA48035  16.339   1.931  11.642  0.1137  0.2192  0.2388
30512ION     NA48036  11.164   7.861   5.558  0.0285 -0.0243 -0.0459
30513ION     NA48037  15.730  11.024  12.991 -0.2520 -0.1241  0.0549
30514ION     NA48038  10.695   0.629  11.184  0.1595 -0.0329  0.0120
30515ION     NA48039   5.234   8.015  17.435  0.1510  0.0555  0.3035
30516ION     NA48040   6.550  12.764  14.112  0.1134  0.1481 -0.2156
30517ION     NA48041  16.218  14.846  11.745 -0.0663 -0.0669  0.0194
30518ION     NA48042   7.748   0.399  11.138 -0.1701  0.1898  0.0630
30519ION     NA48043  17.094  12.202  11.682 -0.1994 -0.2652  0.1599
30520ION     NA48044   5.309  11.134  11.270  0.0088 -0.0958 -0.1638
30521ION     NA48045   9.299   0.306   6.466 -0.2747 -0.4550 -0.2526
30522ION     NA48046   6.758  15.926  11.389 -0.0915  0.1222 -0.2327
30523ION     NA48047  13.874   0.426   3.548 -0.1117  0.1588 -0.5659
30524ION     NA48048   2.692   8.346  12.751 -0.0603 -0.2145 -0.0016
30525ION     NA48049  16.827  10.335   5.472 -0.0194  0.1826  0.0523
30526ION     NA48050   4.758  11.399  11.342  0.0815 -0.0187  0.0811
30527ION     NA48051   6.968   2.262  11.576  0.1132 -0.1931 -0.2084
30528ION     NA48052  14.867   6.800   6.573  0.2552 -0.3894  0.4053
30529ION     NA48053   0.067  11.729   6.441 -0.0431  0.1754 -0.0425
30530ION     NA48054   0.407   1.125  12.641  0.0561  0.2920 -0.0933
30531ION     NA48055   8.863  15.042  11.335  0.1488 -0.2384  0.3971
30532ION     NA48056  12.631   4.560   0.726  0.2539  0.0431 -0.1001
30533ION     NA48057   3.590  10.501   6.126  0.0556  0.1724 -0.0094
30534ION     NA48058   5.491   3.140  11.633  0.1111  0.0779 -0.0979
30535ION     NA48059  14.000   7.878   6.390  0.1542  0.1944 -0.0839
30536ION     NA48060  15.389   5.214   3.994  0.1206  0.2069  0.1044
30537ION     NA48061   8.844   1.888  12.307 -0.1100  0.1339 -0.2615
30538ION     NA48062   7.560   8.366  11.270  0.0709  0.0650 -0.1731
30539ION     NA48063  14.535   5.822   6.274  0.1367 -0.2562 -0.0390
30540ION     NA48064  11.762   3.666  11.506 -0.0109  0.0320 -0.1413
30541ION     NA48065   2.359   6.201  12.643 -0.0968  0.0772 -0.1493
30542ION     NA48066  11.883   8.936   6.290  0.0316 -0.0756  0.1802
30543ION     NA48067   3.344  10.675  11.749 -0.3642 -0.0363 -0.1141
30544ION     NA48068   5.547  15.463   6.582  0.0212 -0.0724  0.1767
30545ION     NA48069  10.174  14.491   6.077 -0.0527  0.0802 -0.2795
30546ION     NA48070  17.009   2.611  11.880  0.0466 -0.1268  0.2017
30547ION     NA48071  13.412   1.246   5.601 -0.2325  0.1687  0.0065
30548ION     NA48072   3.917  16.051   6.257  0.2042 -0.0382 -0.0693
30549ION     NA48073  12.431  14.868  12.548  0.0782  0.2328  0.2661
30550ION     NA48074  16.886  11.336   6.157  0.0255  0.2100 -0.3348
30551ION     NA48075   1.707   2.863  11.807 -0.2042 -0.2141 -0.1309
30552ION     NA48076  13.341   9.051  11.159 -0.1403 -0.2016 -0.0912
30553ION     NA48077   9.736   2.155  11.133  0.1224  0.1154  0.2799
30554ION     NA48078   4.994   0.675   4.018  0.1807 -0.0880  0.1770
30555ION     NA48079   4.704   9.566  11.127  0.1140  0.1461  0.2796
30556ION     NA48080  14.706  13.914   1.253  0.2330  0.2532 -0.0009
30557ION     NA48081   3.879   2.492   6.608 -0.0471 -0.2095  0.0543
30558ION     NA48082   5.069  11.668  12.955  0.1586 -0.0004  0.2545
30559ION     NA48083   7.577   6.085  11.183  0.0716 -0.2686  0.1472
30560ION     NA48084   8.171   5.316   6.163 -0.1294  0.2509  0.2841
30561ION     NA48085   0.935  13.669  11.553 -0.1700 -0.2576 -0.3916
30562ION     NA48086  16.810   6.465   1.781 -0.1613  0.4049 -0.1179
30563ION     NA48087   3.432  13.720   6.416  0.2912 -0.1849 -0.2305
30564ION     NA48088  11.625  12.225   3.743 -0.1216 -0.0743  0.0429
30565ION     NA48089  13.561  14.064   6.281  0.0051  0.2081 -0.0042
30566ION     NA48090  15.877   6.460   6.620 -0.1894  0.0638 -0.0670
30567ION     NA48091  14.753   5.035   6.389  0.0326 -0.0139 -0.0684
30568ION     NA48092   3.591  12.110  11.707 -0.2191 -0.1463  0.1988
30569ION     NA48093   3.139   5.598   6.684 -0.0646  0.0485 -0.0386
30570ION     NA48094   1.596   7.772   4.186  0.0068 -0.2918  0.1140
30571ION     NA48095   0.281   3.110  11.709  0.0607 -0.1235 -0.2636
30572ION     NA48096  12.069  16.352  11.226 -0.0809  0.0129 -0.1393
30573ION     NA48097   9.404   9.745   6.256  0.1106 -0.1791  0.0301
30574ION     NA48098  10.092   4.147   6.303 -0.0208  0.0480 -0.0867
30575ION     NA48099   7.239   2.444   5.671  0.2238 -0.1127  0.0238
30576ION     NA48100  13.481   8.363   6.152 -0.1633 -0.0703  0.0761
30577ION     NA48101   5.377  13.892  14.414  0.0672  0.2997 -0.3945
30578ION     NA48102   4.202   2.246  13.430 -0.1209 -0.1198  0.2408
30579ION     NA48103   3.110  15.634   6.349  0.0350 -0.3736 -0.1652
30580ION     NA48104  16.310  10.778   6.198  0.1441 -0.1315 -0.4333
30581ION     NA48105  13.211   9.147  15.807 -0.1168  0.2284  0.2730
30582ION     NA48106  14.018   7.637  11.300  0.0398 -0.1581 -0.0872
30583ION     NA48107  15.889   0.438   6.627 -0.1264 -0.2771 -0.1764
30584ION     NA48108  11.684   0.976   6.500 -0.1032 -0.1409 -0.1084
30585ION     NA48109   2.507  13.405  11.548 -0.0059  0.1794  0.0491
30586ION     NA48110  15.720  13.322  11.610 -0.2522 -0.1480 -0.0226
30587ION     NA48111  15.381  14.308  17.718 -0.0457  0.0101  0.0022
30588ION     NA48112   4.309   5.610   4.135 -0.1406 -0.0713  0.2334
30589ION     NA48113   6.530  14.949  11.349  0.2036 -0.0446 -0.0313
30590ION     NA48114   8.820  11.338  11.349  0.3097  0.0021 -0.0989
30591ION     NA48115  14.835   5.984  13.663 -0.1518 -0.2881 -0.1501
30592ION     NA48116  16.925   9.536   5.971  0.0962 -0.0754  0.0437
30593ION     NA48117   3.943   2.633   4.702  0.0875  0.2224  0.0613
30594ION     NA48118  15.743   8.605   6.227  0.2753 -0.0771 -0.0533
30595ION     NA48119   3.259   5.939   5.486  0.4181  0.2761 -0.2374
30596ION     NA48120   8.476  13.835   6.100 -0.2735 -0.0827 -0.2127
30597ION     NA48121   8.297   2.646   6.267 -0.2418  0.2033  0.0609
30598ION     NA48122   4.914  13.190   5.598 -0.3179 -0.0435 -0.1119
30599ION     NA48123   7.982   0.336   6.287  0.2498  0.2377  0.3466
30600ION     NA48124   7.639   6.972  11.262  0.3091 -0.0374  0.0667
30601ION     NA48125   9.372  14.121  11.341 -0.2671  0.3600 -0.0955
30602ION     NA48126  14.690   8.860  11.702 -0.4293 -0.2539  0.0267
30603ION     NA48127   7.809   3.349  11.474 -0.0212  0.2158  0.1118
30604ION     NA48128   9.544   7.651   5.255  0.0106 -0.3077 -0.3253
30605ION     NA48129   8.587   3.951  11.144 -0.4756  0.2944  0.0228
30606ION     NA48130   1.360   6.329  11.867  0.0748  0.2039  0.4207
30607ION     NA48131  10.208  10.437  11.473  0.1117 -0.2247  0.3062
30608ION     NA48132   5.364  12.039  11.277  0.1602 -0.1545 -0.0222
30609ION     NA48133   2.150   3.537  11.368  0.0688 -0.0217 -0.3878
30610ION     NA48134  10.251  14.421  11.275  0.1751 -0.0520  0.1081
30611ION     NA48135   6.014   4.853   6.435 -0.1232  0.0035 -0.0455
30612ION     NA48136   7.987   5.774   6.153  0.0989 -0.1150 -0.2401
30613ION     NA48137   5.012   0.977   6.422  0.0363  0.1667  0.0042
30614ION     NA48138   7.257  14.269   5.105 -0.0484  0.0113 -0.0447
30615ION     NA48139  13.447  12.051   6.298  0.0951 -0.0984  0.0864
30616ION     NA48140   9.847   0.840   5.907  0.1069  0.0142  0.0517
30617ION     NA48141   9.739   9.526   1.407 -0.1168  0.2631 -0.1585
30618ION     NA48142  16.013   9.512  11.429 -0.1552  0.0321 -0.1496
30619ION     NA48143  11.119   6.570  11.329 -0.3854 -0.1940  0.0071
30620ION     NA48144   8.741   4.899   2.644  0.1555  0.1040 -0.0435
30621ION     NA48145  14.020   8.779   6.179 -0.0118  0.3999 -0.0830
30622ION     NA48146   5.506  10.008   6.263  0.0324 -0.0135  0.3434
30623ION     NA48147   9.401  15.765  11.271  0.1805  0.2171 -0.0883
30624ION     NA48148   1.061   1.366  11.481 -0.0630  0.0026  0.1012
30625ION     NA48149  16.388   7.750   0.489 -0.0498 -0.1315  0.1509
30626ION     NA48150   6.432   5.782   6.297  0.1317 -0.3799  0.0258
30627ION     NA48151   9.624   4.872   6.262 -0.2356  0.1672  0.0369
30628ION     NA48152  15.849   8.099  11.371 -0.0616 -0.0208  0.1557
30629ION     NA48153   5.904   7.007   5.456 -0.1114 -0.2073 -0.0517
30630ION     NA48154   7.179   5.383   6.072 -0.2577 -0.0993  0.0464
30631ION     NA48155  12.267  13.539   5.848 -0.0208  0.0680  0.0265
30632ION     NA48156  14.410   3.260  11.681  0.1202  0.0903 -0.0450
30633ION     NA48157   4.566   9.157   6.205 -0.2139 -0.0644  0.2894
30634ION     NA48158  12.938   0.544   6.437 -0.1428 -0.3342  0.2585
30635ION     NA48159  17.038   4.043   6.832  0.1729  0.0853 -0.1106
30636ION     NA48160   9.233  12.202  11.372 -0.3143  0.0319 -0.1568
30637ION     NA48161   5.359   1.815  11.780  0.0900  0.0770 -0.0528
30638ION     NA48162  12.312   7.339   6.315  0.2459  0.3895 -0.0168
30639ION     NA48163   0.720  15.496   6.068 -0.0891 -0.0124  0.2983
30640ION     NA48164  16.172  11.280  11.567 -0.1281 -0.0776 -0.0376
30641ION     NA48165  16.652   8.328   3.242  0.0749  0.2701 -0.0864
30642ION     NA48166  13.818  13.563  11.362  0.1550 -0.3057  0.0021
30643ION     NA48167  11.276  15.805   5.997 -0.0253  0.2776  0.1389
30644ION     NA48168   6.797   5.930  11.432  0.0477 -0.0323 -0.1375
30645ION     NA48169   7.654   3.849  11.350  0.2966  0.0328 -0.1569
30646ION     NA48170   7.238  12.301  11.442 -0.1344  0.1756 -0.1183
30647ION     NA48171   9.864   0.156  10.982 -0.3825 -0.1368 -0.1059
30648ION     NA48172  12.108   9.603   6.248  0.1403  0.2578 -0.0880
30649ION     NA48173   7.609   4.801  11.398  0.0510  0.2456 -0.3213
30650ION     NA48174   2.318   9.812   6.296  0.1280  0.1169  0.0055
30651ION     NA48175   3.704  15.093   2.199 -0.0809 -0.0796 -0.0613
30652ION     NA48176   6.122   1.873  11.608  0.2132 -0.0745 -0.1119
30653ION     NA48177  12.045   8.102   5.905  0.1306  0.0551 -0.3663
30654ION     NA48178  12.735   5.842  16.353  0.3556 -0.2029 -0.3943
30655ION     NA48179   3.522  10.249   3.152 -0.0484 -0.0363  0.0545
30656ION     NA48180   8.521   9.504  16.893 -0.3274 -0.0622 -0.1502
30657ION     NA48181   0.878  11.377   6.465  0.0725  0.1911  0.0290
30658ION     NA48182  12.662  13.917  12.158  0.1504  0.2224 -0.0748
30659ION     NA48183   5.965   2.790   6.117 -0.1084 -0.1562 -0.0569
30660ION     NA48184  10.971  10.552  11.259 -0.0557 -0.2136  0.2232
30661ION     NA48185   1.852   6.398  11.809 -0.1448  0.1988  0.2712
30662ION     NA48186  14.775   0.915   6.929  0.0763 -0.0236 -0.1055
30663ION     NA48187   7.152  15.579  15.887  0.2642 -0.2448 -0.2197
30664ION     NA48188  14.452  11.854  13.163 -0.3396 -0.2402  0.3261
30665ION     NA48189   0.546   6.672  13.310 -0.0421 -0.0382 -0.0983
30666ION     NA48190  11.689   7.845  16.779  0.0257 -0.0050  0.1910
30667ION     NA48191   9.358   7.071   6.227  0.2254 -0.0192  0.0724
30668ION     NA48192   0.141   5.650   4.580  0.0754  0.1408 -0.2045
30669ION     NA48193   9.395   4.783   2.028 -0.1089  0.0249  0.2416
30670ION     NA48194  15.213   2.830  11.704 -0.1701  0.0849 -0.0303
30671ION     NA48195   1.104   9.913  11.661  0.0569  0.0980  0.0116
30672ION     NA48196   3.742   4.445  11.921 -0.3400  0.2363 -0.2287
30673ION     NA48197  10.590  16.599  11.007 -0.2055  0.1077  0.0590
30674ION     NA48198   3.199  10.748  14.633  0.0685 -0.0150  0.0047
30675ION     NA48199   1.700   8.341   6.342 -0.2064 -0.1316  0.1642
30676ION     NA48200   7.520   4.841   6.233  0.1083 -0.0584  0.5419
30677ION     NA48201   6.192  12.254   6.497 -0.0753 -0.3272  0.0432
30678ION     NA48202  13.560  10.944  12.568 -0.0287 -0.0922  0.0298
30679ION     NA48203  12.578  11.326   2.949  0.1016 -0.1204  0.1367
30680ION     NA48204   5.515   8.840   5.787 -0.0440  0.2650  0.0275
30681ION     NA48205   8.956  13.015  11.356 -0.2399  0.1309  0.1809
30682ION     NA48206   2.272   4.377  11.510 -0.1129 -0.1679 -0.1737
30683ION     NA48207   9.076  10.968   6.064 -0.0152  0.2035  0.0100
30684ION     NA48208   2.506  10.464  11.527 -0.0555  0.1096 -0.0456
30685ION     NA48209   0.860  15.424   6.532  0.0821 -0.0476  0.0109
30686ION     NA48210  16.133   4.537   6.470  0.0325 -0.1125  0.0074
30687ION     NA48211   1.572  13.416  11.604 -0.0198 -0.1160  0.1977
30688ION     NA48212  10.320  15.753  11.223  0.0968  0.4476  0.1014
30689ION     NA48213   5.068   8.795  11.238  0.3352 -0.0806  0.3836
30690ION     NA48214  15.618  12.050  11.773  0.3459 -0.1615  0.2574
30691ION     NA48215  15.648   7.087   6.526 -0.0062  0.1101 -0.0922
30692ION     NA48216   7.059  14.631   6.220 -0.0911  0.2448 -0.0439
30693ION     NA48217   6.894   7.665   6.193 -0.2297 -0.0422 -0.1729
30694ION     NA48218   8.737  12.870   1.339 -0.0598  0.1301 -0.2596
30695ION     NA48219   3.060   9.607   4.504 -0.0565 -0.0891 -0.1208
30696ION     NA48220  10.993  12.303   5.927  0.1864  0.4587  0.1832
30697ION     NA48221   1.792  11.043  11.722  0.2610  0.2114 -0.2470
30698ION     NA48222   0.473   5.400  11.795  0.0388 -0.1152 -0.1087
30699ION     NA48223   8.977   3.211  11.327 -0.0399  0.3117  0.2427
30700ION     NA48224  14.504   2.243  13.276  0.2022  0.2202  0.1659
30701ION     NA48225  12.033   2.114  11.872 -0.0665 -0.1050 -0.0424
30702ION     NA48226   5.163   3.669  16.728  0.1223 -0.0838  0.0789
30703ION     NA48227   8.588   6.899   6.054 -0.0196 -0.4005 -0.3109
30704ION     NA48228  12.295   9.417   0.177  0.1177  0.0744 -0.0333
30705ION     NA48229   9.758   3.871  11.166  0.0918 -0.1058  0.3687
30706ION     NA48230  12.799   6.353  11.401 -0.1059  0.0382  0.2422
30707ION     NA48231  12.576   7.193  11.122 -0.0828  0.3895  0.0384
30708ION     NA48232   3.243   5.797   1.474 -0.0183 -0.3172 -0.1147
30709ION     NA48233  12.178   3.831  11.788  0.0776 -0.0850  0.3041
30710ION     NA48234   3.666  12.845  11.342 -0.1588 -0.0459 -0.1172
30711ION     NA48235   4.269   7.759  15.820 -0.1535 -0.0265 -0.0043
30712ION     NA48236  13.556  15.279   1.050 -0.0104  0.0546  0.2428
30713ION     NA48237  13.125  12.090  11.273  0.0731 -0.3775  0.0299
30714ION     NA48238  12.551   2.779   6.475 -0.0660  0.1534  0.2659
30715ION     NA48239  13.208   5.488  14.967 -0.0568  0.2027 -0.0641
30716ION     NA48240  15.326   6.143  16.913  0.1937 -0.2258 -0.1689
30717ION     NA48241   5.380   6.139  17.465  0.3029 -0.0342  0.0868
30718ION     NA48242  15.588   3.959   6.714  0.0652 -0.4546  0.0849
30719ION     NA48243   0.180  11.278   1.865 -0.1871 -0.2509  0.2184
30720ION     NA48244   8.807   2.928   1.433  0.0423 -0.2183  0.1337
30721ION     NA48245  15.816  16.636   6.408 -0.1280 -0.0315  0.0453
30722ION     NA48246   0.947  16.345   6.329  0.2214 -0.1045 -0.2662
30723ION     NA48247   7.174   1.699  15.462 -0.2083  0.0039 -0.3765
30724ION     NA48248   5.398   3.562   6.524 -0.0440  0.1270  0.1228
30725ION     NA48249   3.903  11.394  11.443  0.3051 -0.1899  0.2099
30726ION     NA48250   0.289   4.786  13.701  0.0815 -0.1111 -0.1969
30727ION     NA48251   2.136  15.829   0.898  0.1255 -0.1954  0.0061
30728ION     NA48252   5.414   3.312   2.409  0.0237  0.2465  0.0530
30729ION     NA48253  12.674   5.829   6.332 -0.0058  0.3309 -0.1123
30730ION     NA48254  11.311   2.536   1.623 -0.0817 -0.2077  0.1927
30731ION     NA48255   9.521   1.026  11.047 -0.1523 -0.0014 -0.0500
30732ION     NA48256  12.969  14.900   6.262  0.1185  0.1512  0.0725
30733ION     NA48257   5.817  16.391   4.612 -0.2006  0.0567  0.0442
30734ION     NA48258   2.289  16.859  14.764  0.1360  0.0501 -0.0072
30735ION     NA48259   6.180   5.242  11.668 -0.0536  0.1172 -0.0481
30736ION     NA48260  12.894  12.258   6.278  0.1195 -0.1029  0.1341
30737ION     NA48261   6.756   1.543   3.966 -0.1799 -0.0852  0.0121
30738ION     NA48262   5.648  13.296  11.546  0.0273  0.3346 -0.1713
30739ION     NA48263  12.873   8.867   6.132  0.0825 -0.0706 -0.1186
30740ION     NA48264   2.439   3.519   0.368 -0.0157  0.0005 -0.1335
30741ION     NA48265   9.323  10.572   3.326  0.2092 -0.0559 -0.3897
30742ION     NA48266   3.026  11.554  11.735  0.2183 -0.1849 -0.1146
30743ION     NA48267  13.331  10.852  11.254 -0.0868  0.0102  0.1865
30744ION     NA48268  11.768   9.462  12.370  0.0851 -0.0329 -0.2990
30745ION     NA48269   8.265   0.292  13.555  0.0225  0.0135 -0.0806
30746ION     NA48270   5.087   7.939  16.133 -0.0507  0.0570 -0.2980
30747ION     NA48271  15.042  17.088   6.684  0.4002 -0.3729  0.0510
30748ION     NA48272   0.996  10.338   0.671 -0.0025  0.1609  0.0858
30749ION     NA48273   8.211   5.539  11.435  0.1045  0.1657 -0.1441
30750ION     NA48274   1.827   9.400  15.057  0.0942  0.0518  0.1314
30751ION     NA48275   1.349  16.784  14.460 -0.0362 -0.0819  0.1227
30752ION     NA48276   2.290  15.791   6.092  0.3092  0.0077  0.3348
30753ION     NA48277  10.144   6.132  11.496  0.1774  0.0371 -0.0910
30754ION     NA48278  16.766  12.385   6.333  0.0448  0.1297  0.0990
30755ION     NA48279   6.904   6.797   6.105  0.0957  0.2181 -0.0237
30756ION     NA48280  12.329  12.494   0.562 -0.0419  0.1533 -0.1828
30757ION     NA48281  13.846  10.917   2.850  0.0572  0.1282  0.0129
30758ION     NA48282  11.496   2.961   6.431 -0.0282  0.1659 -0.1279
30759ION     NA48283   0.153   1.354  11.731  0.0900  0.1417  0.2140
30760ION     NA48284  15.334  12.271  14.345  0.3657 -0.5504 -0.0116
30761ION     NA48285   2.523   0.353   4.712 -0.4262  0.1393  0.0374
30762ION     NA48286  12.069  11.153   6.325 -0.0399 -0.2127 -0.0244
30763ION     NA48287   6.354   3.661   6.324 -0.0207 -0.0474  0.1404
30764ION     NA48288   9.294   5.995  11.247  0.1761 -0.0071  0.0802
30765ION     NA48289  16.781  14.182   6.406 -0.2743  0.1344  0.2496
30766ION     NA48290   5.092   6.735  11.443 -0.0883  0.0364 -0.1207
30767ION     NA48291  10.815  12.253  11.935 -0.3360  0.3703 -0.0534
30768ION     NA48292   9.638   8.878  15.625  0.0899 -0.1010 -0.2167
30769ION     NA48293  14.243  12.284   6.239  0.2293 -0.2974 -0.3681
30770ION     NA48294   3.513   5.273   3.652  0.2227 -0.0233 -0.0694
30771ION     NA48295  16.750  16.653   6.629  0.0280  0.1617  0.0450
30772ION     NA48296  10.650   6.133   6.178  0.2158  0.4508 -0.1390
30773ION     NA48297   7.620   6.324   6.115  0.2563 -0.1337  0.3559
30774ION     NA48298   4.018   5.940   6.338  0.2921  0.1900 -0.0061
30775ION     NA48299   5.983  16.463  11.537 -0.1012 -0.2836 -0.4422
30776ION     NA48300   0.905   3.921  11.605  0.2322 -0.2728 -0.2709
30777ION     NA48301   5.320   5.156   6.469 -0.0750 -0.0190 -0.1614
30778ION     NA48302   0.473  14.738   6.470 -0.1956  0.1460  0.2275
30779ION     NA48303  14.962   4.200  11.608 -0.2098  0.0461 -0.2390
30780ION     NA48304  12.320  14.212   0.632 -0.0202  0.3199 -0.0325
30781ION     NA48305   4.389   8.580  13.353 -0.2862  0.2720 -0.1400
30782ION     NA48306   2.870   6.624  11.559 -0.2342 -0.0998 -0.1353
30783ION     NA48307   1.675   0.830   6.429  0.3929  0.1105 -0.4386
30784ION     NA48308   2.237   4.065   4.748 -0.1251 -0.2060 -0.1038
30785ION     NA48309   4.489   4.901  11.806 -0.1290  0.2266 -0.3445
30786ION     NA48310   7.435   3.061   6.135 -0.3627  0.0366  0.2384
30787ION     NA48311   4.636   5.587   6.504  0.2151  0.1945  0.0609
30788ION     NA48312  12.747   3.251   6.441  0.0461 -0.0040  0.0437
30789ION     NA48313   0.664   4.416   6.846 -0.5017  0.1304 -0.0504
30790ION     NA48314   5.083   5.873  11.595 -0.0940  0.1779 -0.3677
30791ION     NA48315   6.123  15.079   6.346  0.0258  0.0529 -0.1081
30792ION     NA48316   3.085  12.306   6.634  0.1513  0.1218  0.2144
30793ION     NA48317  14.038  11.455   6.184  0.2069  0.3076  0.0580
30794ION     NA48318   3.056  10.391   6.221 -0.1634 -0.0435  0.0602
30795ION     NA48319   1.177   7.782   6.535  0.0204  0.2873  0.1580
30796ION     NA48320   6.220   6.303   6.136  0.0491 -0.1087  0.1588
30797ION     NA48321   5.486  14.803  11.404 -0.0726  0.0577  0.0190
30798ION     NA48322   4.830  10.177  15.793  0.1347 -0.1772  0.2819
30799ION     NA48323  14.331   3.018   6.787 -0.1883 -0.0982  0.0575
30800ION     NA48324   1.167  12.541  11.755 -0.0844 -0.3144  0.4907
30801ION     NA48325  12.950  13.301   6.173 -0.1293 -0.0507  0.2612
30802ION     NA48326   4.123  10.490  14.282 -0.2553 -0.0332 -0.1021
30803ION     NA48327   1.247   6.540   3.451  0.0103  0.0038 -0.0138
30804ION     NA48328  11.976   0.536   5.380  0.0665 -0.1939 -0.2499
30805ION     NA48329   7.448   3.970   6.195 -0.0760 -0.1496  0.2809
30806ION     NA48330   3.705   6.650  11.480 -0.2036  0.0938  0.3743
30807ION     NA48331  11.164  14.665  11.516  0.0383 -0.4604  0.1358
30808ION     NA48332   8.720   7.378  13.165  0.2739  0.1139  0.1975
30809ION     NA48333   3.077   8.870   2.804  0.0079  0.0802  0.0173
30810ION     NA48334   8.736   9.185   6.108  0.1593 -0.0408  0.0013
30811ION     NA48335   4.595   3.346   5.476 -0.0358 -0.0896 -0.1524
30812ION     NA48336   7.096   6.669   4.431 -0.0008 -0.0421  0.1031
30813ION     NA48337  11.228  15.608  11.060 -0.2218 -0.1433  0.3389
30814ION     NA48338   2.461  14.964  14.505 -0.0539  0.4099 -0.0753
30815ION     NA48339   9.003  12.856   6.163  0.3004 -0.1021 -0.0176
30816ION     NA48340   6.534  12.979  11.532  0.1759  0.0119  0.0360
30817ION     NA48341  16.962   8.902  14.311  0.1283 -0.2617 -0.1320
30818ION     NA48342  14.155   2.122   6.673  0.0737 -0.1646 -0.1269
30819ION     NA48343  16.167   1.362   6.747 -0.0967  0.0787  0.1400
30820ION     NA48344   4.358   1.939  11.889  0.2188  0.0635 -0.1577
30821ION     NA48345   1.411   4.730  11.683  0.0230  0.0796  0.0925
30822ION     NA48346  15.819  10.948  14.043  0.0913 -0.0480  0.1951
30823ION     NA48347   8.115  14.350  11.550 -0.1749 -0.0858 -0.3041
30824ION     NA48348  11.926  12.091   5.948 -0.1836 -0.1921 -0.2176
30825ION     NA48349   7.160  15.555  11.275  0.0269 -0.1103  0.1696
30826ION     NA48350  15.325  16.779   3.941 -0.1723 -0.3645 -0.1204
30827ION     NA48351  10.830   1.928  12.036  0.2359  0.2057  0.1939
30828ION     NA48352  10.543   4.026   2.297  0.1255  0.2664 -0.0126
30829ION     NA48353   7.221  15.624   2.519  0.0207  0.0026  0.2548
30830ION     NA48354  16.142   1.617  14.766  0.2063 -0.0575  0.1031
30831ION     NA48355   8.215  12.860   6.163 -0.1285 -0.2753 -0.0590
30832ION     NA48356  15.042   4.564   6.516 -0.1708  0.0710 -0.0175
30833ION     NA48357   9.147   7.426  11.477  0.1038  0.0004  0.2214
30834ION     NA48358   2.762   8.879   5.917  0.0572  0.0269  0.0530
30835ION     NA48359   8.773  14.748   6.208  0.0242  0.0678 -0.0531
30836ION     NA48360  12.286  10.981  11.259 -0.4360 -0.3196  0.2010
30837ION     NA48361  15.081  12.054   6.206 -0.2329 -0.0987  0.2127
30838ION     NA48362   1.835  13.995  11.495  0.2573  0.0968  0.2313
30839ION     NA48363   2.954   2.746   6.675 -0.1605  0.0202 -0.2839
30840ION     NA48364  14.903  13.841   4.354 -0.0332 -0.1135  0.0879
30841ION     NA48365  13.108  11.144   6.261 -0.1953 -0.1322 -0.4769
30842ION     NA48366  14.911   6.047  11.549 -0.2237 -0.3056  0.0709
30843ION     NA48367   4.138  13.192   6.405 -0.1277 -0.1062 -0.1997
30844ION     NA48368  14.507  17.061  11.796 -0.2335  0.1721 -0.1364
30845ION     NA48369  10.926  13.923  11.221  0.0731  0.1021 -0.0403
30846ION     NA48370   6.625  15.582  17.567  0.1443  0.1836  0.0062
30847ION     NA48371   2.534   6.002   6.609  0.0173  0.0474  0.0519
30848ION     NA48372   1.021  12.374   0.808  0.3409 -0.1940 -0.0587
30849ION     NA48373  12.531   8.190   6.165 -0.1384 -0.0109  0.2522
30850ION     NA48374   5.997   8.064  11.210 -0.0008  0.1952 -0.2350
30851ION     NA48375  10.138  15.426   2.413 -0.2644  0.0728  0.0740
30852ION     NA48376  10.311   6.939   6.181  0.1829  0.1633  0.0335
30853ION     NA48377   9.334   0.778   3.393 -0.2574  0.1393 -0.0170
30854ION     NA48378   2.558   1.691  11.863  0.1520  0.1838 -0.2065
30855ION     NA48379  12.890   2.016   6.528  0.1950 -0.1160 -0.0136
30856ION     NA48380   3.075  14.101  11.516  0.2164  0.3156  0.0296
30857ION     NA48381   4.092   2.767  11.856 -0.0147 -0.2046  0.1118
30858ION     NA48382   5.458   3.734  12.544  0.3758  0.1907 -0.0804
30859ION     NA48383   4.014  15.237  11.495 -0.1318  0.0170  0.0421
30860ION     NA48384   4.620   3.910  14.388  0.0629  0.0460 -0.1756
30861ION     NA48385  13.606   4.232  11.558 -0.1549  0.0740 -0.4949
30862ION     NA48386   7.331   7.692  15.454  0.2465 -0.1055 -0.1148
30863ION     NA48387  13.765   4.723  11.579  0.0454  0.0352  0.0619
30864ION     NA48388  12.482  13.145   6.104  0.0365  0.2377 -0.1592
30865ION     NA48389   2.322  14.713  11.382 -0.0728  0.2091  0.3110
30866ION     NA48390   5.095   7.701  11.442 -0.2715 -0.0787  0.2496
30867ION     NA48391  15.831  14.824   6.456 -0.1281 -0.1516 -0.1075
30868ION     NA48392  16.166  14.126   6.439 -0.0775  0.0099 -0.1156
30869ION     NA48393   9.551   4.090   0.719  0.0393  0.1005  0.0828
30870ION     NA48394   1.045   4.914  16.826  0.1295 -0.1318  0.2887
30871ION     NA48395   3.100   9.482   6.348  0.2003 -0.0221 -0.1009
30872ION     NA48396   7.661  16.730   6.115 -0.2431 -0.1594  0.1687
30873ION     NA48397   8.846   2.819  15.012 -0.0083  0.2639  0.2332
30874ION     NA48398  13.280   8.293  11.335  0.0165  0.1292 -0.0743
30875ION     NA48399   5.611  12.978   6.465  0.0349 -0.1015  0.1036
30876ION     NA48400   6.493   9.615   6.037  0.2233 -0.1325  0.0802
30877ION     NA48401  12.699  11.572   5.689  0.1773  0.0188 -0.3543
30878ION     NA48402  12.946  10.141   6.109 -0.2026  0.1849 -0.0986
30879ION     NA48403   5.223   6.673  11.975  0.0897 -0.1426  0.0509
30880ION     NA48404  13.191  15.394   6.389  0.0862  0.1998  0.2060
30881ION     NA48405   4.278  10.407   5.392 -0.1108 -0.1960 -0.0621
30882ION     NA48406  13.018   6.256  15.643  0.0836  0.3431 -0.2500
30883ION     NA48407  13.508   9.453   6.191  0.1664  0.1913  0.0888
30884ION     NA48408  15.805   6.751   5.740  0.3236 -0.0596  0.0345
30885ION     NA48409   5.931   3.812  11.688  0.0771 -0.1495 -0.0655
30886ION     NA48410   6.022   7.013  11.402 -0.0688  0.1457 -0.0699
30887ION     NA48411   2.320   2.094   6.714  0.1207  0.0394 -0.0647
30888ION     NA48412   8.758  16.500  11.168 -0.2366  0.1443  0.2377
30889ION     NA48413  14.678  14.259  15.256 -0.1892  0.2260 -0.0460
30890ION     NA48414  16.635   1.851  12.032  0.2620 -0.2034 -0.3332
30891ION     NA48415   1.929   5.139  11.636  0.0462 -0.0812  0.0007
30892ION     NA48416   3.976  15.546   0.138  0.1930  0.1475 -0.0338
30893ION     NA48417   0.095  11.369  11.733  0.2697 -0.2700  0.0970
30894ION     NA48418  16.543   5.381   6.705 -0.0926  0.1414 -0.0922
30895ION     NA48419  10.066   9.460   4.044 -0.2821  0.1732  0.0205
30896ION     NA48420   2.177   2.117  12.699 -0.0210 -0.1304  0.0870
30897ION     NA48421   1.457   4.137  16.634  0.0788 -0.0226 -0.0750
30898ION     NA48422   1.575   1.335   6.644 -0.2445 -0.0197  0.2152
30899ION     NA48423   0.850  16.651  12.044 -0.1465 -0.0758 -0.0049
30900ION     NA48424   2.127  11.192   6.417  0.0910  0.0292 -0.0383
30901ION     NA48425  12.071  14.867  11.286 -0.1540 -0.0860  0.2481
30902ION     NA48426   8.283   7.685  11.347 -0.0800 -0.4582 -0.0467
30903ION     NA48427   8.610  15.888  11.167 -0.1006 -0.0571 -0.1671
30904ION     NA48428   1.268  12.966   6.415 -0.0016  0.0390 -0.0838
30905ION     NA48429  11.296   8.448   5.730 -0.2904 -0.1605  0.0324
30906ION     NA48430  11.435  12.254  11.258 -0.4998  0.0692 -0.2132
30907ION     NA48431  15.371   1.998  11.738  0.0470 -0.2930  0.0255
30908ION     NA48432  10.125  12.198   5.934  0.1470 -0.0764 -0.2731
30909ION     NA48433  15.867  10.910  11.460 -0.0830  0.0372 -0.2242
30910ION     NA48434  13.762   6.177   6.356  0.1914  0.3193  0.0303
30911ION     NA48435   0.864  16.455  11.575  0.0072 -0.0497 -0.0029
30912ION     NA48436  10.856  13.751   6.079 -0.0417 -0.1698  0.1691
30913ION     NA48437   2.154   2.903   6.895  0.2357  0.2261 -0.3996
30914ION     NA48438  10.727   5.507  11.597 -0.1083  0.2495  0.1939
30915ION     NA48439   6.954   6.739  11.183 -0.2876 -0.0330  0.0735
30916ION     NA48440   3.864   9.223   2.412 -0.0260  0.1301 -0.2670
30917ION     NA48441   8.244   6.503  17.677 -0.0195  0.0334  0.0123
30918ION     NA48442  16.221   9.470   6.040 -0.4594 -0.0479 -0.1089
30919ION     NA48443  11.694   7.234   5.971  0.0541 -0.1355 -0.2899
30920ION     NA48444  12.533  10.416  11.235 -0.1447  0.0006  0.2362
30921ION     NA48445   0.990   2.582   6.793 -0.1173  0.1702  0.1523
30922ION     NA48446   1.685   6.160   6.517 -0.2086 -0.2865  0.0157
30923ION     NA48447  12.308   4.779   6.023 -0.0215 -0.1152  0.1732
30924ION     NA48448  11.411   0.137   5.960 -0.3880  0.1077  0.1322
30925ION     NA48449   2.561   4.720   6.701  0.3274 -0.4567  0.0160
30926ION     NA48450   7.891  10.454  12.684  0.0824 -0.1576  0.0969
30927ION     NA48451   6.849   3.677  11.592 -0.2392  0.3377  0.3521
30928ION     NA48452   3.635  13.829  12.226 -0.3232  0.0720  0.1124
30929ION     NA48453   2.364   2.920  13.172 -0.0035  0.2336 -0.1374
30930ION     NA48454   8.363   0.718   1.173  0.0500 -0.0200 -0.2054
30931ION     NA48455  11.811   9.839  10.960  0.0331 -0.0883 -0.0337
30932ION     NA48456   3.387   5.848  13.925  0.0278 -0.1535 -0.0727
30933ION     NA48457   9.882  13.599   5.879 -0.0263 -0.1235 -0.0438
30934ION     NA48458  14.932  13.809   6.379 -0.0918  0.1913  0.2196
30935ION     NA48459  15.594   3.300  14.085 -0.3803  0.1099  0.0429
30936ION     NA48460   1.068   8.937   6.400  0.1545  0.1953  0.1877
30937ION     NA48461   0.299   1.842   6.758 -0.0477 -0.1658 -0.0070
30938ION     NA48462   9.022   4.202  11.316  0.1660 -0.0791 -0.1938
30939ION     NA48463  16.222   4.082   3.613 -0.4259 -0.0837 -0.0198
30940ION     NA48464   6.022  10.455   6.177  0.3052  0.2085 -0.0965
30941ION     NA48465   4.146   7.987  11.593 -0.0302 -0.0917 -0.7594
30942ION     NA48466  14.966  16.966   6.210  0.1264  0.2369 -0.0721
30943ION     NA48467   3.825   6.927   6.365 -0.1180  0.0431  0.0176
30944ION     NA48468  14.464   8.030   6.239  0.2523 -0.0859 -0.0431
30945ION     NA48469  17.031  16.537  13.218 -0.3467 -0.0469 -0.4023
30946ION     NA48470  16.751   7.179   6.551  0.2820  0.0199 -0.1265
30947ION     NA48471   2.536   8.798  11.548  0.1722  0.2231 -0.2882
30948ION     NA48472  13.723  11.344  17.103  0.3277 -0.0603 -0.3382
30949ION     NA48473   1.534  11.986   6.327  0.1588  0.0806  0.2551
30950ION     NA48474  15.812   2.295   6.859 -0.2153 -0.0142  0.1708
30951ION     NA48475  16.994   3.078   6.869 -0.2797  0.2310 -0.1247
30952ION     NA48476   8.287   2.404  11.303 -0.0161 -0.3634 -0.0018
30953ION     NA48477  13.923   3.056   0.721 -0.1183  0.0555  0.1618
30954ION     NA48478   8.282   3.254  17.155  0.2510 -0.0394  0.1405
30955ION     NA48479   7.550   0.165   1.381  0.0477 -0.0110  0.0671
30956ION     NA48480   8.526   0.845  11.171 -0.1983  0.1377 -0.1568
30957ION     NA48481  13.732   4.723   6.473  0.1978  0.0268  0.1066
30958ION     NA48482  12.221   8.854  11.035  0.1908  0.0601  0.0426
30959ION     NA48483   0.338  12.621   6.463  0.0114 -0.0730  0.1824
30960ION     NA48484   4.635  14.608  11.584 -0.0290  0.0390 -0.1291
30961ION     NA48485   9.018   2.233   6.138  0.0422  0.1049  0.2388
30962ION     NA48486  13.945  14.977   6.248 -0.1172  0.2630  0.0377
30963ION     NA48487  14.053  11.285  11.107 -0.0875  0.1646  0.1139
30964ION     NA48488   3.689  14.956  17.085  0.1059 -0.0485  0.2740
30965ION     NA48489   1.006   3.554  11.948 -0.0067 -0.3232 -0.3020
30966ION     NA48490  13.918   7.939  12.145  0.0792 -0.1517  0.0139
30967ION     NA48491   0.305   6.022   0.693 -0.2679 -0.2645  0.0569
30968ION     NA48492  12.134   0.080  11.328  0.1461 -0.0791  0.0853
30969ION     NA48493   8.369   8.427   6.028 -0.0132  0.1117 -0.5368
30970ION     NA48494   7.663   7.178   5.911 -0.0180 -0.0306 -0.0427
30971ION     NA48495  10.193  12.004   0.321 -0.1658  0.1167 -0.4471
30972ION     NA48496  13.062  12.569  11.026  0.1901 -0.1843  0.3787
30973ION     NA48497  11.224  14.800   6.112 -0.4065  0.1720 -0.0305
30974ION     NA48498  10.722   2.426   6.400 -0.1789  0.1199 -0.0841
30975ION     NA48499  10.389  13.085  11.385 -0.0790 -0.0065 -0.3036
30976ION     NA48500   6.458  16.410   3.388  0.0074 -0.3807  0.1338
30977ION     NA48501   2.915   1.200  11.735  0.1810  0.1347  0.0683
30978ION     NA48502  11.143   9.846   6.139 -0.4201 -0.0049 -0.2634
30979ION     NA48503   3.807   3.649  11.744  0.0941  0.0903  0.3717
30980ION     NA48504   2.480  12.938  13.487 -0.1357 -0.1331  0.1706
30981ION     NA48505   9.641  13.396   4.503  0.1467  0.1420 -0.0685
30982ION     NA48506  11.381   5.723   2.945 -0.1777 -0.0135 -0.0808
30983ION     NA48507  12.165  11.983  11.172 -0.2688 -0.1873  0.0741
30984ION     NA48508   5.010   2.570  12.080 -0.0487  0.1857  0.1831
30985ION     NA48509   8.473   4.908  11.237  0.0406  0.0400  0.0470
30986ION     NA48510   7.520  10.450   5.596 -0.0242 -0.2602 -0.1598
30987ION     NA48511   6.910   0.443  11.835 -0.0754 -0.1529  0.0408
30988ION     NA48512   9.077   5.616   6.094 -0.3522 -0.1762 -0.0343
30989ION     NA48513  10.365   1.524  11.249  0.2058 -0.0585  0.0085
30990ION     NA48514   4.825   3.655  11.808  0.3601 -0.4004  0.1753
30991ION     NA48515   5.306  14.044  11.535  0.0472 -0.3137  0.0965
30992ION     NA48516  16.381  13.956  11.646 -0.2427 -0.0086  0.0658
30993ION     NA48517  14.515   4.044   6.563  0.1898  0.0592 -0.1361
30994ION     NA48518   8.584   1.096   6.199 -0.2569 -0.0282  0.0394
30995ION     NA48519   3.992   2.358  16.733  0.0214 -0.1443 -0.0137
30996ION     NA48520  15.081   1.831   6.836 -0.0019 -0.0459 -0.0892
30997ION     NA48521   6.179   1.171  14.834  0.1243 -0.1601 -0.1101
30998ION     NA48522   2.246  16.198   6.537 -0.1609  0.0092 -0.4497
30999ION     NA48523   6.351  12.370  16.916 -0.0821 -0.0976 -0.1302
31000ION     NA48524   2.550   0.538   1.802  0.0357  0.1462 -0.0755
31001ION     NA48525   4.585  14.782   6.345  0.0754  0.0222 -0.0250
31002ION     NA48526   9.448  15.510   1.262  0.0437  0.1529 -0.1705
31003ION     NA48527   4.841   8.352  11.427 -0.0177  0.0159 -0.0579
31004ION     NA48528   4.066   7.391   6.398 -0.0528  0.1470  0.0830
31005ION     NA48529  15.143   2.660   6.842  0.5190  0.0007 -0.3122
31006ION     NA48530   9.259  13.854   6.116  0.0179 -0.0588  0.1055
31007ION     NA48531   5.511  14.564   6.464 -0.1056 -0.1829 -0.2324
31008ION     NA48532  13.746   1.909  11.794 -0.1622  0.1922 -0.2288
31009ION     NA48533   3.933   4.713  15.724  0.0100 -0.1143  0.1042
31010ION     NA48534  16.149   2.987   6.868  0.4336 -0.3039 -0.2185
31011ION     NA48535  10.155  11.497  15.563  0.1131 -0.0072  0.0863
31012ION     NA48536  10.589   8.059  11.323 -0.0022  0.2629  0.0724
31013ION     NA48537   1.841  15.157  17.317 -0.0329 -0.1952  0.2999
31014ION     NA48538   0.661   1.078   6.631 -0.0516 -0.3004 -0.1895
31015ION     NA48539  12.111  16.141   6.404  0.2288  0.1496  0.0050
31016ION     NA48540  14.203   8.058  14.838 -0.0682  0.1320  0.1688
31017ION     NA48541   7.050  11.535  11.195  0.3546  0.1720  0.2526
31018ION     NA48542  17.049   8.001   6.615 -0.0852  0.1914  0.2258
31019ION     NA48543  12.222  13.245  11.588 -0.2233 -0.2847  0.0664
31020ION     NA48544  15.367  16.106  11.634  0.2052 -0.0303  0.1540
31021ION     NA48545  16.488   9.059   3.722 -0.0581  0.2291 -0.0254
31022ION     NA48546   6.665   0.474   6.070  0.2792  0.0162  0.2145
31023ION     NA48547   8.256   8.341   0.030  0.2078 -0.0619 -0.1973
31024ION     NA48548   6.914  16.454  11.285  0.0398  0.1561 -0.0938
31025ION     NA48549   5.930  15.022  13.289  0.1213  0.0042  0.0561
31026ION     NA48550  13.489  11.093   4.048  0.2800 -0.1379  0.0360
31027ION     NA48551  15.570  12.154   5.996 -0.2142  0.0419  0.0492
31028ION     NA48552   5.130  15.362   6.362  0.0091 -0.0383 -0.0425
31029ION     NA48553  10.573   4.480  11.441 -0.1413 -0.1813  0.1829
31030ION     NA48554   2.368   0.381  11.536  0.0116  0.0641 -0.0481
31031ION     NA48555   5.556   7.191   6.256 -0.0294  0.0444  0.0237
31032ION     NA48556  12.529   3.703   6.619  0.3982 -0.0247 -0.0622
31033ION     NA48557   5.320   4.565  11.777  0.0827 -0.0407 -0.0640
31034ION     NA48558  12.037   9.811  14.887  0.1109 -0.0507  0.1984
31035ION     NA48559   4.384  11.814   5.376 -0.0544  0.0355 -0.0858
31036ION     NA48560   8.286   1.614  11.241  0.3084  0.0933 -0.1135
31037ION     NA48561  15.390   9.363  11.471 -0.2642 -0.2929 -0.1446
31038ION     NA48562   3.421   7.444  11.397  0.0117  0.0007  0.0302
31039ION     NA48563   7.883  14.239   6.350 -0.0064  0.0171 -0.0737
31040ION     NA48564   5.351  13.611   3.923  0.1693  0.0359 -0.2706
31041ION     NA48565   4.670   5.946  15.072 -0.1206 -0.2367 -0.0457
31042ION     NA48566   1.787  13.465   6.394 -0.0555  0.1849  0.0430
31043ION     NA48567   6.425  16.960  14.809  0.0833  0.0895 -0.2604
31044ION     NA48568  10.357  11.302  11.476 -0.0599 -0.0477 -0.2429
31045ION     NA48569  16.475  13.677   2.887 -0.0765  0.0975  0.3449
31046ION     NA48570  10.102  10.535   0.446  0.0683 -0.3013  0.1153
31047ION     NA48571   8.325   0.820  15.800  0.1900  0.1497  0.0181
31048ION     NA48572   2.364   6.815   6.375  0.0063  0.0078  0.0938
31049ION     NA48573  14.130   0.406   6.790  0.2336 -0.0025  0.0068
31050ION     NA48574  16.683   8.362  11.290 -0.1129 -0.0180 -0.1518
31051ION     NA48575  10.125  13.580  11.293  0.1895 -0.2046  0.0639
31052ION     NA48576   1.387   6.907   6.259 -0.0345  0.1304 -0.1281
31053ION     NA48577   2.031   9.618  11.475 -0.0685 -0.0253  0.1865
31054ION     NA48578   0.716   9.548   2.376 -0.1692 -0.0410 -0.2664
31055ION     NA48579   0.637   0.638  11.834  0.0110  0.1983  0.0356
31056ION     NA48580  17.086   7.150  14.389  0.1376 -0.4945 -0.1461
31057ION     NA48581   3.217   6.296   6.272  0.0303 -0.1227 -0.1171
31058ION     NA48582   8.888  16.734   0.428 -0.0820  0.0144  0.0810
31059ION     NA48583  16.204  12.325   4.046 -0.0610 -0.0250  0.0587
31060ION     NA48584   2.604   7.810  11.596 -0.1300  0.3622 -0.0773
31061ION     NA48585  10.022   7.447  11.347 -0.1520 -0.1129  0.1768
31062ION     NA48586   6.121  14.092  11.622  0.4293  0.1503 -0.1590
31063ION     NA48587  15.239   6.391  11.376  0.0316 -0.2144 -0.1420
31064ION     NA48588   6.648  16.518   5.668 -0.0399 -0.0589  0.1545
31065ION     NA48589   0.210   9.738  11.500  0.2752  0.1654  0.1447
31066ION     NA48590   1.475   9.001  11.471 -0.2456  0.0332 -0.0806
31067ION     NA48591   9.297   5.100  15.793 -0.0099 -0.0592  0.0605
31068ION     NA48592  16.051  16.716  11.692 -0.4266 -0.1534 -0.1730
31069ION     NA48593   2.124   1.958   4.882  0.1803  0.1914  0.0309
31070ION     NA48594   7.615  13.450  11.427 -0.2380 -0.0099 -0.1283
31071ION     NA48595   2.834  14.730   1.752  0.1126  0.2425 -0.0109
31072ION     NA48596   9.217  10.604  11.298  0.0004  0.1561 -0.0494
31073ION     NA48597   3.151  15.167  11.576 -0.0739  0.3842  0.0344
31074ION     NA48598   7.808  16.735  11.325  0.1953  0.2547  0.1630
31075ION     NA48599  16.819  15.230  11.518  0.1181  0.1132 -0.0523
31076ION     NA48600   6.107   8.971  15.590  0.1403 -0.1678  0.0257
31077ION     NA48601   6.893   7.591  11.201  0.1178  0.0631 -0.3105
31078ION     NA48602   6.371   8.110   6.130 -0.2583 -0.0839 -0.1043
31079ION     NA48603   2.611   1.270   6.586  0.3418  0.0238 -0.0576
31080ION     NA48604  10.404   7.031  11.269 -0.4687  0.0745 -0.1660
31081ION     NA48605  12.101  10.154   6.140 -0.1267 -0.0643  0.0954
31082ION     NA48606   2.806  12.333   5.674 -0.0408  0.1391  0.1901
31083ION     NA48607  11.539   9.075  11.297  0.1464  0.0721  0.1032
31084ION     NA48608  10.532   4.964  13.528 -0.0381 -0.0716 -0.1219
31085ION     NA48609   7.736  16.217  11.438 -0.2868 -0.1212  0.0474
31086ION     NA48610   9.406   7.987  15.854  0.0975  0.0570 -0.2563
31087ION     NA48611  10.897   1.648   6.275 -0.3980  0.0343 -0.1926
31088ION     NA48612  12.041   1.262  11.589  0.2480  0.1708  0.1423
31089ION     NA48613   8.658   7.125   5.605  0.3980  0.1728  0.2457
31090ION     NA48614   7.875  10.973  11.463  0.1502  0.1909 -0.0386
31091ION     NA48615  12.694   3.735  16.437  0.1207 -0.0266  0.0746
31092ION     NA48616  12.756  15.995  11.489 -0.3505 -0.0133 -0.0230
31093ION     NA48617   5.016   0.201   6.479  0.0581  0.1635  0.0375
31094ION     NA48618  16.640   6.583  11.805  0.0155  0.0830 -0.3221
31095ION     NA48619   5.202   6.496   6.438  0.0269  0.3301 -0.2046
31096ION     NA48620  10.594   3.460  11.640 -0.4036 -0.0241 -0.1715
31097ION     NA48621  11.708  16.533   6.259 -0.1917 -0.0162  0.0437
31098ION     NA48622   6.790  11.058   6.169  0.1724  0.1089  0.0943
31099ION     NA48623   9.035   4.049   6.223  0.1002  0.3442  0.1407
31100ION     NA48624  16.325  12.051   1.600 -0.2239 -0.2582  0.0768
31101ION     NA48625  15.419  14.831   5.570 -0.1040  0.2276  0.1141
31102ION     NA48626  15.787  14.095   2.584  0.0518  0.1698  0.5425
31103ION     NA48627   6.375   9.015  11.380 -0.2134  0.4390  0.0088
31104ION     NA48628   5.865   3.090  16.205 -0.2016  0.0751  0.2374
31105ION     NA48629   6.973  13.743   6.053 -0.1176  0.0087  0.1885
31106ION     NA48630  14.996  11.556   6.113 -0.3380  0.0449 -0.1923
31107ION     NA48631  14.967   7.944  11.323 -0.3394 -0.0463  0.1369
31108ION     NA48632  10.161   9.699   6.176 -0.1950 -0.4273 -0.1311
31109ION     NA48633   3.181   0.512  11.546  0.1335 -0.0289 -0.1855
31110ION     NA48634   4.040   1.356   6.656 -0.1224 -0.0186  0.3605
31111ION     NA48635  11.158  13.106  11.214 -0.0571 -0.0083 -0.2445
31112ION     NA48636   5.855  13.761   6.363  0.1953  0.0650  0.0766
31113ION     NA48637  13.223  16.270   6.391 -0.0271  0.1206 -0.0392
31114ION     NA48638  15.405  12.985   6.238 -0.1949 -0.0885  0.2638
31115ION     NA48639  14.796  10.596   3.722  0.3653 -0.1728 -0.2278
31116ION     NA48640  15.417   5.540   6.363  0.1360  0.1352  0.1123
31117ION     NA48641   6.811  10.004  11.349  0.1416  0.1728  0.0913
31118ION     NA48642  13.806  16.856   6.561  0.0424 -0.2219  0.0409
31119ION     NA48643   8.554  10.129   5.815  0.1258 -0.0259 -0.0466
31120ION     NA48644  10.303   2.560  11.485  0.1109  0.0475  0.1774
31121ION     NA48645  13.679   2.823  11.719 -0.1205 -0.1483 -0.0027
31122ION     NA48646   7.620   1.719  11.300 -0.1151 -0.0618  0.0221
31123ION     NA48647   3.189  13.182  15.900  0.0225 -0.2241  0.4168
31124ION     NA48648  16.209   7.928   6.376  0.0298 -0.0695 -0.1961
31125ION     NA48649  14.473   7.274  12.390  0.0129 -0.1957  0.0919
31126ION     NA48650  10.513  15.721   5.883 -0.0075  0.2726 -0.0710
31127ION     NA48651  14.901  15.108   6.574  0.0039 -0.3701  0.0272
31128ION     NA48652   6.916   1.470  13.748 -0.0052 -0.0043  0.0722
31129ION     NA48653   9.971  10.069  11.193  0.1289 -0.1349 -0.1113
31130ION     NA48654   3.775   0.648   6.355  0.1918  0.0214 -0.0509
31131ION     NA48655   5.787   0.748   6.146 -0.2492  0.1377 -0.3090
31132ION     NA48656  17.080  16.524  11.813  0.2253  0.1818 -0.1271
31133ION     NA48657   4.447  16.335  11.425  0.2225  0.0481 -0.0984
31134ION     NA48658   4.145   8.976  11.003 -0.0255  0.1264 -0.2846
31135ION     NA48659  14.930  12.609  11.929  0.1954 -0.0728  0.0928
31136ION     NA48660  16.832   5.332  11.489  0.0082 -0.0866  0.0296
31137ION     NA48661   5.806   0.227  11.716  0.0019  0.0528 -0.0367
31138ION     NA48662   4.733   7.312   6.256  0.0172  0.0645  0.0851
31139ION     NA48663  13.909   0.152  17.632  0.0288 -0.1909 -0.0766
31140ION     NA48664   2.519   8.271   6.544  0.3117 -0.1777  0.3434
31141ION     NA48665   6.483   1.898   6.081  0.0948  0.0530 -0.0068
31142ION     NA48666  11.394   6.080  16.931  0.0094 -0.3400 -0.2166
31143ION     NA48667   3.850  16.876  11.663  0.2885 -0.0534  0.1369
31144ION     NA48668   1.599   3.446   6.664  0.1889 -0.0510  0.3322
31145ION     NA48669   2.052   7.373   6.407 -0.0396  0.0161 -0.2120
31146ION     NA48670  12.099  12.695  11.171  0.2454  0.2582  0.0867
  17.16144  17.16144  17.73821
