INSANE! Membrane UpperLeaflet>loPI:POPI:DPPI:PYPI:ERGO=30.0:5.0:3.0:2.0:10.0 LowerLeaflet>loPI:POPI:DPPI:PYPI:ERGO=30.0:5.0:3.0:2.0:10.0
48670
    1loPI    C1    1  11.623  16.322  11.077  0.1965 -0.1830 -0.0105
    1loPI    C2    2  11.839  16.384  10.746  0.1802 -0.0858 -0.0031
    1loPI    C3    3  11.882  16.044  10.952  0.0720 -0.2178 -0.1957
    1loPI   PO4    4  11.369  16.348  10.940  0.2680 -0.0427 -0.2470
    1loPI   GL1    5  11.374  16.271  10.531 -0.0555 -0.0997 -0.4235
    1loPI   GL2    6  11.184  16.452  10.338 -0.2423 -0.2561  0.0791
    1loPI   C1A    7  11.627  16.618  10.344 -0.1530  0.3069 -0.0693
    1loPI   C2A    8  11.833  16.760  10.011 -0.4670  0.0639  0.0016
    1loPI   C3A    9  11.782  16.679   9.615  0.0023 -0.3086  0.0763
    1loPI   C4A   10  11.646  16.655   9.109 -0.0525  0.3871 -0.2852
    1loPI   C5A   11  11.565  16.601   8.594  0.0287  0.0005 -0.1958
    1loPI   C6A   12  11.483  16.516   8.174  0.1364 -0.0349  0.1237
    1loPI   C1B   13  11.499  16.344   9.957  0.0275  0.0030 -0.1175
    1loPI   C2B   14  11.443  16.344   9.533  0.2552 -0.1715  0.2852
    1loPI   C3B   15  11.294  16.339   9.072  0.1397  0.1962 -0.0177
    1loPI   C4B   16  11.248  16.245   8.597 -0.1783  0.1878  0.2529
    2loPI    C1   17   5.531   7.391  10.600 -0.3442  0.2890  0.1630
    2loPI    C2   18   5.762   7.713  10.662  0.0075  0.0759 -0.0124
    2loPI    C3   19   5.901   7.347  10.747 -0.3165 -0.0472  0.0020
    2loPI   PO4   20   5.322   7.466  10.581  0.0039  0.2321  0.1203
    2loPI   GL1   21   5.139   7.619  10.148 -0.0498 -0.1277 -0.0658
    2loPI   GL2   22   5.492   7.507  10.100 -0.0963 -0.0961  0.0241
    2loPI   C1A   23   5.081   7.495   9.704  0.2431  0.2364 -0.2234
    2loPI   C2A   24   5.061   7.536   9.279  0.1588 -0.2817 -0.3710
    2loPI   C3A   25   5.136   7.515   8.774  0.5546  0.2301  0.3267
    2loPI   C4A   26   5.459   7.624   8.540 -0.0531 -0.1882 -0.0994
    2loPI   C5A   27   5.802   7.973   8.661  0.0625  0.0158 -0.1988
    2loPI   C6A   28   6.002   8.259   8.416  0.0549 -0.1377 -0.1557
    2loPI   C1B   29   5.429   7.098   9.889  0.0796  0.1160 -0.1576
    2loPI   C2B   30   5.525   6.764   9.574 -0.0981 -0.2144  0.1128
    2loPI   C3B   31   5.501   6.909   9.154 -0.1142 -0.0059  0.2423
    2loPI   C4B   32   5.586   7.255   8.905  0.1573 -0.0057 -0.1330
    3loPI    C1   33   6.431   3.345  10.853  0.0672  0.1883  0.3009
    3loPI    C2   34   6.765   3.273  10.645 -0.0058  0.1186  0.2065
    3loPI    C3   35   6.784   3.326  11.041  0.0723 -0.2624  0.2574
    3loPI   PO4   36   6.190   3.124  10.610  0.2245  0.0575 -0.0324
    3loPI   GL1   37   5.791   3.118  10.465 -0.1208  0.0931  0.0384
    3loPI   GL2   38   5.937   2.943  10.175  0.0141 -0.1192 -0.1248
    3loPI   C1A   39   5.569   3.276  10.100  0.1530 -0.0689  0.1515
    3loPI   C2A   40   5.479   3.348   9.630  0.1516 -0.1050 -0.3096
    3loPI   C3A   41   5.432   3.738   9.441  0.4975  0.2928  0.2233
    3loPI   C4A   42   5.560   3.844   9.039 -0.0951  0.0014  0.0858
    3loPI   C5A   43   5.896   3.926   8.787 -0.2150 -0.0598  0.1714
    3loPI   C6A   44   6.068   3.731   8.487 -0.0158 -0.3807  0.0505
    3loPI   C1B   45   5.594   2.842   9.792  0.0179  0.1449  0.0054
    3loPI   C2B   46   5.620   2.915   9.377  0.1109  0.1671 -0.0223
    3loPI   C3B   47   5.373   3.227   9.180 -0.2052  0.0923  0.1565
    3loPI   C4B   48   5.256   3.306   8.792 -0.0571 -0.0769  0.0323
    4loPI    C1   49  14.742  12.708  11.009 -0.1118 -0.0573  0.1464
    4loPI    C2   50  14.894  12.915  11.316  0.1698 -0.0648  0.0151
    4loPI    C3   51  14.945  12.518  11.296  0.1254 -0.0687 -0.0262
    4loPI   PO4   52  14.921  12.770  10.836 -0.3181  0.0580 -0.0428
    4loPI   GL1   53  14.990  12.820  10.354 -0.3431 -0.2535 -0.2766
    4loPI   GL2   54  14.751  13.036  10.425 -0.0029  0.4733  0.1423
    4loPI   C1A   55  15.044  12.941  10.028 -0.1430 -0.3935  0.3623
    4loPI   C2A   56  14.992  13.110   9.755  0.2085 -0.0737  0.0598
    4loPI   C3A   57  15.078  12.962   9.348  0.1744 -0.2381 -0.1877
    4loPI   C4A   58  15.030  13.046   8.875 -0.4180  0.0200  0.0694
    4loPI   C5A   59  14.834  12.886   8.541 -0.2831 -0.0978  0.0616
    4loPI   C6A   60  14.572  12.533   8.460 -0.0205 -0.2446 -0.0367
    4loPI   C1B   61  14.684  13.277  10.165 -0.1596 -0.1869  0.2068
    4loPI   C2B   62  14.641  13.442   9.664 -0.0918 -0.3789  0.2031
    4loPI   C3B   63  14.564  13.449   9.217  0.2875  0.1763  0.1261
    4loPI   C4B   64  14.549  13.471   8.834 -0.0612  0.1166 -0.0473
    5loPI    C1   65  15.960   3.163  11.287  0.0484 -0.0967 -0.1795
    5loPI    C2   66  15.652   2.992  11.098 -0.3008  0.1928  0.1113
    5loPI    C3   67  15.785   2.838  11.442 -0.0525  0.0121 -0.0624
    5loPI   PO4   68  16.074   3.286  10.953  0.2390  0.0236 -0.0785
    5loPI   GL1   69  16.155   3.319  10.495  0.0559  0.2196  0.1099
    5loPI   GL2   70  16.457   3.394  10.469  0.0275  0.0639  0.0831
    5loPI   C1A   71  15.814   3.458  10.281  0.2822 -0.3846 -0.1342
    5loPI   C2A   72  15.503   3.748  10.088  0.1698 -0.0318 -0.2002
    5loPI   C3A   73  15.344   3.720   9.680 -0.1203 -0.3076  0.0835
    5loPI   C4A   74  15.168   3.626   9.338 -0.4189  0.0352  0.1129
    5loPI   C5A   75  15.116   3.681   8.901  0.1230 -0.0300 -0.0523
    5loPI   C6A   76  15.051   3.484   8.591 -0.2294 -0.1480 -0.1109
    5loPI   C1B   77  16.244   3.626  10.099  0.0671  0.1080  0.1384
    5loPI   C2B   78  16.136   3.593   9.804 -0.1045 -0.3082  0.1240
    5loPI   C3B   79  16.010   3.581   9.453  0.3415 -0.1517  0.1945
    5loPI   C4B   80  15.894   3.412   8.956  0.5452  0.0314 -0.1380
    6loPI    C1   81  17.534   0.108  11.472  0.1521 -0.0419 -0.0441
    6loPI    C2   82  17.760   0.427  11.559  0.3332 -0.1211 -0.2177
    6loPI    C3   83  17.362   0.450  11.591  0.3626  0.0228  0.0798
    6loPI   PO4   84  17.715   0.068  11.201 -0.0969  0.0015  0.0577
    6loPI   GL1   85  17.683   0.168  10.725 -0.0765  0.0044 -0.2446
    6loPI   GL2   86  17.713  -0.196  10.743  0.3334 -0.1511  0.0507
    6loPI   C1A   87  17.708   0.253  10.305 -0.0597 -0.1220  0.1537
    6loPI   C2A   88  17.700   0.179   9.890  0.0445  0.1846 -0.0811
    6loPI   C3A   89  17.695   0.170   9.526 -0.1865  0.0360  0.1158
    6loPI   C4A   90  17.664   0.268   9.099  0.2083 -0.2719 -0.1326
    6loPI   C5A   91  17.511   0.214   8.697 -0.1545 -0.0102  0.2488
    6loPI   C6A   92  17.347  -0.138   8.405  0.2632 -0.2603  0.0042
    6loPI   C1B   93  17.576  -0.243  10.257  0.1332 -0.0071 -0.0303
    6loPI   C2B   94  17.490  -0.349   9.786 -0.0028  0.1121 -0.1267
    6loPI   C3B   95  17.484  -0.320   9.353 -0.5414  0.1365  0.0306
    6loPI   C4B   96  17.502  -0.231   8.993  0.3069  0.1951  0.3577
    7loPI    C1   97  17.015  17.198  11.056 -0.0742 -0.1454 -0.0931
    7loPI    C2   98  16.896  17.262  11.432 -0.0696 -0.1302 -0.0942
    7loPI    C3   99  17.058  17.560  11.220  0.1870 -0.2107 -0.0138
    7loPI   PO4  100  16.886  17.134  10.910  0.1113 -0.0790  0.0681
    7loPI   GL1  101  16.623  17.162  10.548  0.1886 -0.0511  0.2282
    7loPI   GL2  102  16.340  16.896  10.394 -0.0505  0.3637  0.2931
    7loPI   C1A  103  16.547  17.335  10.124  0.3844 -0.1140  0.0604
    7loPI   C2A  104  16.469  17.381   9.637 -0.3161 -0.0721 -0.3708
    7loPI   C3A  105  16.449  17.375   9.136  0.0471  0.2182  0.3897
    7loPI   C4A  106  16.290  17.348   8.803  0.0090  0.1560  0.1684
    7loPI   C5A  107  16.118  17.569   8.476 -0.0660 -0.0928  0.1750
    7loPI   C6A  108  15.947  17.696   8.167  0.0923 -0.1263  0.0721
    7loPI   C1B  109  16.407  16.894   9.901 -0.2573  0.1854 -0.1312
    7loPI   C2B  110  16.330  16.909   9.492  0.0287 -0.2082 -0.1526
    7loPI   C3B  111  16.286  16.892   9.136 -0.3544  0.1381  0.0814
    7loPI   C4B  112  16.312  16.793   8.686 -0.2145  0.0558 -0.1464
    8loPI    C1  113  16.204  16.813  10.837 -0.1843  0.0645 -0.1145
    8loPI    C2  114  15.978  17.049  11.067  0.0289  0.1309  0.0295
    8loPI    C3  115  16.373  17.106  11.049  0.0459 -0.0351 -0.1577
    8loPI   PO4  116  15.975  16.651  10.639 -0.1155 -0.0390 -0.0722
    8loPI   GL1  117  16.005  16.566  10.226 -0.0903  0.4918  0.0409
    8loPI   GL2  118  16.222  16.374  10.184 -0.0291 -0.0128 -0.2720
    8loPI   C1A  119  15.948  16.709   9.853  0.0250  0.1275 -0.2648
    8loPI   C2A  120  15.926  16.649   9.469 -0.0158  0.0058  0.1593
    8loPI   C3A  121  15.864  16.740   9.079  0.2982 -0.0555  0.1439
    8loPI   C4A  122  15.743  16.605   8.559  0.0728  0.2934 -0.7212
    8loPI   C5A  123  15.914  16.238   8.334  0.0957  0.0488 -0.2334
    8loPI   C6A  124  15.935  15.821   8.168  0.1530  0.0871 -0.0249
    8loPI   C1B  125  16.332  16.412   9.728 -0.0795  0.0659  0.2951
    8loPI   C2B  126  16.268  16.216   9.356  0.1653  0.2688 -0.2040
    8loPI   C3B  127  16.228  16.264   8.934  0.0246  0.2519  0.1995
    8loPI   C4B  128  16.422  16.354   8.476 -0.0196 -0.1990  0.2708
    9loPI    C1  129   9.770   8.054  10.917 -0.2398  0.3946 -0.0830
    9loPI    C2  130   9.450   7.822  10.975 -0.0114  0.0371 -0.2141
    9loPI    C3  131   9.651   7.968  11.289  0.0808 -0.2812 -0.1221
    9loPI   PO4  132   9.930   8.018  10.686 -0.1313 -0.0742  0.1862
    9loPI   GL1  133  10.136   8.142  10.331  0.2159 -0.1915 -0.0872
    9loPI   GL2  134  10.412   7.993  10.514  0.0748  0.1128 -0.0121
    9loPI   C1A  135   9.997   8.195   9.915 -0.2018 -0.0619  0.2879
    9loPI   C2A  136  10.016   8.305   9.429  0.1182 -0.1291  0.1195
    9loPI   C3A  137   9.996   8.589   9.044 -0.3838  0.2741  0.2416
    9loPI   C4A  138   9.853   8.512   8.682 -0.0117 -0.1459  0.0521
    9loPI   C5A  139   9.583   8.567   8.287 -0.0226 -0.0889 -0.1202
    9loPI   C6A  140   9.138   8.519   8.376 -0.0975  0.0230  0.1138
    9loPI   C1B  141  10.411   7.841  10.052  0.1960 -0.1468  0.1559
    9loPI   C2B  142  10.274   7.925   9.639  0.0210 -0.2632 -0.1292
    9loPI   C3B  143  10.135   7.628   9.380 -0.1213 -0.1930 -0.1424
    9loPI   C4B  144  10.089   7.325   9.012 -0.2895  0.1673 -0.3184
   10loPI    C1  145   5.041  15.295  11.133 -0.0494 -0.1254  0.0345
   10loPI    C2  146   4.871  15.090  10.835 -0.1104  0.0877 -0.0795
   10loPI    C3  147   4.853  14.950  11.209  0.1532 -0.2912 -0.2025
   10loPI   PO4  148   4.940  15.554  11.041  0.2980  0.1321 -0.2046
   10loPI   GL1  149   4.921  15.568  10.623 -0.0453  0.3495 -0.0112
   10loPI   GL2  150   5.066  15.923  10.684 -0.0435  0.3601 -0.1555
   10loPI   C1A  151   4.711  15.408  10.354  0.0233 -0.1466 -0.0172
   10loPI   C2A  152   4.703  15.302   9.952  0.0242  0.3490  0.0413
   10loPI   C3A  153   4.560  15.111   9.674 -0.1646 -0.4980  0.0296
   10loPI   C4A  154   4.654  14.954   9.287 -0.1189  0.3798 -0.1800
   10loPI   C5A  155   4.656  14.866   8.832  0.0081 -0.1866 -0.0036
   10loPI   C6A  156   4.409  14.735   8.538 -0.0041 -0.0560 -0.0282
   10loPI   C1B  157   5.071  15.859  10.258 -0.1282  0.0412  0.3420
   10loPI   C2B  158   4.999  16.043   9.882  0.0916  0.2720  0.2961
   10loPI   C3B  159   5.032  16.035   9.411  0.2736 -0.1597 -0.0056
   10loPI   C4B  160   5.373  16.363   9.174  0.0145 -0.1035 -0.0579
   11loPI    C1  161  13.643   5.349  11.244  0.0475 -0.0942 -0.1769
   11loPI    C2  162  13.626   5.649  11.508 -0.2083  0.1136 -0.4231
   11loPI    C3  163  13.980   5.528  11.366 -0.0694  0.0111 -0.0054
   11loPI   PO4  164  13.499   5.369  11.096  0.1923  0.2497 -0.0239
   11loPI   GL1  165  13.312   5.640  10.711  0.0521 -0.1322 -0.0865
   11loPI   GL2  166  13.433   5.368  10.632 -0.1289  0.0237  0.1024
   11loPI   C1A  167  13.577   5.732  10.340  0.1585 -0.0162  0.0815
   11loPI   C2A  168  13.685   5.721   9.849  0.0852 -0.3827 -0.2806
   11loPI   C3A  169  13.859   5.585   9.433  0.0157 -0.0240  0.1123
   11loPI   C4A  170  13.871   5.587   8.974  0.0309 -0.0666 -0.0940
   11loPI   C5A  171  13.688   5.748   8.701 -0.0253  0.1770  0.1976
   11loPI   C6A  172  13.356   5.710   8.465  0.1410  0.0009  0.0157
   11loPI   C1B  173  13.393   5.142  10.215 -0.1022  0.1322 -0.1382
   11loPI   C2B  174  13.546   5.166   9.779  0.2307  0.4212  0.0316
   11loPI   C3B  175  13.497   5.283   9.271  0.0786 -0.3430 -0.3751
   11loPI   C4B  176  13.439   5.284   8.826 -0.0385 -0.3912  0.2414
   12loPI    C1  177   4.305   5.234  10.458  0.0138 -0.0469 -0.0624
   12loPI    C2  178   3.943   5.151  10.606  0.0219  0.0180 -0.0058
   12loPI    C3  179   4.266   5.124  10.840  0.0240  0.2168  0.0165
   12loPI   PO4  180   4.252   5.437  10.349 -0.0982 -0.1564  0.0806
   12loPI   GL1  181   4.087   5.796  10.184  0.3290  0.4114  0.0520
   12loPI   GL2  182   4.431   5.953  10.066 -0.0474  0.1040  0.0863
   12loPI   C1A  183   3.964   5.716   9.710  0.0021  0.2065 -0.3676
   12loPI   C2A  184   3.716   5.638   9.254  0.1350  0.2439 -0.0321
   12loPI   C3A  185   3.710   5.657   8.804 -0.0662 -0.4202 -0.4659
   12loPI   C4A  186   3.922   5.552   8.436  0.2417  0.1377 -0.0612
   12loPI   C5A  187   3.975   5.557   7.960  0.0034  0.0944 -0.0665
   12loPI   C6A  188   4.064   5.577   7.450  0.1471 -0.3588  0.0814
   12loPI   C1B  189   4.430   5.605   9.692  0.2731  0.2652 -0.0958
   12loPI   C2B  190   4.408   5.574   9.275 -0.0779 -0.0039 -0.0621
   12loPI   C3B  191   4.641   5.669   8.927 -0.0152  0.2590  0.2662
   12loPI   C4B  192   4.783   5.916   8.624  0.0959  0.1257  0.1407
   13loPI    C1  193   4.008   4.667  10.912  0.0527 -0.1041  0.0107
   13loPI    C2  194   4.120   4.373  11.159  0.0010 -0.0171  0.1385
   13loPI    C3  195   3.780   4.572  11.227  0.0870  0.1403  0.1112
   13loPI   PO4  196   4.081   4.601  10.665  0.1271  0.1102 -0.0143
   13loPI   GL1  197   3.962   4.302  10.294 -0.0667 -0.0569 -0.0048
   13loPI   GL2  198   4.069   4.089  10.026  0.0601 -0.3217 -0.1713
   13loPI   C1A  199   3.958   4.527   9.842 -0.1316 -0.0548  0.4719
   13loPI   C2A  200   3.960   4.511   9.434 -0.0740  0.0177 -0.1786
   13loPI   C3A  201   3.987   4.539   8.937  0.1604  0.4095 -0.1202
   13loPI   C4A  202   3.834   4.665   8.545  0.0956 -0.0470  0.1023
   13loPI   C5A  203   3.943   4.643   8.110 -0.2077 -0.0677 -0.0875
   13loPI   C6A  204   4.033   4.222   7.860  0.0673 -0.1360  0.2305
   13loPI   C1B  205   4.034   4.049   9.607 -0.2893  0.0210  0.2188
   13loPI   C2B  206   3.928   3.953   9.209 -0.0832  0.3182 -0.0455
   13loPI   C3B  207   3.892   4.007   8.767  0.2066 -0.4715  0.0480
   13loPI   C4B  208   3.779   4.014   8.284  0.5400 -0.1071 -0.0653
   14loPI    C1  209   1.829  17.146  10.991  0.0276  0.0295  0.0001
   14loPI    C2  210   1.725  16.946  11.322 -0.1083  0.0556 -0.0260
   14loPI    C3  211   2.110  17.025  11.249 -0.0700 -0.0300  0.0797
   14loPI   PO4  212   1.664  17.059  10.785 -0.2875  0.0535  0.2967
   14loPI   GL1  213   1.743  17.076  10.448 -0.2010 -0.0174 -0.1119
   14loPI   GL2  214   1.815  16.788  10.301  0.1104  0.0920 -0.0442
   14loPI   C1A  215   1.806  17.273  10.041  0.1058  0.0088  0.2276
   14loPI   C2A  216   1.805  17.386   9.559  0.1941  0.2416  0.1630
   14loPI   C3A  217   1.645  17.310   9.113  0.0292 -0.4045  0.2088
   14loPI   C4A  218   1.650  17.434   8.685  0.0784 -0.0123 -0.3375
   14loPI   C5A  219   1.325  17.308   8.337 -0.2273 -0.1877 -0.1461
   14loPI   C6A  220   0.988  17.492   8.200  0.4719  0.2007 -0.1468
   14loPI   C1B  221   1.750  16.779   9.801 -0.1300 -0.0712  0.1544
   14loPI   C2B  222   1.649  16.880   9.405  0.0043  0.0252  0.1183
   14loPI   C3B  223   1.779  16.834   9.008  0.1687 -0.1035 -0.1736
   14loPI   C4B  224   1.680  16.843   8.649  0.0343  0.2050 -0.2327
   15loPI    C1  225  16.670  15.407  11.346  0.1109 -0.0236  0.0601
   15loPI    C2  226  16.972  15.553  11.563  0.1706  0.0354 -0.0622
   15loPI    C3  227  16.714  15.296  11.728  0.1130  0.2140  0.1304
   15loPI   PO4  228  16.846  15.453  11.015 -0.0272  0.3262  0.1586
   15loPI   GL1  229  16.849  15.497  10.673  0.1540  0.0624  0.1667
   15loPI   GL2  230  17.051  15.720  10.568  0.0338  0.1658 -0.0097
   15loPI   C1A  231  16.601  15.481  10.385 -0.1753 -0.1069  0.2254
   15loPI   C2A  232  16.497  15.495   9.978 -0.1993 -0.2590  0.2727
   15loPI   C3A  233  16.480  15.529   9.475 -0.1888  0.0352  0.0933
   15loPI   C4A  234  16.525  15.536   9.002 -0.0692 -0.0593 -0.0032
   15loPI   C5A  235  16.613  15.420   8.612  0.2997  0.1084  0.2337
   15loPI   C6A  236  16.709  15.315   8.169  0.1850 -0.0661  0.0507
   15loPI   C1B  237  17.056  15.631  10.167 -0.0820 -0.1770  0.0265
   15loPI   C2B  238  17.002  15.582   9.740  0.0339  0.1546 -0.0235
   15loPI   C3B  239  17.143  15.645   9.284 -0.1501  0.2668  0.0146
   15loPI   C4B  240  17.033  15.593   8.901  0.3833 -0.3798  0.1361
   16loPI    C1  241   4.767  16.056  11.164 -0.0889 -0.1004  0.0722
   16loPI    C2  242   5.166  16.049  11.187 -0.0819  0.3161  0.1543
   16loPI    C3  243   4.949  16.147  11.509 -0.2579 -0.0090  0.1386
   16loPI   PO4  244   4.746  16.189  10.954  0.0811 -0.1667 -0.0154
   16loPI   GL1  245   4.537  16.022  10.568 -0.1867  0.0089 -0.3163
   16loPI   GL2  246   4.785  16.287  10.390  0.1412  0.1770 -0.2851
   16loPI   C1A  247   4.581  15.860  10.176  0.1069 -0.0992 -0.0667
   16loPI   C2A  248   4.613  15.766   9.674  0.2373 -0.2227 -0.1133
   16loPI   C3A  249   4.648  15.893   9.131  0.0265 -0.2067  0.0123
   16loPI   C4A  250   4.912  16.206   8.946 -0.0642  0.1588  0.2860
   16loPI   C5A  251   5.261  16.407   8.701  0.0009 -0.1428  0.2682
   16loPI   C6A  252   5.699  16.399   8.804 -0.0312 -0.1070 -0.2164
   16loPI   C1B  253   4.523  16.336  10.101  0.1824  0.1628 -0.3003
   16loPI   C2B  254   4.497  16.283   9.683  0.1755 -0.1951 -0.0131
   16loPI   C3B  255   4.490  16.388   9.288  0.0054  0.1679  0.2330
   16loPI   C4B  256   4.521  16.650   8.935  0.1115 -0.3249 -0.1959
   17loPI    C1  257   9.013   8.122  10.987 -0.0738 -0.1144 -0.0115
   17loPI    C2  258   8.989   8.448  11.217  0.3664 -0.1515  0.0967
   17loPI    C3  259   8.657   8.249  11.116  0.1131  0.2083  0.2003
   17loPI   PO4  260   9.185   8.208  10.780  0.0751  0.2966  0.2647
   17loPI   GL1  261   9.090   8.499  10.360  0.0074 -0.4498  0.0515
   17loPI   GL2  262   9.191   8.171  10.279 -0.1261 -0.0992  0.2410
   17loPI   C1A  263   9.278   8.510   9.938  0.0222  0.2255  0.1915
   17loPI   C2A  264   9.617   8.455   9.655  0.1600  0.2361 -0.0557
   17loPI   C3A  265   9.551   8.369   9.212 -0.1209 -0.1228  0.4861
   17loPI   C4A  266   9.502   8.218   8.797  0.0354  0.1136 -0.2554
   17loPI   C5A  267   9.493   8.033   8.461  0.1782  0.2775 -0.3556
   17loPI   C6A  268   9.363   8.190   8.038  0.1545 -0.3012  0.2163
   17loPI   C1B  269   9.329   8.024   9.957  0.4680 -0.0822 -0.0227
   17loPI   C2B  270   9.223   8.037   9.554 -0.1730  0.1256  0.3624
   17loPI   C3B  271   9.311   7.800   9.227  0.2305  0.0972  0.1792
   17loPI   C4B  272   9.229   7.740   8.789 -0.1172  0.0673 -0.0168
   18loPI    C1  273  11.896   7.256  10.926 -0.1643  0.2330  0.0767
   18loPI    C2  274  11.960   7.566  11.171  0.0979  0.2122  0.0374
   18loPI    C3  275  12.118   7.208  11.255 -0.1484  0.1035  0.0475
   18loPI   PO4  276  11.960   7.278  10.743  0.0078  0.1968 -0.0214
   18loPI   GL1  277  12.105   7.244  10.366  0.0996  0.2684  0.0145
   18loPI   GL2  278  12.302   6.993  10.108 -0.0570  0.0095  0.2015
   18loPI   C1A  279  11.830   7.332   9.990  0.4061 -0.0943 -0.3052
   18loPI   C2A  280  11.870   7.410   9.629  0.0317  0.2688  0.3993
   18loPI   C3A  281  11.862   7.522   9.209 -0.1205  0.0252  0.0266
   18loPI   C4A  282  11.864   7.711   8.807  0.3572 -0.3248 -0.0871
   18loPI   C5A  283  11.842   7.799   8.388  0.3273 -0.0956 -0.1726
   18loPI   C6A  284  11.491   7.918   8.128 -0.0291 -0.2233 -0.0842
   18loPI   C1B  285  12.366   6.585   9.810  0.1006 -0.0050 -0.1443
   18loPI   C2B  286  12.330   6.714   9.386  0.1489  0.0535 -0.0171
   18loPI   C3B  287  12.214   6.646   8.959  0.2005  0.1357  0.4784
   18loPI   C4B  288  12.351   6.842   8.607 -0.2391  0.3340  0.0114
   19loPI    C1  289   4.269   7.059  10.577  0.0229  0.0339  0.1917
   19loPI    C2  290   3.919   6.865  10.575 -0.0326  0.1343  0.1179
   19loPI    C3  291   4.256   6.668  10.662 -0.0921  0.0109  0.0704
   19loPI   PO4  292   4.329   7.130  10.303  0.0626 -0.1644  0.2311
   19loPI   GL1  293   4.151   7.411   9.952  0.2421  0.0093  0.0029
   19loPI   GL2  294   3.969   7.130   9.970  0.4768 -0.2197  0.0523
   19loPI   C1A  295   4.269   7.245   9.521  0.0960 -0.2904 -0.0911
   19loPI   C2A  296   4.240   7.201   9.068 -0.1669 -0.0929  0.1488
   19loPI   C3A  297   4.239   7.195   8.607  0.1147 -0.1648  0.4370
   19loPI   C4A  298   4.608   7.349   8.387  0.0659 -0.3539  0.1178
   19loPI   C5A  299   5.009   7.552   8.276  0.5209 -0.1188  0.0923
   19loPI   C6A  300   4.946   7.732   7.917  0.1335  0.3544 -0.0599
   19loPI   C1B  301   3.766   7.265   9.627 -0.2556  0.0089 -0.0541
   19loPI   C2B  302   3.721   7.214   9.202  0.1102 -0.0093  0.0818
   19loPI   C3B  303   3.487   7.113   8.813 -0.1749  0.2226 -0.0058
   19loPI   C4B  304   3.221   6.822   8.727  0.0951  0.0318 -0.1668
   20loPI    C1  305  14.337  12.831  11.551 -0.0330 -0.3119 -0.3007
   20loPI    C2  306  13.951  12.729  11.539 -0.1206 -0.0136 -0.1408
   20loPI    C3  307  14.073  13.015  11.790  0.2877 -0.4511  0.1747
   20loPI   PO4  308  14.364  12.924  11.338 -0.2457 -0.0596  0.0147
   20loPI   GL1  309  14.325  12.914  10.788 -0.0884  0.1062 -0.1493
   20loPI   GL2  310  14.029  12.902  10.975 -0.1108  0.0883  0.0240
   20loPI   C1A  311  14.260  13.161  10.446 -0.0310  0.1328 -0.2324
   20loPI   C2A  312  14.082  13.217  10.077  0.0482 -0.1277 -0.1774
   20loPI   C3A  313  14.179  13.238   9.622  0.0354 -0.1153 -0.0314
   20loPI   C4A  314  14.154  13.257   9.099  0.0291  0.0875 -0.1062
   20loPI   C5A  315  14.030  13.482   8.697  0.1893  0.0837  0.2459
   20loPI   C6A  316  13.864  13.904   8.470  0.0501 -0.0156 -0.1149
   20loPI   C1B  317  13.764  13.024  10.561  0.0144  0.1317  0.0569
   20loPI   C2B  318  13.295  13.170  10.417  0.1272  0.1031  0.0963
   20loPI   C3B  319  13.042  13.230  10.061  0.0466  0.2660 -0.0053
   20loPI   C4B  320  12.974  13.564   9.809  0.1409  0.1644  0.3581
   21loPI    C1  321   6.336   6.982  10.882 -0.0045 -0.2575 -0.0855
   21loPI    C2  322   5.992   6.873  11.055 -0.1318  0.0630 -0.1303
   21loPI    C3  323   6.177   7.209  11.170  0.1148 -0.0544 -0.1773
   21loPI   PO4  324   6.230   7.008  10.571  0.0607 -0.3586 -0.1997
   21loPI   GL1  325   6.147   6.925  10.168  0.0504  0.1441  0.0622
   21loPI   GL2  326   5.910   7.088  10.186 -0.2343 -0.2487  0.2756
   21loPI   C1A  327   6.397   6.739   9.797  0.2242  0.0189  0.1078
   21loPI   C2A  328   6.708   6.601   9.522 -0.2501 -0.0061 -0.1637
   21loPI   C3A  329   7.005   6.758   9.182 -0.1948  0.0570  0.1249
   21loPI   C4A  330   7.193   6.788   8.756  0.2291 -0.1324 -0.3142
   21loPI   C5A  331   7.258   6.431   8.487 -0.0847  0.1143 -0.1899
   21loPI   C6A  332   6.894   6.143   8.379  0.1744 -0.0075  0.0279
   21loPI   C1B  333   5.914   7.076   9.740  0.0040  0.0867  0.0912
   21loPI   C2B  334   5.927   7.034   9.306  0.1282 -0.1295  0.1544
   21loPI   C3B  335   6.118   7.137   8.850 -0.0857  0.1996  0.0468
   21loPI   C4B  336   5.997   7.455   8.673  0.2815  0.0348 -0.0382
   22loPI    C1  337   0.458   1.444  11.308  0.0531 -0.2959  0.0907
   22loPI    C2  338   0.585   1.809  11.409 -0.2933 -0.1343 -0.0448
   22loPI    C3  339   0.461   1.556  11.692 -0.1496 -0.1104  0.0403
   22loPI   PO4  340   0.378   1.526  11.087  0.1561 -0.0555 -0.0305
   22loPI   GL1  341   0.534   1.515  10.583 -0.1800  0.0121 -0.3001
   22loPI   GL2  342   0.212   1.740  10.614 -0.0618  0.0546 -0.1132
   22loPI   C1A  343   0.458   1.281  10.226  0.1059  0.1277 -0.3185
   22loPI   C2A  344   0.377   1.357   9.790  0.1253  0.0602  0.3042
   22loPI   C3A  345   0.224   1.248   9.446  0.1769  0.2147 -0.0657
   22loPI   C4A  346   0.052   1.321   9.066 -0.2526 -0.0467 -0.1104
   22loPI   C5A  347  -0.060   1.365   8.677 -0.2326  0.3458  0.1430
   22loPI   C6A  348  -0.359   1.392   8.395 -0.0573 -0.0369 -0.0524
   22loPI   C1B  349   0.212   1.724  10.208 -0.1213 -0.1017 -0.1047
   22loPI   C2B  350   0.549   1.820   9.884  0.2360  0.1528 -0.0339
   22loPI   C3B  351   0.753   1.747   9.574  0.4027  0.0737 -0.0469
   22loPI   C4B  352   1.129   1.658   9.396 -0.0454 -0.2248  0.0618
   23loPI    C1  353  10.754  14.706  11.135  0.1318  0.1946 -0.1349
   23loPI    C2  354  10.731  15.105  11.125  0.1354  0.1994  0.0250
   23loPI    C3  355  10.727  14.913  11.476 -0.0078  0.0501 -0.0569
   23loPI   PO4  356  10.967  14.654  10.971  0.0307 -0.0608  0.1702
   23loPI   GL1  357  10.812  14.452  10.505  0.2128  0.2156  0.0513
   23loPI   GL2  358  11.082  14.395  10.447 -0.1472 -0.0796 -0.0752
   23loPI   C1A  359  10.768  14.393  10.031  0.1146  0.1104  0.3205
   23loPI   C2A  360  10.643  14.552   9.603  0.2206 -0.1096  0.2533
   23loPI   C3A  361  10.608  14.643   9.127  0.1201 -0.0390 -0.1146
   23loPI   C4A  362  10.466  14.735   8.756  0.0891 -0.0048 -0.1343
   23loPI   C5A  363  10.227  14.938   8.488  0.0240 -0.2249  0.0363
   23loPI   C6A  364   9.998  15.153   8.275 -0.1752  0.0419  0.0290
   23loPI   C1B  365  11.261  14.485  10.092  0.0154  0.0190 -0.0838
   23loPI   C2B  366  11.097  14.440   9.594  0.3440  0.0267  0.3033
   23loPI   C3B  367  10.958  14.216   9.148  0.2894 -0.0530  0.2634
   23loPI   C4B  368  11.278  14.024   8.942  0.0983  0.0628 -0.1631
   24loPI    C1  369  12.365   8.995  10.893  0.1086  0.1075 -0.0469
   24loPI    C2  370  12.569   9.250  11.124  0.2561 -0.1425  0.1040
   24loPI    C3  371  12.232   9.082  11.260  0.0682  0.0956 -0.0587
   24loPI   PO4  372  12.630   8.848  10.837 -0.0572  0.2074  0.2367
   24loPI   GL1  373  12.821   8.696  10.503 -0.0316  0.1535 -0.2437
   24loPI   GL2  374  12.891   8.426  10.314  0.1478 -0.0080 -0.2232
   24loPI   C1A  375  12.773   8.965  10.174 -0.1485 -0.0352 -0.2127
   24loPI   C2A  376  12.704   8.938   9.730 -0.0340  0.3235  0.0147
   24loPI   C3A  377  12.585   8.990   9.329 -0.2309 -0.0984 -0.0170
   24loPI   C4A  378  12.516   8.914   8.906 -0.3359  0.1064  0.0589
   24loPI   C5A  379  12.489   9.063   8.517  0.0004 -0.1772 -0.1398
   24loPI   C6A  380  12.576   9.426   8.182  0.1219 -0.0738  0.1559
   24loPI   C1B  381  12.868   8.408   9.843 -0.0345  0.0042 -0.0007
   24loPI   C2B  382  12.948   8.469   9.386  0.1150 -0.0551 -0.2133
   24loPI   C3B  383  12.841   8.440   8.950  0.0614 -0.0613  0.0776
   24loPI   C4B  384  12.523   8.544   8.531 -0.0008  0.1371  0.1228
   25loPI    C1  385   2.257   0.912  11.257 -0.0734 -0.0060  0.0582
   25loPI    C2  386   2.055   0.632  11.460  0.1101 -0.0821  0.1374
   25loPI    C3  387   2.130   0.987  11.629  0.1101 -0.0820  0.1372
   25loPI   PO4  388   2.129   0.941  11.053 -0.3230  0.1163  0.1132
   25loPI   GL1  389   2.178   0.632  10.728  0.0802 -0.2754 -0.1387
   25loPI   GL2  390   2.432   0.562  10.634 -0.1013  0.0794  0.0182
   25loPI   C1A  391   2.207   0.667  10.202  0.2479 -0.0384 -0.2408
   25loPI   C2A  392   2.339   0.715   9.826 -0.2827  0.4679 -0.1952
   25loPI   C3A  393   2.452   0.719   9.423  0.1222 -0.1993  0.0234
   25loPI   C4A  394   2.549   0.988   9.041 -0.1018 -0.1136 -0.1232
   25loPI   C5A  395   2.418   0.887   8.610 -0.0389 -0.2379  0.2086
   25loPI   C6A  396   2.202   0.821   8.292  0.2618 -0.0426 -0.1976
   25loPI   C1B  397   2.713   0.515  10.296  0.0375  0.0009  0.0041
   25loPI   C2B  398   2.738   0.270   9.858 -0.1681 -0.1031 -0.1428
   25loPI   C3B  399   2.913   0.274   9.383 -0.2701 -0.0018 -0.0424
   25loPI   C4B  400   2.940   0.165   8.900  0.3292  0.0378 -0.1500
   26loPI    C1  401   0.398  12.326  11.111  0.4639 -0.1472  0.0014
   26loPI    C2  402   0.625  12.512  11.383  0.1290 -0.0167  0.1976
   26loPI    C3  403   0.599  12.113  11.384  0.0887 -0.0148  0.3935
   26loPI   PO4  404   0.482  12.517  10.885  0.0777 -0.0085 -0.1255
   26loPI   GL1  405   0.260  12.486  10.517 -0.2784 -0.3075 -0.0466
   26loPI   GL2  406   0.045  12.387  10.356 -0.1103 -0.0648  0.0673
   26loPI   C1A  407   0.597  12.470  10.052  0.1241  0.2912 -0.2003
   26loPI   C2A  408   0.541  12.592   9.606  0.1641  0.0005  0.2096
   26loPI   C3A  409   0.585  12.748   9.197 -0.1307 -0.0210  0.2207
   26loPI   C4A  410   0.553  12.924   8.668  0.1099  0.2178 -0.0798
   26loPI   C5A  411   0.449  12.991   8.296 -0.1090  0.0284 -0.0812
   26loPI   C6A  412   0.239  13.343   8.095 -0.2177 -0.0774 -0.1935
   26loPI   C1B  413  -0.060  12.462   9.928  0.1609  0.2590  0.0153
   26loPI   C2B  414   0.018  12.508   9.525 -0.3691 -0.1138  0.1804
   26loPI   C3B  415   0.080  12.652   9.077  0.0912  0.1412  0.5005
   26loPI   C4B  416  -0.009  12.591   8.604 -0.0658 -0.0533 -0.2804
   27loPI    C1  417   0.840  10.648  10.525  0.3318 -0.2012  0.0586
   27loPI    C2  418   1.161  10.617  10.761  0.1827 -0.1279  0.2745
   27loPI    C3  419   0.800  10.677  10.922  0.1019  0.0972  0.0169
   27loPI   PO4  420   0.908  10.555  10.335  0.0542 -0.2592 -0.2537
   27loPI   GL1  421   0.753  10.513   9.953 -0.2757 -0.1534  0.0419
   27loPI   GL2  422   0.597  10.219   9.999 -0.3176 -0.0157 -0.0407
   27loPI   C1A  423   0.764  10.689   9.584 -0.2388  0.1424  0.1184
   27loPI   C2A  424   0.852  10.827   9.277  0.1016 -0.0127  0.1479
   27loPI   C3A  425   0.970  10.923   9.078 -0.2769  0.2028  0.0974
   27loPI   C4A  426   1.203  10.841   8.658 -0.1028  0.2417  0.1257
   27loPI   C5A  427   1.439  10.893   8.263  0.3727  0.0207  0.2584
   27loPI   C6A  428   1.679  10.445   8.066 -0.2882 -0.1540 -0.2187
   27loPI   C1B  429   0.710  10.206   9.591  0.0297 -0.2380 -0.1217
   27loPI   C2B  430   0.906  10.241   9.228 -0.1475  0.0414 -0.0180
   27loPI   C3B  431   0.907  10.417   8.871 -0.0121  0.2610  0.2786
   27loPI   C4B  432   0.761  10.458   8.427  0.0591  0.0500  0.1206
   28loPI    C1  433  11.965   1.605  10.743 -0.1104  0.0261  0.1469
   28loPI    C2  434  11.811   1.663  11.107 -0.1324  0.2055  0.1097
   28loPI    C3  435  12.197   1.743  11.039 -0.0666 -0.0644  0.1553
   28loPI   PO4  436  11.689   1.620  10.604  0.0968  0.1181  0.0008
   28loPI   GL1  437  11.468   1.555  10.219  0.0303 -0.2181 -0.0575
   28loPI   GL2  438  11.761   1.437  10.030  0.2582 -0.2138  0.0326
   28loPI   C1A  439  11.290   1.745   9.808  0.1815 -0.1835  0.1455
   28loPI   C2A  440  11.230   1.807   9.390 -0.0310 -0.0363 -0.1916
   28loPI   C3A  441  11.410   1.581   8.992 -0.3889  0.0069 -0.0473
   28loPI   C4A  442  11.494   1.774   8.614  0.4100  0.0542 -0.2201
   28loPI   C5A  443  11.535   1.874   8.114  0.2249  0.1163  0.0157
   28loPI   C6A  444  11.342   2.229   7.959  0.1229 -0.1271 -0.0918
   28loPI   C1B  445  11.570   1.395   9.637  0.1476 -0.3042 -0.1197
   28loPI   C2B  446  11.655   1.224   9.270 -0.0806  0.2607  0.0629
   28loPI   C3B  447  11.591   1.155   8.868  0.0055  0.1069  0.0820
   28loPI   C4B  448  11.389   1.285   8.588 -0.2871  0.2194  0.0027
   29loPI    C1  449   1.906  16.105  10.762  0.0300 -0.1247 -0.3177
   29loPI    C2  450   2.238  15.926  10.894  0.0106  0.0103 -0.0798
   29loPI    C3  451   1.886  15.738  10.919 -0.0252  0.1151  0.2629
   29loPI   PO4  452   2.040  16.294  10.604 -0.0157 -0.3834 -0.3117
   29loPI   GL1  453   2.141  16.225  10.211  0.1689 -0.3091  0.3363
   29loPI   GL2  454   2.164  16.508  10.132 -0.1698 -0.2531 -0.0218
   29loPI   C1A  455   2.525  16.150   9.955 -0.2394  0.0580  0.0901
   29loPI   C2A  456   2.526  16.142   9.455 -0.0828 -0.0034  0.0718
   29loPI   C3A  457   2.443  16.210   8.994  0.0771 -0.2807  0.3566
   29loPI   C4A  458   2.300  15.979   8.631  0.1262  0.0377 -0.1369
   29loPI   C5A  459   2.440  15.600   8.418  0.1199 -0.3030  0.0599
   29loPI   C6A  460   2.505  15.251   8.255 -0.1834  0.0551 -0.1482
   29loPI   C1B  461   2.106  16.421   9.662  0.0047 -0.0310 -0.0048
   29loPI   C2B  462   2.107  16.498   9.199  0.2996 -0.0225 -0.3065
   29loPI   C3B  463   2.129  16.599   8.799 -0.2387  0.1731 -0.0482
   29loPI   C4B  464   1.910  16.366   8.379 -0.0779 -0.4114 -0.0831
   30loPI    C1  465   4.250  10.245  10.647  0.1212  0.1043  0.1040
   30loPI    C2  466   3.893  10.340  10.493  0.1367  0.0652  0.0433
   30loPI    C3  467   3.915  10.149  10.844  0.0899 -0.1319 -0.0598
   30loPI   PO4  468   4.457  10.426  10.568  0.0061 -0.3277 -0.2963
   30loPI   GL1  469   4.395  10.840  10.284 -0.0001  0.1385 -0.1810
   30loPI   GL2  470   4.153  10.594  10.152  0.2165 -0.2044 -0.2180
   30loPI   C1A  471   4.670  10.890   9.841  0.1577  0.1232  0.2364
   30loPI   C2A  472   4.680  11.005   9.398  0.0567 -0.1409 -0.2289
   30loPI   C3A  473   4.508  11.359   9.122 -0.1052 -0.1489 -0.0534
   30loPI   C4A  474   4.397  11.553   8.728  0.1020 -0.2063 -0.0676
   30loPI   C5A  475   4.267  11.897   8.350 -0.2061  0.1223 -0.1599
   30loPI   C6A  476   3.936  11.935   8.076 -0.1533 -0.0694  0.0020
   30loPI   C1B  477   3.982  10.646   9.762 -0.0319  0.1629 -0.0776
   30loPI   C2B  478   3.971  10.709   9.244  0.1046 -0.2234 -0.1034
   30loPI   C3B  479   3.866  10.823   8.880 -0.4157 -0.0916  0.1125
   30loPI   C4B  480   3.814  10.990   8.461 -0.5976 -0.1151  0.1271
   31loPI    C1  481   6.275  10.260  10.820  0.4242 -0.2540 -0.1041
   31loPI    C2  482   6.168  10.399  11.179  0.3570  0.1841 -0.2867
   31loPI    C3  483   6.325  10.032  11.145 -0.0463 -0.0384  0.1282
   31loPI   PO4  484   6.087  10.342  10.694  0.3452  0.0146 -0.2960
   31loPI   GL1  485   6.045  10.472  10.384 -0.0708 -0.0875 -0.0068
   31loPI   GL2  486   6.058  10.756  10.270  0.0412  0.0583  0.1065
   31loPI   C1A  487   5.995  10.352   9.924 -0.1542  0.1536  0.0985
   31loPI   C2A  488   5.983  10.525   9.627  0.0468  0.0655 -0.0113
   31loPI   C3A  489   5.969  10.593   9.235  0.0242 -0.1289  0.0446
   31loPI   C4A  490   5.932  10.679   8.748  0.1820  0.0798  0.3352
   31loPI   C5A  491   5.721  10.479   8.454 -0.2241  0.1074 -0.0753
   31loPI   C6A  492   5.580  10.142   8.109  0.3243  0.0645 -0.1379
   31loPI   C1B  493   6.314  10.993   9.889  0.1998 -0.2192 -0.2068
   31loPI   C2B  494   6.252  10.956   9.486 -0.1132  0.0739  0.0728
   31loPI   C3B  495   6.161  11.050   9.051 -0.0093  0.0862  0.0026
   31loPI   C4B  496   6.326  11.062   8.650  0.1089 -0.0082  0.0711
   32loPI    C1  497   2.201  17.560  11.137 -0.1098  0.2923 -0.0450
   32loPI    C2  498   2.509  17.788  11.253  0.0507 -0.0270  0.1729
   32loPI    C3  499   2.338  17.537  11.513 -0.4365  0.1874  0.0705
   32loPI   PO4  500   2.255  17.348  10.889  0.0442  0.0977 -0.0655
   32loPI   GL1  501   2.212  17.275  10.422 -0.0492  0.2187  0.1005
   32loPI   GL2  502   2.452  17.132  10.392  0.1548 -0.0833  0.3139
   32loPI   C1A  503   2.219  17.453  10.031  0.2098 -0.3578  0.1527
   32loPI   C2A  504   2.231  17.496   9.698  0.0481 -0.1216  0.1387
   32loPI   C3A  505   2.278  17.614   9.281  0.1502  0.0239  0.0012
   32loPI   C4A  506   2.139  17.727   8.820  0.1134 -0.4370 -0.0158
   32loPI   C5A  507   1.986  17.672   8.369  0.5431 -0.1041  0.0887
   32loPI   C6A  508   1.677  17.571   8.140  0.4842 -0.2047 -0.0362
   32loPI   C1B  509   2.269  16.955  10.074  0.1479  0.1274  0.1898
   32loPI   C2B  510   2.127  16.975   9.629  0.3166 -0.0608 -0.0221
   32loPI   C3B  511   2.141  17.087   9.276 -0.2267  0.2008 -0.1311
   32loPI   C4B  512   2.085  17.182   8.834 -0.1064  0.0448  0.2613
   33loPI    C1  513   4.123   3.662  10.911  0.1707 -0.1611  0.0791
   33loPI    C2  514   4.113   3.563  11.299  0.1711 -0.0331  0.1123
   33loPI    C3  515   4.328   3.878  11.178  0.0870 -0.0096  0.0222
   33loPI   PO4  516   3.976   3.468  10.775 -0.4374 -0.1732 -0.0819
   33loPI   GL1  517   3.702   3.359  10.491 -0.1355 -0.0177 -0.0389
   33loPI   GL2  518   3.362   3.378  10.500 -0.0895 -0.0215 -0.0921
   33loPI   C1A  519   3.703   3.595  10.062 -0.0447 -0.0228  0.0219
   33loPI   C2A  520   3.593   3.656   9.666 -0.0220 -0.2239  0.2248
   33loPI   C3A  521   3.546   3.649   9.282 -0.0773 -0.2158  0.1742
   33loPI   C4A  522   3.353   3.590   8.780 -0.1525 -0.1751 -0.0662
   33loPI   C5A  523   3.233   3.874   8.368  0.0574  0.0219 -0.2600
   33loPI   C6A  524   3.020   3.945   8.100  0.0601 -0.0759 -0.2072
   33loPI   C1B  525   3.187   3.506  10.194  0.0687  0.0147 -0.0366
   33loPI   C2B  526   3.154   3.395   9.844 -0.2519 -0.0479  0.2280
   33loPI   C3B  527   3.141   3.392   9.424  0.0782  0.1192 -0.1067
   33loPI   C4B  528   2.902   3.491   9.075 -0.0178  0.3633  0.1277
   34loPI    C1  529  10.292   2.923  10.820 -0.0343  0.0555  0.0710
   34loPI    C2  530  10.517   2.871  11.146  0.1841 -0.2066 -0.1161
   34loPI    C3  531  10.239   2.600  11.050  0.0848 -0.1037 -0.1212
   34loPI   PO4  532  10.420   3.081  10.660 -0.2198 -0.3704 -0.4112
   34loPI   GL1  533  10.645   3.048  10.328  0.1655  0.1605  0.0952
   34loPI   GL2  534  10.993   2.912  10.269  0.2137 -0.0875  0.1382
   34loPI   C1A  535  10.650   2.827   9.926  0.0934  0.0632  0.1400
   34loPI   C2A  536  10.286   2.900   9.724 -0.0248  0.0370  0.0528
   34loPI   C3A  537   9.985   3.008   9.368  0.5673  0.2418 -0.3658
   34loPI   C4A  538  10.007   3.119   8.934 -0.2461 -0.3250 -0.3075
   34loPI   C5A  539  10.009   3.375   8.556 -0.0902 -0.3719 -0.0930
   34loPI   C6A  540  10.254   3.554   8.197  0.1353  0.0859 -0.0231
   34loPI   C1B  541  11.028   2.518   9.971  0.4433  0.0276  0.0329
   34loPI   C2B  542  11.252   2.240   9.680 -0.0454 -0.0548  0.0960
   34loPI   C3B  543  11.459   2.274   9.295 -0.0833 -0.1791 -0.0681
   34loPI   C4B  544  11.506   2.411   8.880  0.0130 -0.0394 -0.3245
   35loPI    C1  545  15.679  13.137  10.886  0.0384 -0.1461 -0.1177
   35loPI    C2  546  15.332  13.089  10.692  0.0195  0.2881 -0.2007
   35loPI    C3  547  15.333  13.162  11.086  0.0372 -0.0943 -0.1262
   35loPI   PO4  548  15.838  13.244  10.669 -0.0775  0.0087  0.1290
   35loPI   GL1  549  16.082  13.436  10.337 -0.1052  0.0483 -0.1893
   35loPI   GL2  550  15.911  13.536  10.095  0.1760  0.1894  0.0356
   35loPI   C1A  551  16.217  13.315   9.819  0.0993 -0.1068 -0.0088
   35loPI   C2A  552  16.194  13.370   9.397  0.1963 -0.1829  0.0200
   35loPI   C3A  553  15.960  13.519   9.040  0.2935  0.2624 -0.1579
   35loPI   C4A  554  15.908  13.558   8.583 -0.1186  0.3286 -0.2427
   35loPI   C5A  555  15.972  13.547   8.160  0.0506 -0.4443 -0.1283
   35loPI   C6A  556  15.887  13.694   7.714  0.0748 -0.1297 -0.2693
   35loPI   C1B  557  15.704  13.785   9.721 -0.1631 -0.1318  0.2192
   35loPI   C2B  558  15.630  13.827   9.263 -0.1117  0.1251 -0.1279
   35loPI   C3B  559  15.549  13.779   8.872 -0.3366  0.0650  0.1311
   35loPI   C4B  560  15.381  13.464   8.525 -0.1895  0.1495 -0.1683
   36loPI    C1  561   2.282   6.728  10.836  0.0755 -0.0610  0.2255
   36loPI    C2  562   2.116   7.090  10.797 -0.2934 -0.2573 -0.1064
   36loPI    C3  563   2.319   6.997  11.129 -0.1629  0.2616 -0.0327
   36loPI   PO4  564   2.439   6.690  10.685  0.1881  0.1051 -0.0043
   36loPI   GL1  565   2.300   6.631  10.240 -0.0233  0.1754 -0.1064
   36loPI   GL2  566   2.592   6.454  10.274  0.4462  0.3159 -0.1453
   36loPI   C1A  567   2.202   6.385   9.813 -0.4384 -0.0534  0.1382
   36loPI   C2A  568   2.163   6.267   9.486 -0.3672 -0.0348 -0.2889
   36loPI   C3A  569   2.333   6.082   9.128 -0.3381  0.0671 -0.2499
   36loPI   C4A  570   2.298   6.147   8.694 -0.4688 -0.2644  0.1431
   36loPI   C5A  571   2.121   6.445   8.433 -0.0706  0.3850  0.1651
   36loPI   C6A  572   2.172   6.775   8.795 -0.4866  0.1528 -0.0547
   36loPI   C1B  573   2.724   6.445   9.833  0.1415 -0.1137  0.1428
   36loPI   C2B  574   2.640   6.351   9.396  0.2576 -0.2019  0.1396
   36loPI   C3B  575   2.676   6.553   9.007 -0.2623 -0.1344 -0.0693
   36loPI   C4B  576   2.724   6.533   8.674  0.0285 -0.1734  0.1244
   37loPI    C1  577   8.143   0.167  10.832  0.0244 -0.1791  0.0783
   37loPI    C2  578   8.004  -0.111  11.084 -0.1277 -0.4024 -0.2440
   37loPI    C3  579   8.343   0.084  11.168 -0.1815 -0.4644  0.1346
   37loPI   PO4  580   8.086   0.084  10.586  0.1048  0.4793  0.0413
   37loPI   GL1  581   8.264   0.081  10.345  0.1744  0.2690  0.0306
   37loPI   GL2  582   8.525   0.227  10.233  0.1743  0.2638 -0.1253
   37loPI   C1A  583   8.255  -0.268  10.072  0.1868 -0.1454 -0.1618
   37loPI   C2A  584   8.245  -0.330   9.555 -0.1266 -0.0111  0.0168
   37loPI   C3A  585   8.289  -0.383   9.060  0.0374  0.1410  0.0671
   37loPI   C4A  586   8.260  -0.517   8.587 -0.1301 -0.0669 -0.3318
   37loPI   C5A  587   8.147  -0.597   8.173  0.0237 -0.1317  0.0719
   37loPI   C6A  588   7.852  -0.782   7.982 -0.3348 -0.2212  0.1360
   37loPI   C1B  589   8.590   0.108   9.906 -0.1084 -0.4212  0.0050
   37loPI   C2B  590   8.685   0.046   9.499  0.3080 -0.0827 -0.0704
   37loPI   C3B  591   8.702   0.045   9.082  0.0672 -0.1143 -0.0452
   37loPI   C4B  592   8.634  -0.151   8.678  0.3136  0.0490  0.1381
   38loPI    C1  593   8.561   2.099  10.299  0.1095  0.0853  0.2390
   38loPI    C2  594   8.690   2.012  10.667 -0.1581  0.0514  0.3271
   38loPI    C3  595   8.660   1.723  10.392  0.0493  0.0781  0.2747
   38loPI   PO4  596   8.699   2.313  10.236  0.0051 -0.4696  0.1090
   38loPI   GL1  597   8.750   2.502   9.859 -0.0794 -0.0329 -0.0872
   38loPI   GL2  598   8.677   2.797   9.907  0.1590 -0.1736 -0.0906
   38loPI   C1A  599   8.751   2.479   9.406  0.1687 -0.1633 -0.1213
   38loPI   C2A  600   8.787   2.459   8.959  0.0588 -0.0551  0.0582
   38loPI   C3A  601   8.921   2.285   8.580  0.1265  0.1344 -0.0475
   38loPI   C4A  602   9.130   2.082   8.266 -0.3338 -0.0298  0.1314
   38loPI   C5A  603   9.073   1.843   7.930 -0.2896  0.1511  0.0672
   38loPI   C6A  604   8.656   1.844   7.753  0.1404  0.3256  0.2259
   38loPI   C1B  605   8.666   2.980   9.584 -0.1926  0.0387 -0.0627
   38loPI   C2B  606   8.730   2.983   9.157  0.0003  0.3277  0.2258
   38loPI   C3B  607   8.820   3.124   8.801  0.0617  0.3520  0.3748
   38loPI   C4B  608   8.712   3.272   8.367 -0.1148  0.0061 -0.5838
   39loPI    C1  609  10.283  15.264  11.034  0.3773 -0.2203 -0.4807
   39loPI    C2  610   9.919  15.102  11.001  0.0735  0.3529 -0.1008
   39loPI    C3  611  10.200  14.919  11.218 -0.0344 -0.0135 -0.2634
   39loPI   PO4  612  10.400  15.331  10.832 -0.0157 -0.1417  0.2334
   39loPI   GL1  613  10.475  15.223  10.440 -0.1258 -0.3722  0.2793
   39loPI   GL2  614  10.427  15.027  10.326  0.1906 -0.0604  0.1927
   39loPI   C1A  615  10.287  15.530  10.158  0.1970 -0.0908 -0.1339
   39loPI   C2A  616  10.184  15.477   9.714 -0.0981  0.4377  0.3082
   39loPI   C3A  617  10.152  15.361   9.263  0.0661 -0.1150 -0.0933
   39loPI   C4A  618  10.004  15.235   8.818  0.0136 -0.1193  0.0226
   39loPI   C5A  619   9.606  15.245   8.545  0.1194 -0.0124  0.0295
   39loPI   C6A  620   9.737  15.551   8.160  0.0213 -0.0656 -0.2616
   39loPI   C1B  621  10.515  14.970   9.935 -0.1563 -0.0167  0.2043
   39loPI   C2B  622  10.556  15.079   9.476  0.2946  0.1088 -0.0170
   39loPI   C3B  623  10.504  15.157   9.021  0.3155 -0.3375  0.1210
   39loPI   C4B  624  10.493  15.382   8.600 -0.1977 -0.0472 -0.0302
   40loPI    C1  625   8.392  12.170  10.564  0.1173 -0.1204  0.0741
   40loPI    C2  626   8.013  12.045  10.537  0.0293  0.1254  0.1456
   40loPI    C3  627   8.194  12.058  10.893  0.0905  0.0517  0.1174
   40loPI   PO4  628   8.512  12.400  10.408 -0.0368 -0.0643  0.1405
   40loPI   GL1  629   8.469  12.387   9.911 -0.0404  0.1220  0.3639
   40loPI   GL2  630   8.217  12.150  10.085  0.0963  0.0444  0.0583
   40loPI   C1A  631   8.588  12.435   9.466 -0.3238  0.2376  0.0378
   40loPI   C2A  632   8.692  12.680   9.181 -0.0754 -0.1311 -0.0039
   40loPI   C3A  633   8.794  12.614   8.737  0.1474 -0.1199  0.3043
   40loPI   C4A  634   8.564  12.647   8.344 -0.1699 -0.1115  0.1236
   40loPI   C5A  635   8.332  12.605   8.001  0.2382  0.0146  0.0216
   40loPI   C6A  636   8.084  12.673   7.635  0.2392  0.0210 -0.1221
   40loPI   C1B  637   8.076  12.264   9.635  0.1408 -0.2782 -0.1186
   40loPI   C2B  638   8.300  12.083   9.272 -0.1522  0.0342  0.0901
   40loPI   C3B  639   8.424  12.176   8.948 -0.1083 -0.0633  0.1748
   40loPI   C4B  640   8.335  12.467   8.821 -0.1426 -0.0722  0.0091
   41loPI    C1  641   9.067  17.852  10.763  0.0567 -0.0947  0.0111
   41loPI    C2  642   9.202  18.081  11.062 -0.2281  0.0566  0.0273
   41loPI    C3  643   8.841  17.910  11.088 -0.2591  0.0788 -0.2333
   41loPI   PO4  644   9.029  17.971  10.581 -0.2053 -0.2863 -0.1908
   41loPI   GL1  645   8.918  17.828  10.238 -0.0842  0.0638  0.0267
   41loPI   GL2  646   9.215  17.726  10.230 -0.5746  0.1979 -0.1705
   41loPI   C1A  647   9.100  17.827   9.734 -0.0659 -0.3688  0.1477
   41loPI   C2A  648   9.178  17.812   9.379  0.0070  0.1203 -0.0699
   41loPI   C3A  649   9.132  17.735   9.012  0.1333  0.0383 -0.0519
   41loPI   C4A  650   9.146  17.728   8.525 -0.0735  0.1538 -0.1329
   41loPI   C5A  651   8.883  17.701   8.236  0.0558  0.1111  0.0646
   41loPI   C6A  652   8.385  17.801   8.217 -0.0129  0.1333  0.0658
   41loPI   C1B  653   9.585  17.682   9.969 -0.0692 -0.0119 -0.1227
   41loPI   C2B  654   9.600  17.548   9.557  0.1781 -0.0145  0.0797
   41loPI   C3B  655   9.626  17.502   9.116 -0.1420 -0.3171 -0.1236
   41loPI   C4B  656   9.573  17.564   8.721 -0.1979 -0.0013 -0.0380
   42loPI    C1  657  10.127   4.103  10.911  0.2233  0.0400 -0.1308
   42loPI    C2  658   9.851   4.392  10.927  0.2527  0.0554  0.1368
   42loPI    C3  659  10.030   4.268  11.263  0.4169 -0.1041 -0.0080
   42loPI   PO4  660  10.249   4.185  10.634 -0.2361  0.1982 -0.5848
   42loPI   GL1  661  10.286   4.549  10.402  0.1187  0.0771  0.0049
   42loPI   GL2  662   9.956   4.534  10.417  0.1981 -0.3911  0.1599
   42loPI   C1A  663  10.506   4.448   9.951  0.0219  0.1759  0.2435
   42loPI   C2A  664  10.641   4.217   9.577 -0.0851 -0.0719  0.0364
   42loPI   C3A  665  10.797   4.166   9.130 -0.3418  0.0346 -0.0192
   42loPI   C4A  666  10.983   4.106   8.692  0.0864  0.0559 -0.0128
   42loPI   C5A  667  11.272   4.096   8.311  0.2919  0.1974 -0.0125
   42loPI   C6A  668  11.616   4.044   8.134 -0.2032 -0.1390 -0.1017
   42loPI   C1B  669  10.048   4.508   9.967  0.0143  0.1612 -0.2316
   42loPI   C2B  670  10.211   4.624   9.527 -0.3497  0.0747  0.1174
   42loPI   C3B  671  10.516   4.559   9.200 -0.2493 -0.0246  0.0591
   42loPI   C4B  672  10.864   4.621   8.919 -0.1937 -0.0523  0.2223
   43loPI    C1  673   5.293  17.249  10.819  0.5356 -0.0816 -0.0098
   43loPI    C2  674   5.131  16.884  10.838  0.1798  0.0779  0.0981
   43loPI    C3  675   5.467  16.963  11.039  0.1283 -0.1249  0.2677
   43loPI   PO4  676   5.072  17.450  10.720 -0.1764 -0.1853 -0.1439
   43loPI   GL1  677   4.796  17.376  10.455  0.1470  0.2365 -0.0377
   43loPI   GL2  678   4.678  17.096  10.540  0.3467  0.1699 -0.0803
   43loPI   C1A  679   5.020  17.224  10.078 -0.2454 -0.0905  0.2627
   43loPI   C2A  680   5.291  17.273   9.877 -0.0921 -0.1704 -0.0255
   43loPI   C3A  681   5.661  17.305   9.723 -0.0702 -0.2374 -0.2037
   43loPI   C4A  682   5.769  17.273   9.391 -0.0409  0.0654  0.1723
   43loPI   C5A  683   5.973  17.069   9.031 -0.0370  0.0239 -0.0753
   43loPI   C6A  684   6.161  17.160   8.562  0.0897 -0.3350  0.0071
   43loPI   C1B  685   4.546  16.869  10.252 -0.0092 -0.0006  0.0500
   43loPI   C2B  686   4.462  16.796   9.908 -0.0593 -0.1077  0.2274
   43loPI   C3B  687   4.487  16.837   9.488 -0.1739  0.1145  0.1286
   43loPI   C4B  688   4.617  17.123   9.161 -0.1165 -0.1531 -0.1799
   44loPI    C1  689  14.133  16.635  11.172 -0.0103  0.1244 -0.1245
   44loPI    C2  690  13.973  16.303  11.328  0.0263 -0.0159 -0.3805
   44loPI    C3  691  14.035  16.623  11.560 -0.1333 -0.1409 -0.1615
   44loPI   PO4  692  14.149  16.500  10.908  0.0323 -0.0465 -0.1408
   44loPI   GL1  693  13.905  16.258  10.508  0.1512 -0.2495 -0.3066
   44loPI   GL2  694  13.728  16.029  10.346 -0.0229 -0.0993  0.1953
   44loPI   C1A  695  13.940  16.521  10.175 -0.0347 -0.0159 -0.1398
   44loPI   C2A  696  14.006  16.591   9.758  0.1961  0.0450 -0.0688
   44loPI   C3A  697  13.958  16.581   9.392 -0.0910  0.2442  0.0345
   44loPI   C4A  698  13.945  16.642   8.967  0.0106  0.2005  0.1059
   44loPI   C5A  699  14.095  16.871   8.612 -0.2743  0.0307  0.0998
   44loPI   C6A  700  14.267  17.401   8.573 -0.1292  0.3551  0.1208
   44loPI   C1B  701  13.780  16.059   9.950  0.0411 -0.0061 -0.2171
   44loPI   C2B  702  13.791  16.076   9.527 -0.0630  0.0348 -0.1465
   44loPI   C3B  703  13.787  16.223   9.089 -0.0622  0.1170  0.0454
   44loPI   C4B  704  13.699  16.255   8.663 -0.1297 -0.0193  0.3239
   45loPI    C1  705  11.973  15.581  11.169  0.2737 -0.0741  0.0213
   45loPI    C2  706  12.032  15.191  11.237 -0.0374 -0.1493 -0.1196
   45loPI    C3  707  11.919  15.431  11.536  0.0021 -0.1968 -0.0661
   45loPI   PO4  708  11.934  15.542  10.873 -0.2898  0.2152 -0.2330
   45loPI   GL1  709  12.069  15.664  10.454 -0.1823 -0.0656 -0.0886
   45loPI   GL2  710  11.825  15.854  10.489  0.1536  0.0146 -0.1268
   45loPI   C1A  711  12.009  15.593   9.959  0.4115 -0.1125 -0.2302
   45loPI   C2A  712  11.727  15.573   9.547 -0.1692 -0.1376 -0.0262
   45loPI   C3A  713  11.545  15.477   9.151  0.2490  0.3259 -0.1072
   45loPI   C4A  714  11.557  15.571   8.766  0.2432 -0.3019 -0.0204
   45loPI   C5A  715  11.131  15.468   8.613 -0.1116 -0.0076 -0.0164
   45loPI   C6A  716  10.819  15.308   8.231 -0.0555  0.2314 -0.1595
   45loPI   C1B  717  11.898  16.147  10.097 -0.2719 -0.2626  0.1119
   45loPI   C2B  718  11.910  16.101   9.727 -0.0581  0.2469  0.1330
   45loPI   C3B  719  11.926  16.301   9.283 -0.4281  0.0976 -0.1680
   45loPI   C4B  720  12.079  16.510   8.861  0.0530  0.3438 -0.0079
   46loPI    C1  721   6.423   5.174  11.052 -0.2170  0.0467 -0.0544
   46loPI    C2  722   6.263   4.807  11.069  0.0679 -0.0644  0.3906
   46loPI    C3  723   6.092   5.110  11.267 -0.0910  0.0175  0.1330
   46loPI   PO4  724   6.491   5.159  10.762  0.0116 -0.0682 -0.3774
   46loPI   GL1  725   6.388   5.175  10.426 -0.2065  0.2516  0.0790
   46loPI   GL2  726   6.440   4.871  10.264  0.1588 -0.1224 -0.0394
   46loPI   C1A  727   6.578   5.188   9.921 -0.3170 -0.2410  0.2666
   46loPI   C2A  728   6.618   5.391   9.488 -0.0119 -0.1033 -0.2459
   46loPI   C3A  729   6.588   5.358   9.029 -0.0782 -0.1496 -0.0290
   46loPI   C4A  730   6.634   5.480   8.639 -0.2511  0.0431  0.1798
   46loPI   C5A  731   7.001   5.545   8.371  0.0699  0.0094  0.1664
   46loPI   C6A  732   7.133   5.434   8.084  0.1798  0.3186 -0.1243
   46loPI   C1B  733   6.502   4.625   9.800  0.0074 -0.1633 -0.0165
   46loPI   C2B  734   6.879   4.454   9.536 -0.0726  0.1058 -0.1971
   46loPI   C3B  735   7.059   4.354   9.123 -0.0876  0.1197  0.0925
   46loPI   C4B  736   7.462   4.416   8.839 -0.3447 -0.2724 -0.1006
   47loPI    C1  737   7.073   8.521  10.902  0.0259 -0.2655 -0.0314
   47loPI    C2  738   7.337   8.712  11.132 -0.0367  0.1119 -0.2646
   47loPI    C3  739   7.056   8.483  11.300  0.0740  0.1776  0.0178
   47loPI   PO4  740   7.305   8.465  10.600  0.0384 -0.0762 -0.2066
   47loPI   GL1  741   7.296   8.585  10.181  0.0896 -0.0381  0.3971
   47loPI   GL2  742   7.013   8.434  10.121 -0.1073  0.2062 -0.2027
   47loPI   C1A  743   7.468   8.491   9.798  0.1785  0.3901 -0.1943
   47loPI   C2A  744   7.486   8.614   9.361 -0.1497 -0.0412 -0.1897
   47loPI   C3A  745   7.496   8.944   8.971  0.1233  0.0975 -0.0274
   47loPI   C4A  746   7.458   9.244   8.618 -0.0064 -0.0855 -0.2081
   47loPI   C5A  747   7.514   9.612   8.430  0.0261 -0.0293 -0.0733
   47loPI   C6A  748   7.577  10.040   8.286  0.0686 -0.0877  0.1029
   47loPI   C1B  749   6.995   8.035   9.893 -0.1749 -0.1242  0.0464
   47loPI   C2B  750   6.753   8.098   9.472 -0.2074 -0.3534  0.1060
   47loPI   C3B  751   6.681   8.059   8.961  0.0390  0.0295  0.1205
   47loPI   C4B  752   6.675   7.877   8.623 -0.0608 -0.0077  0.1821
   48loPI    C1  753  11.298   8.680  11.267  0.0161 -0.1194 -0.2420
   48loPI    C2  754  11.163   8.332  11.124 -0.0872 -0.1237 -0.1364
   48loPI    C3  755  11.475   8.338  11.374 -0.2808 -0.1696  0.1097
   48loPI   PO4  756  11.324   8.826  10.988  0.1864  0.0965  0.1241
   48loPI   GL1  757  11.213   8.657  10.625  0.1349 -0.2034 -0.0951
   48loPI   GL2  758  11.389   8.757  10.411  0.1475 -0.5848 -0.2793
   48loPI   C1A  759  10.959   8.676  10.200 -0.0860 -0.0585  0.2241
   48loPI   C2A  760  10.977   8.486   9.742 -0.0491 -0.0023 -0.2685
   48loPI   C3A  761  10.902   8.629   9.333 -0.1986 -0.0526 -0.0974
   48loPI   C4A  762  10.969   8.905   8.965  0.1147  0.1802  0.2572
   48loPI   C5A  763  10.797   8.844   8.557 -0.0157  0.4597  0.0757
   48loPI   C6A  764  10.635   8.794   8.192  0.0121  0.0743 -0.0407
   48loPI   C1B  765  11.353   8.404  10.142  0.1234 -0.1897  0.0527
   48loPI   C2B  766  11.311   8.156   9.739  0.1207  0.1131  0.1927
   48loPI   C3B  767  11.216   8.190   9.322  0.2874 -0.2745 -0.2733
   48loPI   C4B  768  10.989   8.119   8.953 -0.1657  0.1509  0.1739
   49loPI    C1  769   2.280   9.568  10.598 -0.0532 -0.2361  0.0564
   49loPI    C2  770   1.948   9.701  10.777  0.0771 -0.1111  0.2083
   49loPI    C3  771   2.300   9.879  10.849  0.1512 -0.1346 -0.0821
   49loPI   PO4  772   2.143   9.364  10.460 -0.0314 -0.1554  0.1188
   49loPI   GL1  773   1.995   8.968  10.143 -0.0523 -0.2079 -0.1836
   49loPI   GL2  774   1.958   9.261   9.993  0.2332 -0.0475  0.0208
   49loPI   C1A  775   2.143   8.926   9.647  0.1155 -0.1471  0.2371
   49loPI   C2A  776   2.171   9.075   9.220  0.0034  0.1220  0.0189
   49loPI   C3A  777   2.180   8.880   8.820  0.2764  0.0905  0.0174
   49loPI   C4A  778   2.347   9.032   8.466 -0.0177 -0.0727  0.0004
   49loPI   C5A  779   2.656   8.854   8.125  0.1992  0.4147 -0.3252
   49loPI   C6A  780   3.049   8.966   8.255 -0.1523  0.0684 -0.1959
   49loPI   C1B  781   2.020   9.485   9.629 -0.0429  0.2209 -0.1129
   49loPI   C2B  782   2.169   9.633   9.174 -0.0850  0.0043  0.1958
   49loPI   C3B  783   2.132   9.446   8.744  0.1477  0.0688 -0.1909
   49loPI   C4B  784   2.033   9.593   8.322 -0.1921 -0.2736  0.0099
   50loPI    C1  785   1.087  13.044  10.928  0.0013 -0.2194 -0.0671
   50loPI    C2  786   1.055  13.230  11.281 -0.2367 -0.0943 -0.1522
   50loPI    C3  787   1.191  12.854  11.264 -0.1527 -0.0751  0.0640
   50loPI   PO4  788   0.799  12.968  10.809  0.0204 -0.2701 -0.2045
   50loPI   GL1  789   0.889  12.865  10.345  0.0999 -0.2297  0.1126
   50loPI   GL2  790   0.625  12.956  10.204 -0.0707 -0.0252  0.0595
   50loPI   C1A  791   1.132  13.135  10.044  0.0118  0.2402 -0.0581
   50loPI   C2A  792   1.217  13.209   9.624 -0.0524 -0.3253  0.0156
   50loPI   C3A  793   1.197  13.384   9.232 -0.0209  0.1327  0.4019
   50loPI   C4A  794   1.289  13.328   8.802  0.0930 -0.2192 -0.0705
   50loPI   C5A  795   1.223  13.608   8.461 -0.1626 -0.2119 -0.0903
   50loPI   C6A  796   1.067  14.057   8.303  0.1239  0.1221 -0.0428
   50loPI   C1B  797   0.693  13.117   9.756 -0.0397  0.0645  0.0006
   50loPI   C2B  798   0.730  13.206   9.287  0.1195  0.0098 -0.0569
   50loPI   C3B  799   0.807  13.276   8.876 -0.0815  0.0050  0.0344
   50loPI   C4B  800   0.814  13.267   8.501  0.0285  0.0965  0.3200
   51loPI    C1  801   6.066  11.991  11.104  0.1959  0.0576  0.2558
   51loPI    C2  802   5.869  12.260  11.325 -0.2218  0.0905 -0.1400
   51loPI    C3  803   5.770  11.873  11.346  0.1891 -0.0037  0.2179
   51loPI   PO4  804   6.086  12.070  10.905  0.1752  0.1712  0.0668
   51loPI   GL1  805   6.465  12.152  10.750 -0.4138 -0.0443 -0.1024
   51loPI   GL2  806   6.515  11.817  10.472  0.0776  0.1661 -0.0295
   51loPI   C1A  807   6.468  12.317  10.336  0.3085 -0.0447 -0.2965
   51loPI   C2A  808   6.541  12.353   9.882  0.0108  0.2865  0.2347
   51loPI   C3A  809   6.427  12.293   9.469  0.0846 -0.0850  0.1099
   51loPI   C4A  810   6.546  12.249   9.034  0.0084  0.1043  0.0275
   51loPI   C5A  811   6.648  12.409   8.729  0.0432 -0.3344 -0.2756
   51loPI   C6A  812   6.678  12.786   8.425  0.1737  0.1077  0.1201
   51loPI   C1B  813   6.273  11.882  10.158 -0.0674  0.3175  0.0511
   51loPI   C2B  814   6.286  11.911   9.727  0.1592  0.4126  0.0032
   51loPI   C3B  815   6.241  11.872   9.279 -0.0205  0.0389  0.0794
   51loPI   C4B  816   6.063  11.996   8.750 -0.1272 -0.1232 -0.2217
   52loPI    C1  817  15.636  17.668  11.152 -0.0520 -0.1770 -0.0155
   52loPI    C2  818  15.414  17.635  11.483 -0.1092 -0.1818 -0.0542
   52loPI    C3  819  15.764  17.829  11.495 -0.2134  0.0078 -0.0402
   52loPI   PO4  820  15.586  17.365  11.047  0.2212  0.0621 -0.0564
   52loPI   GL1  821  15.537  17.301  10.590  0.2461  0.0892  0.1298
   52loPI   GL2  822  15.720  17.025  10.455 -0.1826  0.0762 -0.0217
   52loPI   C1A  823  15.269  17.321  10.311 -0.3112  0.0192 -0.3414
   52loPI   C2A  824  15.141  17.382   9.875 -0.0897  0.2019  0.0412
   52loPI   C3A  825  15.007  17.456   9.486 -0.1341  0.2109 -0.1233
   52loPI   C4A  826  14.880  17.617   9.144 -0.0528 -0.1052  0.1378
   52loPI   C5A  827  14.842  17.780   8.758  0.1584  0.0970  0.3376
   52loPI   C6A  828  14.783  18.195   8.533  0.0757  0.2226  0.1274
   52loPI   C1B  829  15.521  17.066  10.035  0.0148  0.1465  0.2615
   52loPI   C2B  830  15.527  16.958   9.565  0.2344 -0.2729 -0.0027
   52loPI   C3B  831  15.408  17.154   9.219  0.1477  0.1164  0.5698
   52loPI   C4B  832  15.442  17.018   8.712  0.1721  0.0268 -0.0477
   53loPI    C1  833   9.816  10.869  10.730 -0.0457  0.0137 -0.1107
   53loPI    C2  834   9.559  10.596  10.868  0.1676 -0.1278  0.0113
   53loPI    C3  835   9.613  10.938  11.068  0.3362 -0.2514  0.1807
   53loPI   PO4  836   9.674  10.962  10.449  0.0185  0.0584  0.3782
   53loPI   GL1  837   9.651  11.175  10.150  0.1012  0.0277  0.1197
   53loPI   GL2  838   9.476  11.483  10.041 -0.0011  0.1983 -0.0715
   53loPI   C1A  839   9.484  10.879   9.834  0.1670  0.0490 -0.0843
   53loPI   C2A  840   9.571  10.882   9.367 -0.2007  0.1059 -0.0869
   53loPI   C3A  841   9.882  10.794   9.006  0.0730 -0.0808 -0.5815
   53loPI   C4A  842  10.092  10.804   8.578 -0.0575 -0.1598 -0.2058
   53loPI   C5A  843  10.410  10.944   8.331  0.0625 -0.2189  0.2960
   53loPI   C6A  844  10.780  11.131   8.264 -0.1113 -0.0856 -0.0363
   53loPI   C1B  845   9.471  11.392   9.598 -0.1549 -0.1856  0.0107
   53loPI   C2B  846   9.359  11.402   9.210 -0.2304  0.2337  0.3900
   53loPI   C3B  847   9.199  11.189   8.796  0.1050 -0.0319 -0.2695
   53loPI   C4B  848   9.009  11.111   8.463 -0.0503  0.1121 -0.2648
   54loPI    C1  849  11.017   0.359  10.933 -0.1111  0.0889  0.2333
   54loPI    C2  850  11.316   0.154  11.104 -0.1544 -0.1749  0.0010
   54loPI    C3  851  11.308   0.554  11.127  0.1149 -0.1768  0.1683
   54loPI   PO4  852  10.949   0.267  10.688 -0.2348 -0.0121 -0.1528
   54loPI   GL1  853  10.617   0.261  10.380  0.2096 -0.0303 -0.1567
   54loPI   GL2  854  10.491   0.151  10.145  0.0634  0.4690  0.1337
   54loPI   C1A  855  10.373   0.581   9.976 -0.2876  0.2492 -0.1376
   54loPI   C2A  856  10.430   0.690   9.503  0.2167  0.3215  0.0882
   54loPI   C3A  857  10.375   0.704   9.080 -0.1723 -0.1115 -0.1347
   54loPI   C4A  858  10.558   0.806   8.762  0.4228 -0.0789  0.0493
   54loPI   C5A  859  10.573   0.980   8.285  0.0503 -0.1071 -0.0482
   54loPI   C6A  860  10.652   1.367   8.003 -0.0354 -0.2457  0.0122
   54loPI   C1B  861  10.410   0.207   9.594 -0.1021 -0.1392 -0.3366
   54loPI   C2B  862  10.564   0.180   9.166  0.5965 -0.1044 -0.0348
   54loPI   C3B  863  10.521   0.270   8.715 -0.1036  0.0279  0.0081
   54loPI   C4B  864  10.515   0.468   8.321  0.1195  0.0317 -0.2797
   55loPI    C1  865  14.189   4.598  11.232  0.0741  0.0345  0.1025
   55loPI    C2  866  13.892   4.351  11.127 -0.0438  0.3162 -0.2473
   55loPI    C3  867  13.873   4.552  11.472 -0.0475  0.0036 -0.0617
   55loPI   PO4  868  14.282   4.721  11.028  0.1723 -0.0564 -0.0485
   55loPI   GL1  869  14.304   4.943  10.672  0.0696 -0.0362 -0.0827
   55loPI   GL2  870  14.057   5.158  10.444 -0.0448 -0.0600  0.2819
   55loPI   C1A  871  14.420   4.900  10.210  0.2091  0.1102 -0.0283
   55loPI   C2A  872  14.424   4.878   9.712 -0.1161 -0.1079 -0.0984
   55loPI   C3A  873  14.385   4.883   9.316  0.3660  0.1862  0.4673
   55loPI   C4A  874  14.554   4.661   9.069 -0.1349  0.1280 -0.4689
   55loPI   C5A  875  14.523   4.506   8.709  0.1853 -0.0453  0.0414
   55loPI   C6A  876  14.689   4.572   8.337 -0.0791 -0.1142  0.3074
   55loPI   C1B  877  13.929   4.849  10.130  0.0792  0.0949  0.1955
   55loPI   C2B  878  13.846   4.759   9.732  0.1134 -0.1006  0.0494
   55loPI   C3B  879  13.519   4.760   9.418  0.1354 -0.0194  0.0911
   55loPI   C4B  880  13.601   4.832   9.001 -0.0297 -0.2439  0.1116
   56loPI    C1  881  14.440   7.831  10.799  0.0779 -0.0711  0.1130
   56loPI    C2  882  14.486   8.164  11.015  0.2267 -0.1830  0.2563
   56loPI    C3  883  14.155   7.943  11.057 -0.1049  0.2048 -0.2001
   56loPI   PO4  884  14.401   7.910  10.542 -0.1945  0.3568  0.2048
   56loPI   GL1  885  14.359   8.167  10.245  0.0386 -0.2094  0.0213
   56loPI   GL2  886  14.087   7.943  10.195 -0.0903 -0.0605  0.1500
   56loPI   C1A  887  14.232   7.847   9.791  0.1898 -0.1473  0.2079
   56loPI   C2A  888  14.020   7.706   9.486  0.0990  0.0738 -0.0650
   56loPI   C3A  889  13.763   7.900   9.101  0.0650 -0.0049 -0.3883
   56loPI   C4A  890  13.517   8.022   8.828 -0.2630  0.0402 -0.1133
   56loPI   C5A  891  13.320   8.205   8.529  0.2670 -0.0527  0.0681
   56loPI   C6A  892  13.076   8.471   8.355 -0.0875  0.0715  0.1678
   56loPI   C1B  893  13.750   8.066   9.887  0.3813 -0.1972 -0.1377
   56loPI   C2B  894  13.949   8.221   9.552  0.1957  0.1453 -0.0560
   56loPI   C3B  895  13.928   8.347   9.037 -0.2459  0.1899 -0.2188
   56loPI   C4B  896  13.842   8.288   8.574  0.0683 -0.1441  0.1326
   57loPI    C1  897  13.500   2.874  10.932  0.0287  0.1129 -0.0001
   57loPI    C2  898  13.609   3.048  11.275 -0.0281 -0.0113  0.0817
   57loPI    C3  899  13.782   2.706  11.160 -0.0047  0.0334 -0.0170
   57loPI   PO4  900  13.471   3.103  10.776 -0.0156  0.0888 -0.2864
   57loPI   GL1  901  13.359   3.001  10.423  0.0107 -0.2099  0.0071
   57loPI   GL2  902  13.293   3.301  10.197 -0.1087  0.2071  0.0471
   57loPI   C1A  903  13.371   2.918  10.012  0.3072 -0.0467  0.2362
   57loPI   C2A  904  13.277   2.689   9.659 -0.0991 -0.0057  0.3719
   57loPI   C3A  905  13.379   2.829   9.242 -0.0353  0.2220 -0.1212
   57loPI   C4A  906  13.218   2.911   8.810  0.0500  0.1149  0.1481
   57loPI   C5A  907  12.905   2.918   8.606  0.2777  0.0024  0.0830
   57loPI   C6A  908  12.877   3.061   8.127 -0.0321 -0.0620  0.1904
   57loPI   C1B  909  13.415   3.397   9.721 -0.0810 -0.1745  0.0784
   57loPI   C2B  910  13.256   3.407   9.378 -0.1794 -0.0123  0.0319
   57loPI   C3B  911  13.101   3.556   8.990  0.2380  0.0179  0.1225
   57loPI   C4B  912  12.950   3.591   8.469 -0.1375 -0.1971  0.2075
   58loPI    C1  913  10.259  11.915  10.983  0.0750  0.1789 -0.1067
   58loPI    C2  914   9.944  11.968  11.223  0.0773  0.3205 -0.1343
   58loPI    C3  915  10.224  12.252  11.195  0.0820  0.3003 -0.2964
   58loPI   PO4  916  10.110  11.917  10.692 -0.1256 -0.2803 -0.0506
   58loPI   GL1  917  10.320  11.860  10.226 -0.2657  0.5287  0.1108
   58loPI   GL2  918  10.320  12.275  10.225  0.1952 -0.0678  0.0088
   58loPI   C1A  919  10.391  11.801   9.705  0.0778  0.0814  0.1759
   58loPI   C2A  920  10.334  11.590   9.338  0.0195  0.0522  0.0751
   58loPI   C3A  921  10.339  11.657   8.902  0.1563  0.0665 -0.3012
   58loPI   C4A  922  10.379  11.888   8.404  0.0671 -0.0607  0.0447
   58loPI   C5A  923  10.679  11.932   8.148  0.2499  0.1134  0.2732
   58loPI   C6A  924  10.965  11.605   8.052  0.1103 -0.0141 -0.1606
   58loPI   C1B  925  10.139  12.230   9.811  0.0629 -0.4385  0.0754
   58loPI   C2B  926  10.113  12.091   9.317 -0.2359  0.1811  0.3112
   58loPI   C3B  927  10.170  12.189   8.824 -0.1469 -0.0877  0.2452
   58loPI   C4B  928   9.987  12.250   8.413  0.1265  0.2428  0.0207
   59loPI    C1  929  11.219   3.156  10.802 -0.2425 -0.1306 -0.0513
   59loPI    C2  930  10.844   3.227  10.923 -0.2940 -0.1865 -0.1754
   59loPI    C3  931  10.945   2.865  10.788 -0.2074 -0.1579 -0.1879
   59loPI   PO4  932  11.292   3.302  10.618 -0.0248 -0.0399  0.2604
   59loPI   GL1  933  11.072   3.380  10.157  0.2701 -0.0946 -0.1816
   59loPI   GL2  934  10.711   3.448  10.045  0.1040 -0.1759  0.1802
   59loPI   C1A  935  11.010   3.186   9.805 -0.0963 -0.0099 -0.0929
   59loPI   C2A  936  10.918   3.302   9.375 -0.2049 -0.1826  0.0115
   59loPI   C3A  937  10.943   3.194   8.987 -0.2512  0.1892 -0.0057
   59loPI   C4A  938  11.102   3.048   8.644  0.2266  0.0088 -0.0451
   59loPI   C5A  939  11.293   2.728   8.401  0.0072 -0.0370 -0.2241
   59loPI   C6A  940  11.413   2.259   8.444 -0.3339  0.2668 -0.0024
   59loPI   C1B  941  11.064   3.723   9.800 -0.0151 -0.0839  0.1548
   59loPI   C2B  942  11.109   3.818   9.381 -0.0726  0.0913 -0.0259
   59loPI   C3B  943  11.186   3.629   8.961  0.2287  0.2095  0.1723
   59loPI   C4B  944  11.169   3.592   8.506 -0.1711 -0.0556  0.0877
   60loPI    C1  945   1.534  15.715  10.494  0.0496 -0.0097  0.0478
   60loPI    C2  946   1.878  15.842  10.334  0.0197  0.2480  0.1842
   60loPI    C3  947   1.841  15.461  10.450  0.2288  0.1970  0.0887
   60loPI   PO4  948   1.358  15.782  10.358 -0.2133 -0.0478  0.4353
   60loPI   GL1  949   1.375  15.931  10.025 -0.0076 -0.0412  0.4275
   60loPI   GL2  950   1.205  16.075   9.981 -0.2116 -0.3103  0.0676
   60loPI   C1A  951   1.429  15.749   9.607  0.1349  0.0527 -0.0431
   60loPI   C2A  952   1.420  15.784   9.181  0.1984  0.2527 -0.1336
   60loPI   C3A  953   1.393  15.947   8.856  0.1744 -0.1500  0.1157
   60loPI   C4A  954   1.477  16.129   8.411  0.1789 -0.1761 -0.0473
   60loPI   C5A  955   1.433  16.610   8.214  0.0430 -0.4777  0.1755
   60loPI   C6A  956   1.092  16.854   8.334 -0.2865  0.1679 -0.2338
   60loPI   C1B  957   1.062  16.120   9.635 -0.0275  0.0014  0.2020
   60loPI   C2B  958   1.009  16.168   9.148  0.0559  0.1182  0.2877
   60loPI   C3B  959   1.097  16.361   8.738  0.0032  0.0901 -0.2245
   60loPI   C4B  960   1.022  16.375   8.375  0.0380  0.2265 -0.0353
   61loPI    C1  961   3.333   4.350  11.125 -0.1463  0.2226  0.0919
   61loPI    C2  962   3.171   3.989  11.065  0.3340  0.0291 -0.0889
   61loPI    C3  963   3.308   4.089  11.427  0.0026  0.1189  0.0156
   61loPI   PO4  964   3.230   4.478  10.884  0.4054 -0.0630 -0.3148
   61loPI   GL1  965   3.182   4.612  10.482 -0.1956  0.0106  0.1679
   61loPI   GL2  966   3.452   4.615  10.296  0.1597 -0.3515  0.2196
   61loPI   C1A  967   3.039   4.506  10.043 -0.4405  0.2298  0.0293
   61loPI   C2A  968   2.982   4.402   9.673  0.1182  0.2534 -0.1723
   61loPI   C3A  969   3.048   4.433   9.266  0.0486  0.0926  0.0377
   61loPI   C4A  970   2.980   4.474   8.887  0.2555  0.1209 -0.1440
   61loPI   C5A  971   2.828   4.332   8.414 -0.0069  0.0218  0.0600
   61loPI   C6A  972   2.592   4.434   8.138  0.1942 -0.1532 -0.3986
   61loPI   C1B  973   3.488   4.722   9.856  0.3436 -0.0041 -0.1023
   61loPI   C2B  974   3.453   4.793   9.474  0.1657  0.2654 -0.1778
   61loPI   C3B  975   3.620   4.822   9.187  0.1015 -0.0557 -0.1305
   61loPI   C4B  976   3.391   4.792   8.792  0.0740  0.0746  0.0974
   62loPI    C1  977  14.308   9.784  10.662  0.2112 -0.0041 -0.0085
   62loPI    C2  978  14.496   9.467  10.818  0.1958 -0.0493 -0.0814
   62loPI    C3  979  14.510   9.821  11.005 -0.0657 -0.1703  0.1761
   62loPI   PO4  980  14.400   9.739  10.403 -0.1595  0.0651 -0.0193
   62loPI   GL1  981  14.396   9.535  10.073  0.0032  0.1868  0.4001
   62loPI   GL2  982  14.224   9.898   9.969  0.3746 -0.0297  0.0681
   62loPI   C1A  983  14.421   9.542   9.626  0.4247  0.0756 -0.0900
   62loPI   C2A  984  14.329   9.642   9.207  0.3223 -0.2211 -0.2393
   62loPI   C3A  985  14.262   9.602   8.818 -0.2366 -0.0023  0.2448
   62loPI   C4A  986  14.001   9.615   8.455 -0.0489  0.1600  0.0586
   62loPI   C5A  987  13.834   9.703   8.011 -0.1587 -0.0466  0.0781
   62loPI   C6A  988  13.479   9.514   7.871 -0.0383 -0.3312  0.0675
   62loPI   C1B  989  14.203  10.108   9.579  0.0692  0.1194  0.0465
   62loPI   C2B  990  14.155  10.101   9.159 -0.0341 -0.1706  0.0748
   62loPI   C3B  991  14.019  10.012   8.840  0.0829  0.0529  0.1847
   62loPI   C4B  992  13.919  10.063   8.441 -0.0352 -0.3352 -0.3538
   63loPI    C1  993   6.558   7.571  11.072 -0.1504  0.0175  0.1177
   63loPI    C2  994   6.698   7.196  11.078  0.0812  0.1039  0.1990
   63loPI    C3  995   6.565   7.365  11.415 -0.0143  0.0983  0.1642
   63loPI   PO4  996   6.396   7.486  10.851 -0.0536 -0.1331 -0.1931
   63loPI   GL1  997   6.372   7.549  10.536  0.0134 -0.0089  0.1380
   63loPI   GL2  998   6.178   7.490  10.341 -0.1220 -0.0631 -0.0220
   63loPI   C1A  999   6.543   7.809  10.182  0.3203  0.0843  0.0620
   63loPI   C2A 1000   6.534   7.718   9.691 -0.1032  0.1542  0.0312
   63loPI   C3A 1001   6.488   7.644   9.291 -0.0207  0.1627  0.1438
   63loPI   C4A 1002   6.397   7.586   8.899 -0.0081  0.2598 -0.0945
   63loPI   C5A 1003   6.486   7.420   8.533 -0.1969 -0.0470  0.0509
   63loPI   C6A 1004   6.574   7.279   8.189  0.0518 -0.0941 -0.1884
   63loPI   C1B 1005   6.038   7.567   9.926  0.3563  0.1030 -0.1746
   63loPI   C2B 1006   6.029   7.512   9.430 -0.0594  0.0119 -0.0521
   63loPI   C3B 1007   5.892   7.763   9.166 -0.0991 -0.2129 -0.1514
   63loPI   C4B 1008   5.461   7.761   9.036  0.2166  0.0380 -0.2043
   64loPI    C1 1009   9.121   2.800  10.567 -0.0116  0.0571 -0.3179
   64loPI    C2 1010   8.883   2.538  10.754  0.1461  0.1915  0.0834
   64loPI    C3 1011   8.799   2.929  10.768  0.1277  0.1987 -0.1826
   64loPI   PO4 1012   9.057   2.707  10.305  0.0294 -0.2060 -0.0059
   64loPI   GL1 1013   9.286   2.710  10.028  0.2496 -0.2183 -0.0640
   64loPI   GL2 1014   9.460   2.474  10.022  0.2240  0.2725 -0.1748
   64loPI   C1A 1015   9.163   2.900   9.700  0.0445 -0.0939  0.0749
   64loPI   C2A 1016   9.166   3.037   9.347 -0.0962 -0.1320  0.0452
   64loPI   C3A 1017   9.451   3.114   8.940 -0.1091  0.0269 -0.2328
   64loPI   C4A 1018   9.669   2.971   8.593  0.1272  0.2235 -0.1162
   64loPI   C5A 1019   9.876   2.748   8.267  0.1953  0.0874 -0.1921
   64loPI   C6A 1020   9.954   2.436   8.008 -0.0050  0.2555  0.2996
   64loPI   C1B 1021   9.218   2.378   9.661  0.0092 -0.1667 -0.3999
   64loPI   C2B 1022   9.172   2.619   9.169  0.3356  0.0003 -0.1086
   64loPI   C3B 1023   9.166   2.742   8.737  0.2342  0.2838 -0.2051
   64loPI   C4B 1024   9.187   3.136   8.418  0.0254  0.1436 -0.2116
   65loPI    C1 1025   2.446  12.768  10.851 -0.2200 -0.2676 -0.2018
   65loPI    C2 1026   2.686  12.703  11.164 -0.1311  0.1745 -0.1723
   65loPI    C3 1027   2.331  12.521  11.144 -0.0551 -0.0079  0.0881
   65loPI   PO4 1028   2.679  12.891  10.691  0.1152  0.1826  0.1105
   65loPI   GL1 1029   2.731  12.807  10.335 -0.3292  0.0835  0.1856
   65loPI   GL2 1030   2.595  12.620  10.036 -0.1081  0.3382 -0.0274
   65loPI   C1A 1031   3.070  12.814  10.083  0.4828  0.0041 -0.1795
   65loPI   C2A 1032   3.077  12.804   9.700  0.0177  0.3652  0.0568
   65loPI   C3A 1033   2.987  12.757   9.293  0.1210  0.3539  0.2131
   65loPI   C4A 1034   2.951  12.859   8.888 -0.0733 -0.3008  0.0255
   65loPI   C5A 1035   3.096  13.001   8.488 -0.0814 -0.2797 -0.0754
   65loPI   C6A 1036   2.918  12.849   8.170  0.1404  0.5417 -0.0603
   65loPI   C1B 1037   2.578  12.580   9.609 -0.2210  0.0436  0.1083
   65loPI   C2B 1038   2.424  12.702   9.231 -0.0363 -0.1380 -0.2779
   65loPI   C3B 1039   2.533  12.696   8.743 -0.2939 -0.2813 -0.1723
   65loPI   C4B 1040   2.355  12.934   8.341 -0.2412  0.2198 -0.1008
   66loPI    C1 1041   0.077   6.706  10.579 -0.1032 -0.1668 -0.0292
   66loPI    C2 1042   0.131   7.094  10.659  0.0609 -0.1673 -0.1318
   66loPI    C3 1043  -0.238   6.951  10.599 -0.0074 -0.0446 -0.0099
   66loPI   PO4 1044   0.277   6.656  10.374 -0.1510 -0.1546 -0.0243
   66loPI   GL1 1045   0.449   6.848   9.985 -0.2144  0.0511 -0.2364
   66loPI   GL2 1046   0.527   6.513   9.949 -0.1482 -0.0991  0.0056
   66loPI   C1A 1047   0.157   7.090   9.695 -0.3565  0.1774  0.0252
   66loPI   C2A 1048   0.049   6.982   9.250 -0.0539 -0.1388  0.0648
   66loPI   C3A 1049  -0.071   6.857   8.815 -0.2665  0.3786  0.1995
   66loPI   C4A 1050  -0.135   6.769   8.372  0.0053  0.2093  0.2739
   66loPI   C5A 1051  -0.333   6.693   7.986 -0.1205 -0.2516 -0.1562
   66loPI   C6A 1052  -0.196   6.646   7.633  0.4168  0.2688  0.4758
   66loPI   C1B 1053   0.475   6.605   9.479 -0.0175  0.3221  0.1236
   66loPI   C2B 1054   0.387   6.579   9.107 -0.1025 -0.1449 -0.0823
   66loPI   C3B 1055   0.624   6.672   8.723  0.0382  0.0867 -0.1321
   66loPI   C4B 1056   0.943   6.542   8.624  0.1450  0.2140  0.3776
   67loPI    C1 1057  12.193  16.442  11.102 -0.0417  0.0574 -0.1124
   67loPI    C2 1058  12.204  16.842  11.110  0.0137  0.0540  0.0150
   67loPI    C3 1059  12.040  16.641  11.414  0.2475 -0.0291  0.0885
   67loPI   PO4 1060  12.315  16.419  10.842 -0.0647  0.0424  0.2995
   67loPI   GL1 1061  12.484  16.537  10.435  0.3119  0.2341 -0.2488
   67loPI   GL2 1062  12.191  16.427  10.360 -0.2302 -0.4352  0.3241
   67loPI   C1A 1063  12.303  16.867  10.192  0.4382 -0.0406  0.0219
   67loPI   C2A 1064  12.211  16.892   9.741  0.1264 -0.2777  0.2282
   67loPI   C3A 1065  12.128  16.930   9.333 -0.4441 -0.3488  0.1779
   67loPI   C4A 1066  12.171  17.019   8.878  0.1649 -0.0435  0.2247
   67loPI   C5A 1067  11.933  16.857   8.533  0.0546  0.1184  0.0191
   67loPI   C6A 1068  11.968  16.564   8.199 -0.4971 -0.0372 -0.1103
   67loPI   C1B 1069  12.276  16.422   9.949 -0.0421  0.1632 -0.0442
   67loPI   C2B 1070  12.393  16.297   9.512 -0.0326 -0.2908 -0.1244
   67loPI   C3B 1071  12.444  16.154   9.101 -0.0233 -0.1056  0.1209
   67loPI   C4B 1072  12.328  16.152   8.675 -0.2630  0.1498 -0.0905
   68loPI    C1 1073  10.282   8.214  11.035  0.1458 -0.0419 -0.0235
   68loPI    C2 1074  10.296   7.821  10.960 -0.0026 -0.0092 -0.2298
   68loPI    C3 1075  10.219   7.951  11.330  0.2730 -0.1735 -0.1124
   68loPI   PO4 1076  10.465   8.356  10.893 -0.0209  0.1240 -0.1646
   68loPI   GL1 1077  10.797   8.372  10.586 -0.4351  0.2477  0.2593
   68loPI   GL2 1078  10.944   8.134  10.367 -0.0525 -0.1236 -0.1137
   68loPI   C1A 1079  10.576   8.373  10.188  0.0035  0.0272  0.1734
   68loPI   C2A 1080  10.442   8.430   9.732 -0.1109 -0.1247 -0.3468
   68loPI   C3A 1081  10.529   8.354   9.374 -0.2398  0.1236  0.3852
   68loPI   C4A 1082  10.223   8.170   8.971 -0.1111  0.0845  0.0097
   68loPI   C5A 1083  10.108   8.122   8.540 -0.2432 -0.0215  0.0734
   68loPI   C6A 1084   9.925   8.229   8.195  0.2056 -0.3012 -0.0358
   68loPI   C1B 1085  10.940   8.054  10.015  0.0371 -0.0823 -0.0318
   68loPI   C2B 1086  10.758   7.998   9.571 -0.0664  0.3161 -0.2158
   68loPI   C3B 1087  10.614   7.849   9.234 -0.0108  0.0878 -0.3656
   68loPI   C4B 1088  10.499   7.784   8.793  0.1688  0.1084  0.1213
   69loPI    C1 1089   5.693   9.064  11.076 -0.1925  0.0323 -0.1723
   69loPI    C2 1090   6.069   8.984  11.187 -0.2523 -0.0378 -0.0175
   69loPI    C3 1091   5.896   9.327  11.297 -0.2435 -0.0183 -0.0645
   69loPI   PO4 1092   5.620   8.912  10.858  0.1136 -0.1698 -0.0866
   69loPI   GL1 1093   5.624   9.062  10.334 -0.2924 -0.0534 -0.1031
   69loPI   GL2 1094   5.790   8.909  10.380 -0.0815  0.2037  0.0845
   69loPI   C1A 1095   5.620   9.022   9.866 -0.0333 -0.1527  0.1570
   69loPI   C2A 1096   5.760   9.141   9.463  0.1831 -0.2468  0.1680
   69loPI   C3A 1097   5.967   9.207   9.066  0.2997  0.1375  0.0004
   69loPI   C4A 1098   6.173   9.149   8.651  0.0408 -0.2512 -0.1073
   69loPI   C5A 1099   6.388   8.827   8.347 -0.3811  0.0332 -0.2722
   69loPI   C6A 1100   6.557   8.622   8.003 -0.4291  0.3162 -0.2365
   69loPI   C1B 1101   5.737   8.567  10.091 -0.4590  0.0758 -0.2787
   69loPI   C2B 1102   5.824   8.502   9.619  0.1808 -0.2096  0.1171
   69loPI   C3B 1103   5.976   8.689   9.175  0.0192 -0.1396 -0.2192
   69loPI   C4B 1104   6.128   8.642   8.810  0.2556  0.2784  0.0155
   70loPI    C1 1105  13.728   7.640  11.206  0.3229  0.0749 -0.1206
   70loPI    C2 1106  13.630   7.966  11.416  0.0715 -0.2124  0.2195
   70loPI    C3 1107  13.982   7.787  11.478  0.2179  0.0004  0.0192
   70loPI   PO4 1108  13.708   7.635  10.971  0.2750  0.2271  0.3320
   70loPI   GL1 1109  13.995   7.601  10.610 -0.0458 -0.0279  0.0196
   70loPI   GL2 1110  14.205   7.401  10.579  0.0398 -0.0688 -0.0370
   70loPI   C1A 1111  13.679   7.627  10.208  0.2479  0.1702  0.0048
   70loPI   C2A 1112  13.574   7.670   9.721  0.1281 -0.1679  0.1922
   70loPI   C3A 1113  13.325   7.635   9.343 -0.3580  0.1881  0.3142
   70loPI   C4A 1114  13.111   7.954   9.127 -0.0364  0.0866  0.2098
   70loPI   C5A 1115  12.908   7.990   8.710  0.2299 -0.4398  0.0137
   70loPI   C6A 1116  12.703   8.111   8.352 -0.0980  0.0814  0.3302
   70loPI   C1B 1117  14.016   7.238  10.178  0.0136 -0.2424  0.2689
   70loPI   C2B 1118  13.903   7.253   9.761 -0.0343 -0.0523 -0.1508
   70loPI   C3B 1119  13.865   7.160   9.405  0.0295  0.3524 -0.1094
   70loPI   C4B 1120  13.853   7.377   9.072  0.4606 -0.4751 -0.0303
   71loPI    C1 1121   4.270   8.475  10.724  0.1983 -0.0953  0.0572
   71loPI    C2 1122   4.574   8.239  10.613  0.0083 -0.2259 -0.1972
   71loPI    C3 1123   4.273   8.090  10.830  0.1654 -0.0751  0.1320
   71loPI   PO4 1124   4.195   8.632  10.546 -0.4863 -0.0719  0.1251
   71loPI   GL1 1125   4.174   8.742  10.021 -0.0379 -0.3700  0.0771
   71loPI   GL2 1126   4.421   8.544  10.039 -0.1045  0.1376  0.0816
   71loPI   C1A 1127   4.331   8.751   9.596  0.1009 -0.3060  0.1820
   71loPI   C2A 1128   4.445   8.730   9.248 -0.0248  0.0561  0.0982
   71loPI   C3A 1129   4.632   8.431   9.036  0.0675  0.1921  0.2213
   71loPI   C4A 1130   4.865   8.465   8.577 -0.0160  0.0976  0.0284
   71loPI   C5A 1131   4.977   8.744   8.182  0.0173  0.3991 -0.1949
   71loPI   C6A 1132   5.077   9.159   8.173 -0.0368  0.0071  0.0898
   71loPI   C1B 1133   4.467   8.260   9.729  0.1323 -0.2100 -0.0150
   71loPI   C2B 1134   4.383   8.201   9.373 -0.4041 -0.0679 -0.2559
   71loPI   C3B 1135   4.197   8.175   9.016  0.1080 -0.0154 -0.1135
   71loPI   C4B 1136   4.251   8.150   8.577  0.1624 -0.0946  0.0365
   72loPI    C1 1137  12.748   2.153  11.017 -0.1319  0.1700 -0.2943
   72loPI    C2 1138  12.454   2.154  11.287  0.0894 -0.0395 -0.0473
   72loPI    C3 1139  12.804   2.330  11.371  0.1921 -0.1882 -0.1591
   72loPI   PO4 1140  12.558   2.051  10.808 -0.0618 -0.0685  0.3283
   72loPI   GL1 1141  12.452   2.263  10.487  0.0058  0.2531  0.1160
   72loPI   GL2 1142  12.105   2.068  10.569  0.1775 -0.0697  0.0365
   72loPI   C1A 1143  12.632   2.255  10.033 -0.0037  0.0253  0.0135
   72loPI   C2A 1144  12.903   2.356   9.651  0.3410 -0.2952 -0.1261
   72loPI   C3A 1145  12.982   2.474   9.178 -0.0786 -0.2029 -0.2275
   72loPI   C4A 1146  13.082   2.430   8.691  0.0063 -0.2551 -0.2255
   72loPI   C5A 1147  13.029   2.486   8.252 -0.0589 -0.0111  0.1748
   72loPI   C6A 1148  13.102   2.305   7.862 -0.1967 -0.1230  0.0694
   72loPI   C1B 1149  12.080   2.267  10.079 -0.0155 -0.0044  0.1365
   72loPI   C2B 1150  11.947   2.318   9.551  0.1287  0.0816  0.4513
   72loPI   C3B 1151  11.980   2.447   9.117  0.0282 -0.1996  0.2150
   72loPI   C4B 1152  12.027   2.539   8.625  0.0877 -0.2655 -0.0369
   73loPI    C1 1153  16.154   6.867  10.537  0.2127 -0.0354 -0.0421
   73loPI    C2 1154  16.331   7.066  10.835  0.0378  0.0056  0.0357
   73loPI    C3 1155  16.162   6.710  10.905  0.0221  0.0018 -0.0208
   73loPI   PO4 1156  16.347   6.903  10.294  0.4342  0.2638 -0.3303
   73loPI   GL1 1157  16.540   7.012   9.989  0.3841 -0.2049  0.1257
   73loPI   GL2 1158  16.277   7.308  10.029  0.2044  0.1785 -0.1993
   73loPI   C1A 1159  16.517   6.891   9.558 -0.0132  0.2477  0.1219
   73loPI   C2A 1160  16.379   6.923   9.089 -0.0153  0.0277  0.1558
   73loPI   C3A 1161  16.375   6.977   8.633 -0.0049  0.0069 -0.0132
   73loPI   C4A 1162  16.519   6.610   8.445  0.0588  0.2788 -0.1103
   73loPI   C5A 1163  16.938   6.568   8.282 -0.2644  0.3137 -0.1008
   73loPI   C6A 1164  17.356   6.556   8.413  0.0179  0.0787 -0.1894
   73loPI   C1B 1165  16.134   7.296   9.668  0.3888  0.2426 -0.2485
   73loPI   C2B 1166  16.149   7.353   9.177 -0.0094  0.1365 -0.0901
   73loPI   C3B 1167  15.972   7.350   8.691  0.2465 -0.3306 -0.1572
   73loPI   C4B 1168  15.901   7.069   8.393  0.0382  0.0487  0.0511
   74loPI    C1 1169  11.941   5.574  10.734 -0.1693 -0.1154  0.1415
   74loPI    C2 1170  11.854   5.212  10.879 -0.1039 -0.1133  0.1864
   74loPI    C3 1171  12.100   5.455  11.081  0.0435 -0.1376  0.0382
   74loPI   PO4 1172  11.719   5.656  10.755 -0.1278 -0.2579  0.0402
   74loPI   GL1 1173  11.503   5.800  10.468  0.1819 -0.0723 -0.0982
   74loPI   GL2 1174  11.478   5.964  10.226 -0.1561 -0.3118 -0.0528
   74loPI   C1A 1175  11.209   5.533  10.114 -0.0054 -0.1192 -0.0566
   74loPI   C2A 1176  11.044   5.270   9.789 -0.3021 -0.0590  0.3040
   74loPI   C3A 1177  11.262   5.166   9.333  0.0215 -0.2952 -0.0520
   74loPI   C4A 1178  11.281   5.035   8.927 -0.1432  0.0970  0.1017
   74loPI   C5A 1179  11.460   4.958   8.553 -0.2962 -0.0049 -0.1288
   74loPI   C6A 1180  11.302   4.634   8.446 -0.0767  0.2697 -0.0150
   74loPI   C1B 1181  11.457   6.043   9.869 -0.0817 -0.1737  0.2308
   74loPI   C2B 1182  11.398   6.217   9.512 -0.2688  0.1379 -0.1261
   74loPI   C3B 1183  11.423   6.128   9.049 -0.0478  0.0421 -0.0768
   74loPI   C4B 1184  11.147   5.982   8.708 -0.0158  0.1423 -0.1105
   75loPI    C1 1185  17.210  11.146  10.536  0.0732 -0.1708  0.0791
   75loPI    C2 1186  17.598  11.139  10.441  0.0596 -0.1256  0.0199
   75loPI    C3 1187  17.486  11.196  10.821  0.1134 -0.2843  0.0604
   75loPI   PO4 1188  17.112  11.327  10.405  0.0171 -0.0006 -0.0332
   75loPI   GL1 1189  17.264  11.686  10.280 -0.1899  0.2407  0.3166
   75loPI   GL2 1190  17.598  11.677  10.334 -0.0002 -0.1125  0.1345
   75loPI   C1A 1191  17.440  11.421   9.865 -0.0286  0.0339 -0.0613
   75loPI   C2A 1192  17.298  11.453   9.426 -0.0076  0.0011  0.1852
   75loPI   C3A 1193  17.373  11.591   9.058  0.3175  0.1249 -0.2177
   75loPI   C4A 1194  17.368  11.681   8.664  0.0986 -0.3168 -0.4087
   75loPI   C5A 1195  17.612  11.788   8.323  0.2860  0.1068 -0.1181
   75loPI   C6A 1196  17.782  12.206   8.403  0.2233  0.1567 -0.2238
   75loPI   C1B 1197  17.676  11.834   9.931  0.2641 -0.2122 -0.0601
   75loPI   C2B 1198  17.922  11.938   9.571  0.0110  0.1386 -0.2001
   75loPI   C3B 1199  17.848  12.049   9.243  0.3884 -0.0933  0.2124
   75loPI   C4B 1200  17.757  12.065   8.871 -0.1564  0.3678 -0.1122
   76loPI    C1 1201   2.123   1.471  11.121 -0.1566  0.1397  0.0796
   76loPI    C2 1202   2.413   1.432  11.394  0.0827  0.1856 -0.1631
   76loPI    C3 1203   2.051   1.565  11.503  0.0818 -0.0851  0.1831
   76loPI   PO4 1204   2.169   1.485  10.964  0.1569  0.1757  0.0490
   76loPI   GL1 1205   2.059   1.440  10.507 -0.2713 -0.0246 -0.0987
   76loPI   GL2 1206   2.040   1.110  10.560  0.0032 -0.1351  0.2300
   76loPI   C1A 1207   2.281   1.256  10.154 -0.1564 -0.2425 -0.0623
   76loPI   C2A 1208   2.317   1.194   9.741 -0.1628 -0.0515  0.0422
   76loPI   C3A 1209   2.571   1.362   9.418 -0.0593 -0.1321  0.0400
   76loPI   C4A 1210   2.531   1.605   9.081  0.0147 -0.0023  0.0718
   76loPI   C5A 1211   2.525   1.537   8.660 -0.4368  0.0057  0.0339
   76loPI   C6A 1212   2.582   1.288   8.291 -0.1370 -0.0105  0.1717
   76loPI   C1B 1213   1.794   1.157  10.116  0.1973 -0.0554  0.0990
   76loPI   C2B 1214   1.774   1.165   9.614  0.0129  0.0198  0.1146
   76loPI   C3B 1215   2.045   0.959   9.273 -0.2290  0.0773 -0.0607
   76loPI   C4B 1216   1.930   0.813   8.793  0.1053 -0.2083  0.0464
   77loPI    C1 1217  13.484  12.005  11.093  0.0618 -0.0488  0.0912
   77loPI    C2 1218  13.390  12.335  11.299 -0.2802 -0.0862  0.0009
   77loPI    C3 1219  13.131  12.032  11.277 -0.0556 -0.2746 -0.0969
   77loPI   PO4 1220  13.608  12.094  10.906  0.2373 -0.2490  0.0151
   77loPI   GL1 1221  13.545  12.136  10.468  0.1058 -0.4022  0.0259
   77loPI   GL2 1222  13.250  12.326  10.403  0.2323  0.0588  0.1996
   77loPI   C1A 1223  13.373  11.984  10.065 -0.0666 -0.1436 -0.2162
   77loPI   C2A 1224  13.365  12.033   9.620  0.0746  0.0033  0.3172
   77loPI   C3A 1225  13.072  12.043   9.295  0.2090 -0.3283  0.2197
   77loPI   C4A 1226  12.971  11.915   8.863  0.0169 -0.1429 -0.1516
   77loPI   C5A 1227  12.898  11.809   8.414  0.0555 -0.1755 -0.1076
   77loPI   C6A 1228  12.863  12.132   8.156 -0.1557  0.1619 -0.0437
   77loPI   C1B 1229  12.916  12.218  10.024  0.1845 -0.0782 -0.0342
   77loPI   C2B 1230  12.752  12.210   9.600  0.1631 -0.2402  0.0456
   77loPI   C3B 1231  12.626  12.294   9.166 -0.5859 -0.0656 -0.0635
   77loPI   C4B 1232  12.926  12.423   8.831  0.1000 -0.1203  0.2957
   78loPI    C1 1233   8.642   4.793  10.504 -0.3787 -0.2375 -0.2005
   78loPI    C2 1234   8.876   4.756  10.182 -0.2329 -0.0685 -0.1161
   78loPI    C3 1235   8.827   5.114  10.353  0.0088 -0.2197  0.2850
   78loPI   PO4 1236   8.391   4.641  10.477  0.0072  0.1367 -0.0978
   78loPI   GL1 1237   8.149   4.511  10.153 -0.0667  0.1584 -0.1312
   78loPI   GL2 1238   8.112   4.243  10.058 -0.0715  0.2728 -0.1758
   78loPI   C1A 1239   8.489   4.593   9.812  0.1087  0.0440  0.0984
   78loPI   C2A 1240   8.664   4.503   9.409 -0.1022 -0.0691  0.0753
   78loPI   C3A 1241   8.808   4.317   9.127  0.1541  0.1348  0.1629
   78loPI   C4A 1242   8.880   4.182   8.737  0.0182 -0.0802  0.3611
   78loPI   C5A 1243   8.878   4.202   8.267 -0.2277  0.0182  0.0257
   78loPI   C6A 1244   8.996   4.238   7.893 -0.0272  0.0782  0.2140
   78loPI   C1B 1245   8.191   4.064   9.691  0.0991 -0.0837  0.1970
   78loPI   C2B 1246   8.331   4.153   9.385  0.1155  0.0221  0.2767
   78loPI   C3B 1247   8.372   4.185   8.884  0.0101 -0.1948 -0.0411
   78loPI   C4B 1248   8.204   4.092   8.511  0.1056  0.1443  0.0943
   79loPI    C1 1249   1.192  13.746  11.024  0.0685 -0.2219  0.1557
   79loPI    C2 1250   1.470  13.458  11.018  0.1598 -0.1381  0.3104
   79loPI    C3 1251   1.576  13.838  11.089  0.0510 -0.0520  0.0265
   79loPI   PO4 1252   1.054  13.733  10.754 -0.0894  0.1182  0.3908
   79loPI   GL1 1253   1.158  13.805  10.411  0.1624  0.0479  0.0182
   79loPI   GL2 1254   1.041  14.077  10.317 -0.1251  0.0938 -0.4479
   79loPI   C1A 1255   1.365  13.585   9.985 -0.1476  0.2199 -0.0580
   79loPI   C2A 1256   1.313  13.773   9.621  0.0800  0.0533 -0.2448
   79loPI   C3A 1257   1.353  13.883   9.175 -0.0417  0.3896 -0.1170
   79loPI   C4A 1258   1.442  13.920   8.749 -0.0172  0.0204 -0.0160
   79loPI   C5A 1259   1.545  13.995   8.401  0.0684 -0.0178  0.1064
   79loPI   C6A 1260   1.851  13.744   8.162 -0.1603  0.0726 -0.0529
   79loPI   C1B 1261   1.024  14.124   9.914  0.5137 -0.3624 -0.0915
   79loPI   C2B 1262   0.997  14.183   9.478  0.0878 -0.1458  0.2136
   79loPI   C3B 1263   1.022  14.228   9.078 -0.0204  0.1290 -0.1224
   79loPI   C4B 1264   1.045  14.418   8.673  0.2792 -0.0825  0.2685
   80loPI    C1 1265  12.216  12.623  10.984  0.0520  0.3868  0.1354
   80loPI    C2 1266  11.824  12.553  11.027  0.1093 -0.0591 -0.0115
   80loPI    C3 1267  12.073  12.491  11.334  0.0964 -0.0138  0.0082
   80loPI   PO4 1268  12.330  12.472  10.869  0.2248 -0.0704  0.0675
   80loPI   GL1 1269  12.197  12.245  10.547 -0.2397 -0.1603  0.0953
   80loPI   GL2 1270  11.865  12.255  10.595  0.3414  0.0360 -0.0546
   80loPI   C1A 1271  12.211  12.318  10.054  0.1814 -0.4759  0.1119
   80loPI   C2A 1272  12.150  12.359   9.638 -0.1449 -0.1020 -0.2283
   80loPI   C3A 1273  12.188  12.540   9.256  0.1808 -0.4274 -0.1476
   80loPI   C4A 1274  12.218  12.653   8.843  0.2477 -0.1366  0.1390
   80loPI   C5A 1275  12.565  12.773   8.535  0.1229  0.0088  0.5409
   80loPI   C6A 1276  12.779  12.882   8.290 -0.2885 -0.0451 -0.2392
   80loPI   C1B 1277  11.794  12.032  10.073 -0.0447 -0.3551 -0.3763
   80loPI   C2B 1278  11.767  12.017   9.692  0.1094  0.0851  0.2360
   80loPI   C3B 1279  11.697  12.125   9.259 -0.1053 -0.0393 -0.3254
   80loPI   C4B 1280  11.710  12.466   9.008 -0.1130 -0.1461 -0.0860
   81loPI    C1 1281  14.982   6.957  10.844  0.0015 -0.0075 -0.2306
   81loPI    C2 1282  15.026   7.192  11.164  0.1578 -0.0611 -0.2119
   81loPI    C3 1283  15.188   6.826  11.161  0.1108 -0.0813 -0.3312
   81loPI   PO4 1284  15.107   7.138  10.595  0.1701 -0.1454 -0.0373
   81loPI   GL1 1285  15.019   7.199  10.160 -0.2170  0.0497 -0.1036
   81loPI   GL2 1286  15.240   7.357  10.128 -0.0632  0.1083 -0.0855
   81loPI   C1A 1287  14.751   7.193   9.840  0.6249  0.2554 -0.1083
   81loPI   C2A 1288  14.707   7.134   9.473 -0.2107 -0.1124  0.1574
   81loPI   C3A 1289  14.681   6.942   9.000 -0.0524  0.0125 -0.1503
   81loPI   C4A 1290  14.585   6.796   8.582 -0.1599 -0.0021  0.1328
   81loPI   C5A 1291  14.637   6.811   8.146 -0.1012  0.2945  0.1565
   81loPI   C6A 1292  14.621   7.154   7.905  0.0406 -0.0471  0.0277
   81loPI   C1B 1293  15.133   7.416   9.675 -0.4035  0.2352  0.2706
   81loPI   C2B 1294  15.068   7.500   9.207 -0.1268 -0.2020 -0.1379
   81loPI   C3B 1295  14.770   7.548   8.981 -0.0622  0.4226 -0.2665
   81loPI   C4B 1296  14.602   7.718   8.537  0.1442  0.0464  0.0228
   82loPI    C1 1297   5.529  12.564  11.051  0.0043 -0.1124  0.1582
   82loPI    C2 1298   5.720  12.818  11.293  0.0722  0.0556 -0.0684
   82loPI    C3 1299   5.381  12.930  11.112  0.0709 -0.0360 -0.1232
   82loPI   PO4 1300   5.713  12.509  10.912 -0.2886  0.1990 -0.1668
   82loPI   GL1 1301   6.028  12.565  10.589  0.0222  0.1900 -0.0163
   82loPI   GL2 1302   6.207  12.756  10.588 -0.1341 -0.1106  0.2210
   82loPI   C1A 1303   6.195  12.712  10.104  0.5206 -0.1948  0.0992
   82loPI   C2A 1304   6.169  12.753   9.694 -0.0208 -0.0716  0.1469
   82loPI   C3A 1305   6.239  12.879   9.256  0.0449  0.1588  0.3216
   82loPI   C4A 1306   6.294  12.662   8.819  0.0865  0.1706 -0.0166
   82loPI   C5A 1307   6.226  12.381   8.487 -0.0194  0.2990  0.0317
   82loPI   C6A 1308   5.936  12.066   8.292 -0.0672  0.0738 -0.0138
   82loPI   C1B 1309   6.074  13.123  10.336  0.1078 -0.0552 -0.1207
   82loPI   C2B 1310   6.041  13.187  10.011 -0.1243  0.1665  0.0468
   82loPI   C3B 1311   5.916  13.231   9.585  0.0353 -0.1964  0.3452
   82loPI   C4B 1312   5.885  13.356   9.234  0.1793 -0.3539 -0.2372
   83loPI    C1 1313  16.674   7.931  10.370 -0.1554  0.0178 -0.0860
   83loPI    C2 1314  16.313   7.767  10.319 -0.1186 -0.1462  0.1600
   83loPI    C3 1315  16.402   7.951  10.663  0.0054 -0.0346  0.0694
   83loPI   PO4 1316  16.677   8.170  10.174  0.0629  0.1523 -0.1115
   83loPI   GL1 1317  16.364   8.018   9.883 -0.3200  0.0882  0.4530
   83loPI   GL2 1318  16.436   7.771   9.742  0.0063  0.0202  0.1682
   83loPI   C1A 1319  16.207   8.196   9.554 -0.0894  0.0425 -0.1048
   83loPI   C2A 1320  16.001   8.436   9.119 -0.0216 -0.0920  0.0466
   83loPI   C3A 1321  15.679   8.329   8.886  0.2067  0.3824 -0.0999
   83loPI   C4A 1322  15.459   8.225   8.450 -0.2566  0.0721  0.1649
   83loPI   C5A 1323  15.490   7.788   8.267  0.0830 -0.0063 -0.2152
   83loPI   C6A 1324  15.788   7.531   8.247  0.2112 -0.1310  0.3116
   83loPI   C1B 1325  16.392   7.766   9.351  0.3597  0.3721 -0.0066
   83loPI   C2B 1326  16.344   7.942   8.953 -0.0089 -0.2250 -0.0551
   83loPI   C3B 1327  16.295   8.324   8.699  0.1164 -0.2583  0.1473
   83loPI   C4B 1328  16.167   8.514   8.216 -0.2013 -0.2591  0.1209
   84loPI    C1 1329   1.179   2.185  11.349  0.1119  0.0123  0.0125
   84loPI    C2 1330   1.189   2.244  11.744  0.1575  0.1036 -0.0020
   84loPI    C3 1331   1.467   2.015  11.569 -0.1616 -0.3658  0.0875
   84loPI   PO4 1332   1.015   2.103  11.177  0.0039 -0.2030  0.1189
   84loPI   GL1 1333   1.060   2.026  10.704  0.0700 -0.2122 -0.1013
   84loPI   GL2 1334   1.037   2.323  10.592  0.2328  0.2061 -0.1721
   84loPI   C1A 1335   0.786   1.947  10.462  0.1825  0.1815  0.0348
   84loPI   C2A 1336   0.485   2.138  10.304  0.0700  0.0682 -0.2486
   84loPI   C3A 1337   0.497   2.372   9.978 -0.1715 -0.2003 -0.3026
   84loPI   C4A 1338   0.512   2.289   9.502 -0.1338  0.2355 -0.1055
   84loPI   C5A 1339   0.741   2.035   9.140 -0.1689 -0.0502  0.2887
   84loPI   C6A 1340   1.017   1.831   8.895 -0.1020  0.0927  0.0170
   84loPI   C1B 1341   1.007   2.360  10.159  0.1802 -0.0736  0.0064
   84loPI   C2B 1342   0.992   2.252   9.772 -0.1652  0.1175 -0.1568
   84loPI   C3B 1343   1.114   2.389   9.281  0.1763  0.2263 -0.3427
   84loPI   C4B 1344   0.959   2.330   8.819 -0.0788 -0.3138  0.0956
   85loPI    C1 1345  16.557  17.685  11.391  0.0251  0.0280  0.1615
   85loPI    C2 1346  16.566  18.083  11.428  0.1241  0.0174  0.2605
   85loPI    C3 1347  16.282  17.871  11.614 -0.3164  0.0918 -0.2995
   85loPI   PO4 1348  16.524  17.635  11.136 -0.1626 -0.0757  0.2378
   85loPI   GL1 1349  16.171  17.570  10.864  0.2329 -0.4675 -0.2685
   85loPI   GL2 1350  16.276  17.919  10.719  0.0697 -0.0118  0.0678
   85loPI   C1A 1351  16.118  17.310  10.600  0.1007 -0.0291  0.1205
   85loPI   C2A 1352  15.977  17.247  10.125 -0.3378  0.1631 -0.0461
   85loPI   C3A 1353  15.952  17.146   9.730 -0.0982 -0.0722  0.0663
   85loPI   C4A 1354  15.952  17.215   9.304  0.1360 -0.3123  0.0570
   85loPI   C5A 1355  15.821  17.316   8.824 -0.1274 -0.1051  0.0174
   85loPI   C6A 1356  15.623  17.419   8.457  0.2200  0.0679  0.1063
   85loPI   C1B 1357  16.252  17.746  10.293  0.2050  0.1463 -0.2560
   85loPI   C2B 1358  16.171  17.653   9.921  0.0535  0.1560  0.1030
   85loPI   C3B 1359  16.040  17.691   9.603  0.0828  0.3565  0.0823
   85loPI   C4B 1360  16.138  17.726   9.153 -0.1033  0.1328  0.1365
   86loPI    C1 1361  15.779   8.474  10.563  0.1014 -0.2092 -0.0193
   86loPI    C2 1362  15.697   8.302  10.915 -0.0358 -0.2075 -0.0498
   86loPI    C3 1363  15.600   8.685  10.852  0.2121 -0.1356 -0.0041
   86loPI   PO4 1364  15.634   8.352  10.377  0.0542  0.3569 -0.0549
   86loPI   GL1 1365  15.472   7.861  10.179 -0.0761  0.0623  0.0930
   86loPI   GL2 1366  15.458   7.767   9.853 -0.1561 -0.2029  0.2233
   86loPI   C1A 1367  15.184   8.116  10.013 -0.3743  0.0440 -0.0209
   86loPI   C2A 1368  15.058   8.170   9.662  0.1435 -0.0120 -0.1883
   86loPI   C3A 1369  14.956   8.022   9.276  0.1950 -0.1639  0.2379
   86loPI   C4A 1370  14.869   8.100   8.837  0.2449 -0.2037  0.1906
   86loPI   C5A 1371  14.795   8.186   8.479  0.1688  0.3911  0.2228
   86loPI   C6A 1372  15.039   8.055   8.152  0.0164 -0.0786  0.5480
   86loPI   C1B 1373  15.387   7.834   9.454 -0.1835  0.2329 -0.2036
   86loPI   C2B 1374  15.304   7.956   8.948 -0.2080 -0.1859 -0.2243
   86loPI   C3B 1375  15.073   7.746   8.601  0.2977  0.1831  0.0904
   86loPI   C4B 1376  14.970   7.571   8.200 -0.2805 -0.3971 -0.0914
   87loPI    C1 1377   7.234  17.776  10.850  0.1033 -0.0356 -0.1536
   87loPI    C2 1378   7.290  17.405  10.989 -0.2748 -0.0173  0.0640
   87loPI    C3 1379   7.486  17.713  11.154 -0.0165 -0.1083 -0.0683
   87loPI   PO4 1380   7.213  17.700  10.591  0.0421  0.3847 -0.1208
   87loPI   GL1 1381   7.436  17.734  10.191  0.1843  0.3271  0.1039
   87loPI   GL2 1382   7.705  17.728  10.210  0.0980 -0.3340 -0.0746
   87loPI   C1A 1383   7.232  17.878   9.870 -0.0704 -0.0069  0.1430
   87loPI   C2A 1384   7.205  18.202   9.553 -0.1137 -0.0318  0.0507
   87loPI   C3A 1385   6.939  18.297   9.267  0.0701 -0.1473  0.0985
   87loPI   C4A 1386   6.489  18.108   9.074  0.0536 -0.3652  0.1161
   87loPI   C5A 1387   6.071  18.070   8.913 -0.2445  0.1264  0.3920
   87loPI   C6A 1388   5.839  18.380   8.680  0.4017 -0.2632  0.2557
   87loPI   C1B 1389   7.731  17.779   9.793  0.0968 -0.0556  0.0244
   87loPI   C2B 1390   7.703  18.020   9.418 -0.0259 -0.2338  0.0668
   87loPI   C3B 1391   7.715  18.024   8.959 -0.1338 -0.3428  0.0628
   87loPI   C4B 1392   7.818  18.341   8.682 -0.0932  0.0342 -0.0815
   88loPI    C1 1393   2.734   9.256  10.632 -0.1604 -0.2145 -0.0262
   88loPI    C2 1394   2.415   9.146  10.846 -0.0984  0.0039  0.1830
   88loPI    C3 1395   2.781   9.117  11.004 -0.0526  0.1743  0.1108
   88loPI   PO4 1396   2.716   9.169  10.329 -0.0751  0.3405 -0.3650
   88loPI   GL1 1397   2.821   8.964   9.890 -0.0385 -0.0476 -0.0817
   88loPI   GL2 1398   2.515   8.881   9.994  0.1193 -0.2571 -0.1291
   88loPI   C1A 1399   3.068   8.868   9.534  0.0328 -0.2512  0.0512
   88loPI   C2A 1400   3.100   8.970   9.103  0.1489  0.0223 -0.1860
   88loPI   C3A 1401   3.106   8.745   8.720 -0.0246  0.4102 -0.4300
   88loPI   C4A 1402   3.055   8.412   8.571 -0.2040  0.1046  0.1313
   88loPI   C5A 1403   3.274   8.080   8.409 -0.0725  0.0192 -0.1703
   88loPI   C6A 1404   3.157   7.686   8.457  0.1090 -0.0831  0.1794
   88loPI   C1B 1405   2.553   8.767   9.520 -0.1583 -0.1126  0.3158
   88loPI   C2B 1406   2.570   8.770   9.124 -0.0193  0.0320 -0.2053
   88loPI   C3B 1407   2.723   8.412   8.975  0.1878  0.0546  0.0488
   88loPI   C4B 1408   2.667   8.004   8.673  0.2810 -0.0831  0.1858
   89loPI    C1 1409   6.721  12.975  11.203  0.1617 -0.0009 -0.0865
   89loPI    C2 1410   6.564  12.647  11.369 -0.1110  0.0640 -0.2102
   89loPI    C3 1411   6.849  12.852  11.562 -0.1014 -0.1156 -0.0299
   89loPI   PO4 1412   6.635  12.963  10.990 -0.2898 -0.0519  0.0672
   89loPI   GL1 1413   6.735  12.710  10.581 -0.3258 -0.0452  0.0697
   89loPI   GL2 1414   6.923  13.001  10.534 -0.1599 -0.4563 -0.2753
   89loPI   C1A 1415   6.772  12.708  10.156 -0.2244 -0.0328  0.0567
   89loPI   C2A 1416   6.691  12.776   9.690  0.0128  0.2365  0.2493
   89loPI   C3A 1417   6.689  12.682   9.218  0.0132  0.3796  0.0062
   89loPI   C4A 1418   6.884  12.808   8.921 -0.0685 -0.0344 -0.2071
   89loPI   C5A 1419   6.896  13.131   8.668  0.2319  0.1164  0.0484
   89loPI   C6A 1420   6.658  13.580   8.507 -0.0869 -0.2353  0.1794
   89loPI   C1B 1421   7.017  13.138  10.024  0.1324  0.0020 -0.2237
   89loPI   C2B 1422   6.913  13.231   9.652 -0.0354  0.4102 -0.0863
   89loPI   C3B 1423   6.828  13.177   9.211  0.2835  0.0535  0.0915
   89loPI   C4B 1424   7.303  13.083   8.961  0.1192  0.2772 -0.3080
   90loPI    C1 1425  17.644   6.431  10.666 -0.1698  0.2584 -0.0210
   90loPI    C2 1426  17.695   6.248  11.017 -0.0781  0.3499  0.0138
   90loPI    C3 1427  17.661   6.646  11.003 -0.1624  0.3399 -0.0731
   90loPI   PO4 1428  17.437   6.320  10.480 -0.1659 -0.0172 -0.1973
   90loPI   GL1 1429  17.561   6.398  10.062 -0.2928 -0.0657  0.0013
   90loPI   GL2 1430  17.810   6.516  10.130  0.3692  0.2302  0.0192
   90loPI   C1A 1431  17.459   6.362   9.634  0.0994 -0.0181 -0.1610
   90loPI   C2A 1432  17.329   6.262   9.402  0.0673  0.2989  0.3127
   90loPI   C3A 1433  17.434   5.918   8.997  0.0429  0.1236  0.3313
   90loPI   C4A 1434  17.436   6.024   8.564 -0.0824 -0.0884  0.1888
   90loPI   C5A 1435  17.602   5.798   8.178  0.1822 -0.2478  0.0624
   90loPI   C6A 1436  18.022   5.521   8.213 -0.1194  0.2447  0.0937
   90loPI   C1B 1437  17.913   6.650   9.667 -0.2429  0.0189 -0.4297
   90loPI   C2B 1438  17.883   6.423   9.276 -0.1152 -0.0286  0.0221
   90loPI   C3B 1439  17.593   6.450   8.941  0.0990 -0.1439  0.0448
   90loPI   C4B 1440  17.144   6.420   8.966  0.0307  0.0272  0.1016
   91loPI    C1 1441  12.619  13.510  11.100 -0.1567  0.0702  0.2744
   91loPI    C2 1442  12.801  13.180  11.234 -0.2024 -0.1370 -0.1568
   91loPI    C3 1443  12.822  13.520  11.444  0.2723 -0.2812  0.0416
   91loPI   PO4 1444  12.549  13.464  10.722  0.1918 -0.0728 -0.0368
   91loPI   GL1 1445  12.501  13.822  10.395 -0.0969 -0.2243 -0.2717
   91loPI   GL2 1446  12.830  13.630  10.286  0.1968 -0.2641 -0.0563
   91loPI   C1A 1447  12.468  13.731   9.935 -0.1296  0.1731  0.1060
   91loPI   C2A 1448  12.536  13.700   9.547 -0.1215 -0.0699  0.1035
   91loPI   C3A 1449  12.540  13.434   9.130  0.3736  0.0809 -0.4714
   91loPI   C4A 1450  12.741  13.342   8.689  0.0039  0.0048  0.1215
   91loPI   C5A 1451  13.087  13.362   8.248 -0.3592  0.2470  0.0786
   91loPI   C6A 1452  13.164  13.562   7.846 -0.0993  0.1159 -0.2839
   91loPI   C1B 1453  12.812  14.056  10.117 -0.1026 -0.0438  0.0878
   91loPI   C2B 1454  12.937  14.056   9.833 -0.0272 -0.2566  0.1372
   91loPI   C3B 1455  12.856  14.069   9.382  0.1528  0.0631 -0.1016
   91loPI   C4B 1456  12.665  13.962   9.053 -0.1781  0.1201  0.0485
   92loPI    C1 1457  11.784  17.743  10.686  0.0900  0.0082 -0.1436
   92loPI    C2 1458  12.114  17.825  10.896  0.0355 -0.0034 -0.0527
   92loPI    C3 1459  11.767  18.000  10.992  0.0184  0.0210 -0.1582
   92loPI   PO4 1460  11.762  17.759  10.465  0.3026 -0.1785  0.0714
   92loPI   GL1 1461  11.815  17.494  10.151 -0.2165 -0.0627 -0.3860
   92loPI   GL2 1462  12.106  17.302  10.091  0.3115 -0.0353  0.1062
   92loPI   C1A 1463  11.728  17.178   9.802  0.0907  0.1577  0.2165
   92loPI   C2A 1464  11.650  17.142   9.317 -0.0504  0.0206 -0.0741
   92loPI   C3A 1465  11.738  17.222   8.866 -0.1478 -0.0568 -0.0492
   92loPI   C4A 1466  11.961  17.366   8.538 -0.2672  0.1833  0.2013
   92loPI   C5A 1467  11.908  17.263   8.149  0.3307 -0.1345 -0.0262
   92loPI   C6A 1468  11.592  16.951   7.935  0.0002 -0.0503  0.1388
   92loPI   C1B 1469  12.128  17.403   9.651  0.0036  0.1567  0.3373
   92loPI   C2B 1470  12.113  17.461   9.242  0.1400 -0.1318 -0.1644
   92loPI   C3B 1471  12.385  17.546   8.885  0.1045  0.2880  0.3748
   92loPI   C4B 1472  12.678  17.664   8.572 -0.0587 -0.0435 -0.3009
   93loPI    C1 1473  13.328   7.049  10.910  0.0452  0.0503 -0.1632
   93loPI    C2 1474  13.479   7.199  11.249 -0.1315 -0.0593 -0.0341
   93loPI    C3 1475  13.230   7.419  11.027 -0.0923 -0.0230 -0.0421
   93loPI   PO4 1476  13.412   6.819  10.882  0.1934 -0.1468 -0.4118
   93loPI   GL1 1477  13.458   6.688  10.440  0.0962 -0.0682  0.0865
   93loPI   GL2 1478  13.566   7.089  10.445 -0.2177 -0.0625 -0.3069
   93loPI   C1A 1479  13.342   6.608   9.984  0.3190  0.1066  0.1826
   93loPI   C2A 1480  13.305   6.616   9.580 -0.0479 -0.0022 -0.0395
   93loPI   C3A 1481  13.074   6.671   9.248 -0.0216  0.2206 -0.0911
   93loPI   C4A 1482  12.965   6.819   8.814  0.0666 -0.0488 -0.1517
   93loPI   C5A 1483  12.978   7.019   8.456 -0.0264  0.2989  0.4188
   93loPI   C6A 1484  13.036   6.955   8.000 -0.1835 -0.1447 -0.0848
   93loPI   C1B 1485  13.439   7.130  10.038  0.0822 -0.3025 -0.1639
   93loPI   C2B 1486  13.390   7.191   9.618 -0.2138 -0.0990 -0.4568
   93loPI   C3B 1487  13.280   7.141   9.183  0.0206  0.0194  0.1661
   93loPI   C4B 1488  13.460   7.384   8.769  0.1277 -0.0228 -0.2218
   94loPI    C1 1489  17.365  13.370  10.933  0.0757 -0.2721 -0.1298
   94loPI    C2 1490  17.678  13.481  11.156  0.0876 -0.1234 -0.2188
   94loPI    C3 1491  17.427  13.199  11.289 -0.0064  0.0886  0.0628
   94loPI   PO4 1492  17.427  13.352  10.680  0.2501  0.0684 -0.1835
   94loPI   GL1 1493  17.369  13.522  10.328  0.0487 -0.1909 -0.0934
   94loPI   GL2 1494  17.099  13.320  10.276 -0.1267 -0.1257 -0.0364
   94loPI   C1A 1495  17.497  13.827  10.036  0.0458  0.1126 -0.1741
   94loPI   C2A 1496  17.536  13.856   9.482  0.0159 -0.1138 -0.0330
   94loPI   C3A 1497  17.557  13.875   9.012 -0.1792 -0.0505  0.3182
   94loPI   C4A 1498  17.496  14.010   8.674  0.2451  0.0456 -0.1183
   94loPI   C5A 1499  17.540  14.224   8.373  0.0362  0.2510 -0.2781
   94loPI   C6A 1500  17.666  14.350   7.911 -0.2131  0.1551 -0.0626
   94loPI   C1B 1501  17.329  13.402   9.817  0.0372  0.2302 -0.1389
   94loPI   C2B 1502  17.315  13.430   9.407  0.0555 -0.1260  0.3226
   94loPI   C3B 1503  17.329  13.431   8.989  0.2271 -0.1714  0.0729
   94loPI   C4B 1504  17.400  13.552   8.531 -0.2846 -0.1179  0.1490
   95loPI    C1 1505   6.741   4.431  10.933  0.0331  0.0351  0.1372
   95loPI    C2 1506   6.809   4.821  10.989 -0.1374  0.0892 -0.0227
   95loPI    C3 1507   6.732   4.585  11.302  0.2021  0.1360  0.1001
   95loPI   PO4 1508   6.854   4.501  10.602  0.0767 -0.2351  0.2964
   95loPI   GL1 1509   6.693   4.435  10.211  0.2395  0.1746  0.0581
   95loPI   GL2 1510   6.773   4.088  10.334  0.1377  0.0970  0.2430
   95loPI   C1A 1511   6.505   4.162   9.888 -0.1753 -0.2395 -0.0110
   95loPI   C2A 1512   6.357   4.205   9.490 -0.0318 -0.1002 -0.0160
   95loPI   C3A 1513   6.556   4.479   9.062  0.3270  0.0133 -0.1797
   95loPI   C4A 1514   6.769   4.617   8.697 -0.0898 -0.0668 -0.2027
   95loPI   C5A 1515   6.917   5.017   8.661 -0.1485 -0.1356  0.0816
   95loPI   C6A 1516   7.162   5.304   8.861  0.2451 -0.0397  0.0630
   95loPI   C1B 1517   6.942   4.060   9.824  0.0885  0.0132 -0.0558
   95loPI   C2B 1518   6.886   3.963   9.350  0.2622  0.1222  0.0782
   95loPI   C3B 1519   6.773   3.896   8.932 -0.0932 -0.3677  0.0852
   95loPI   C4B 1520   6.449   4.110   8.714  0.1419 -0.2527  0.3210
   96loPI    C1 1521   4.068  15.514  11.375 -0.0219 -0.1727 -0.2338
   96loPI    C2 1522   3.826  15.214  11.486 -0.0204 -0.0857  0.0120
   96loPI    C3 1523   4.209  15.216  11.601 -0.0168  0.0038 -0.0003
   96loPI   PO4 1524   3.970  15.562  11.125  0.0902  0.0302  0.0856
   96loPI   GL1 1525   4.077  15.470  10.765  0.1280 -0.3720  0.1486
   96loPI   GL2 1526   4.359  15.222  10.670  0.0965 -0.5052  0.1363
   96loPI   C1A 1527   4.228  15.562  10.321 -0.0029  0.1209  0.0097
   96loPI   C2A 1528   4.216  15.452   9.868 -0.1023  0.0939 -0.2750
   96loPI   C3A 1529   4.304  15.484   9.396 -0.1131 -0.2232 -0.2705
   96loPI   C4A 1530   4.220  15.646   8.935  0.4074  0.1784 -0.1355
   96loPI   C5A 1531   4.249  15.804   8.532 -0.1207  0.0949 -0.0799
   96loPI   C6A 1532   4.565  15.845   8.130 -0.0786  0.0653  0.1249
   96loPI   C1B 1533   4.390  15.028  10.254 -0.2327  0.0114  0.4567
   96loPI   C2B 1534   4.523  14.727   9.950  0.0850 -0.1191 -0.1273
   96loPI   C3B 1535   4.360  14.547   9.566 -0.0179 -0.0608  0.1818
   96loPI   C4B 1536   4.415  14.542   9.114  0.1746  0.1477  0.2187
   97loPI    C1 1537   3.704   2.497  10.862 -0.1407  0.0281 -0.0337
   97loPI    C2 1538   3.922   2.409  11.186 -0.1265 -0.0010 -0.0511
   97loPI    C3 1539   3.691   2.736  11.183  0.2384  0.2623 -0.1850
   97loPI   PO4 1540   3.704   2.219  10.617  0.0994 -0.4121  0.0432
   97loPI   GL1 1541   3.445   2.058  10.297 -0.0739  0.6649  0.1283
   97loPI   GL2 1542   3.468   1.720  10.176 -0.0470  0.2219  0.2827
   97loPI   C1A 1543   3.665   2.164   9.976  0.2256  0.1782  0.2726
   97loPI   C2A 1544   3.833   2.328   9.615  0.1041  0.3382 -0.3173
   97loPI   C3A 1545   3.906   2.403   9.172  0.0614 -0.1445 -0.0796
   97loPI   C4A 1546   3.863   2.188   8.837 -0.4182 -0.1158  0.1810
   97loPI   C5A 1547   4.009   1.769   8.550 -0.2160 -0.1576  0.0660
   97loPI   C6A 1548   4.334   1.644   8.225  0.1713 -0.4174  0.1010
   97loPI   C1B 1549   3.422   1.807   9.712  0.3388  0.0470 -0.3086
   97loPI   C2B 1550   3.389   1.646   9.338 -0.0669 -0.1579 -0.1892
   97loPI   C3B 1551   3.415   1.345   8.996  0.4490 -0.1743  0.3131
   97loPI   C4B 1552   3.609   1.187   8.587  0.0703  0.0010 -0.1360
   98loPI    C1 1553   5.631  16.537  11.335  0.1475 -0.0072 -0.0578
   98loPI    C2 1554   5.542  16.251  11.600 -0.0671 -0.0845 -0.2104
   98loPI    C3 1555   5.922  16.316  11.497 -0.0021 -0.2020 -0.0493
   98loPI   PO4 1556   5.472  16.470  11.140 -0.0262  0.1587  0.5281
   98loPI   GL1 1557   5.598  16.653  10.697  0.2640  0.4397 -0.0609
   98loPI   GL2 1558   5.847  16.591  10.537 -0.0149 -0.3001  0.0759
   98loPI   C1A 1559   5.350  16.319  10.294 -0.0141  0.3454 -0.2283
   98loPI   C2A 1560   5.450  16.256   9.831 -0.0203  0.0336 -0.1686
   98loPI   C3A 1561   5.509  15.972   9.513 -0.0965  0.1335 -0.2790
   98loPI   C4A 1562   5.456  15.665   9.221 -0.4378 -0.2647  0.0289
   98loPI   C5A 1563   5.117  15.532   9.013  0.1294 -0.2992  0.1630
   98loPI   C6A 1564   5.003  15.261   8.724 -0.4605 -0.1595 -0.1439
   98loPI   C1B 1565   5.868  16.316  10.223  0.2698  0.0104 -0.4139
   98loPI   C2B 1566   5.893  16.417   9.876  0.0685 -0.0914  0.2068
   98loPI   C3B 1567   5.816  16.442   9.504 -0.1544  0.1555 -0.1923
   98loPI   C4B 1568   5.610  16.730   9.387 -0.0048 -0.1415 -0.2381
   99loPI    C1 1569   1.509   3.211  11.024  0.0151  0.1145 -0.1004
   99loPI    C2 1570   1.584   2.926  11.294 -0.0176  0.0882 -0.1191
   99loPI    C3 1571   1.222   3.094  11.277  0.0418  0.2283 -0.0166
   99loPI   PO4 1572   1.473   3.127  10.746  0.2210 -0.3118  0.0035
   99loPI   GL1 1573   1.642   2.996  10.376 -0.0989 -0.0416  0.0954
   99loPI   GL2 1574   1.856   2.817  10.276 -0.5175  0.0792 -0.0834
   99loPI   C1A 1575   1.670   3.085   9.902 -0.0516  0.2272 -0.0898
   99loPI   C2A 1576   1.732   2.820   9.626 -0.0768  0.1291  0.1348
   99loPI   C3A 1577   1.561   2.487   9.362 -0.0074 -0.1298 -0.1329
   99loPI   C4A 1578   1.400   2.530   8.862  0.0493 -0.0496 -0.1417
   99loPI   C5A 1579   1.323   2.591   8.476 -0.0977  0.2922  0.0455
   99loPI   C6A 1580   0.912   2.548   8.392 -0.3132  0.1285 -0.0777
   99loPI   C1B 1581   2.122   2.646   9.997  0.4044  0.2616 -0.2978
   99loPI   C2B 1582   2.157   2.595   9.559  0.4758 -0.0325  0.2268
   99loPI   C3B 1583   1.995   2.492   9.108 -0.0823  0.0213  0.2626
   99loPI   C4B 1584   2.013   2.419   8.719  0.1085 -0.0085  0.1370
  100loPI    C1 1585   4.372  14.717  11.378 -0.3539 -0.0596 -0.0783
  100loPI    C2 1586   4.278  14.384  11.577 -0.2212  0.0102  0.1046
  100loPI    C3 1587   4.132  14.736  11.696 -0.1076  0.0579  0.1039
  100loPI   PO4 1588   4.575  14.567  11.192 -0.0767 -0.0090  0.0339
  100loPI   GL1 1589   4.880  14.553  10.798 -0.0957 -0.0674  0.3130
  100loPI   GL2 1590   4.593  14.302  10.756 -0.2726  0.0741  0.1853
  100loPI   C1A 1591   4.755  14.769  10.419 -0.0501 -0.1534 -0.0929
  100loPI   C2A 1592   5.049  14.908  10.193 -0.2302  0.1142  0.2893
  100loPI   C3A 1593   5.033  14.954   9.724 -0.1389  0.0994 -0.1463
  100loPI   C4A 1594   5.149  15.060   9.286 -0.2838 -0.2820 -0.1237
  100loPI   C5A 1595   5.307  14.936   8.949  0.0947 -0.0742 -0.1574
  100loPI   C6A 1596   5.435  14.824   8.557 -0.1483 -0.2622  0.0141
  100loPI   C1B 1597   4.647  14.260  10.346 -0.1525  0.0483  0.0004
  100loPI   C2B 1598   4.718  14.258   9.951  0.0162  0.0402  0.0301
  100loPI   C3B 1599   4.861  14.508   9.566 -0.0760 -0.0730 -0.1285
  100loPI   C4B 1600   5.006  14.591   9.180  0.1207 -0.2551  0.2277
  101loPI    C1 1601  15.626   3.570  10.811 -0.2922 -0.0312  0.1230
  101loPI    C2 1602  15.485   3.915  10.956  0.0147  0.1471  0.0066
  101loPI    C3 1603  15.510   3.860  10.561 -0.1201 -0.0470  0.0234
  101loPI   PO4 1604  15.542   3.392  10.850  0.2655  0.1187 -0.1402
  101loPI   GL1 1605  15.595   3.141  10.604 -0.2539 -0.0977  0.0749
  101loPI   GL2 1606  15.803   3.005  10.404  0.0911 -0.2501  0.2931
  101loPI   C1A 1607  15.447   3.245  10.152  0.4492 -0.3102  0.2439
  101loPI   C2A 1608  15.661   3.263   9.763 -0.2042  0.2189 -0.2007
  101loPI   C3A 1609  15.827   3.128   9.360  0.4985 -0.1657 -0.0535
  101loPI   C4A 1610  15.773   2.926   8.974  0.0355 -0.0298  0.1124
  101loPI   C5A 1611  15.632   3.115   8.559  0.1250  0.1366 -0.1860
  101loPI   C6A 1612  15.720   3.441   8.119 -0.1767  0.1786  0.4839
  101loPI   C1B 1613  15.822   2.757   9.993  0.1552  0.1684  0.1449
  101loPI   C2B 1614  15.721   2.496   9.619  0.1030  0.0266  0.0177
  101loPI   C3B 1615  15.810   2.486   9.187  0.1629 -0.1915 -0.1053
  101loPI   C4B 1616  15.586   2.479   8.801 -0.1284 -0.0617 -0.1362
  102loPI    C1 1617  14.181   5.996  11.316  0.1477 -0.3230 -0.0312
  102loPI    C2 1618  14.478   5.812  11.513 -0.0945 -0.6239  0.0618
  102loPI    C3 1619  14.126   5.873  11.693  0.0829  0.2577  0.1590
  102loPI   PO4 1620  14.248   5.741  10.982  0.0024  0.0974 -0.0950
  102loPI   GL1 1621  14.185   5.810  10.587 -0.1462 -0.4489 -0.1100
  102loPI   GL2 1622  14.580   5.889  10.678 -0.0385 -0.0273 -0.1813
  102loPI   C1A 1623  14.083   5.668  10.287  0.0628 -0.0984  0.2785
  102loPI   C2A 1624  13.975   5.390   9.967  0.5828  0.0004  0.0689
  102loPI   C3A 1625  14.065   5.213   9.602  0.0418  0.5663  0.0619
  102loPI   C4A 1626  13.970   5.084   9.182 -0.0196  0.0091  0.0885
  102loPI   C5A 1627  14.149   5.055   8.849 -0.0826  0.1921  0.0826
  102loPI   C6A 1628  14.004   5.386   8.457 -0.0304 -0.2814 -0.0697
  102loPI   C1B 1629  14.581   5.529  10.288 -0.2296  0.0770  0.0531
  102loPI   C2B 1630  14.534   5.504   9.852  0.1159 -0.0617 -0.2520
  102loPI   C3B 1631  14.402   5.466   9.339 -0.2317  0.0718 -0.3078
  102loPI   C4B 1632  14.424   5.487   8.906 -0.1063  0.2956  0.0534
  103loPI    C1 1633   0.311  15.337  10.998 -0.0696  0.3956 -0.1714
  103loPI    C2 1634   0.508  15.342  11.346 -0.0991 -0.0045 -0.1446
  103loPI    C3 1635   0.410  15.686  11.167  0.1828  0.2023  0.0891
  103loPI   PO4 1636   0.542  15.165  10.791  0.3591  0.0972  0.3014
  103loPI   GL1 1637   0.667  15.341  10.393  0.1172  0.2937 -0.2841
  103loPI   GL2 1638   0.799  15.192  10.282 -0.3365 -0.2444  0.2491
  103loPI   C1A 1639   0.439  15.468   9.959 -0.3932  0.0074 -0.1827
  103loPI   C2A 1640   0.482  15.499   9.504 -0.1140 -0.2215  0.3509
  103loPI   C3A 1641   0.542  15.592   9.071 -0.1094  0.0462 -0.2165
  103loPI   C4A 1642   0.502  15.682   8.645  0.0547 -0.1409 -0.0218
  103loPI   C5A 1643   0.227  15.732   8.263  0.5298 -0.0909 -0.2763
  103loPI   C6A 1644  -0.059  15.878   7.848  0.0504 -0.1639 -0.3238
  103loPI   C1B 1645   0.831  15.115   9.834  0.0962  0.2888 -0.2957
  103loPI   C2B 1646   0.808  15.070   9.415  0.0545  0.1370  0.0535
  103loPI   C3B 1647   0.848  15.152   8.964  0.1947  0.1012  0.1500
  103loPI   C4B 1648   0.874  15.273   8.540  0.1693 -0.1486 -0.0541
  104loPI    C1 1649   3.178   1.378  11.026 -0.2032 -0.4407  0.0126
  104loPI    C2 1650   2.935   1.368  11.344 -0.0151 -0.2762  0.1637
  104loPI    C3 1651   3.123   1.036  11.226 -0.2055 -0.3729  0.1288
  104loPI   PO4 1652   3.043   1.409  10.790  0.2455  0.0627  0.1467
  104loPI   GL1 1653   3.037   1.628  10.496  0.1682  0.0778 -0.0573
  104loPI   GL2 1654   3.172   1.310  10.347 -0.0413 -0.1510 -0.0502
  104loPI   C1A 1655   2.820   1.498  10.036 -0.0471 -0.1225  0.2223
  104loPI   C2A 1656   2.922   1.647   9.632 -0.0138 -0.0328 -0.2151
  104loPI   C3A 1657   2.873   1.914   9.271  0.0727  0.0192  0.0013
  104loPI   C4A 1658   3.032   1.725   8.893 -0.4385 -0.0998 -0.0109
  104loPI   C5A 1659   2.955   1.879   8.493  0.0878 -0.3071 -0.0679
  104loPI   C6A 1660   2.777   2.199   8.124  0.0429 -0.0253 -0.2423
  104loPI   C1B 1661   3.274   1.226  10.022  0.0372  0.2809 -0.1495
  104loPI   C2B 1662   3.231   1.345   9.720 -0.0738  0.2217  0.1092
  104loPI   C3B 1663   3.030   1.222   9.305  0.0860 -0.1152  0.0882
  104loPI   C4B 1664   2.934   1.173   8.749  0.0323  0.2053 -0.0723
  105loPI    C1 1665  13.332   8.848  10.931 -0.0459  0.3472  0.0071
  105loPI    C2 1666  13.025   9.028  11.114 -0.1838 -0.0429  0.1699
  105loPI    C3 1667  13.345   8.912  11.325 -0.1474 -0.0936  0.0876
  105loPI   PO4 1668  13.324   8.942  10.657  0.0613  0.2789 -0.1455
  105loPI   GL1 1669  13.326   8.795  10.304  0.1572 -0.3759  0.0073
  105loPI   GL2 1670  13.379   8.521  10.228 -0.1259  0.0576  0.3019
  105loPI   C1A 1671  13.191   8.869   9.923 -0.0804 -0.0255  0.1786
  105loPI   C2A 1672  13.123   9.014   9.503 -0.0436  0.2209 -0.0170
  105loPI   C3A 1673  13.049   8.980   9.064  0.1483 -0.1960 -0.0561
  105loPI   C4A 1674  12.957   8.918   8.596  0.0527 -0.3172 -0.0763
  105loPI   C5A 1675  12.785   8.831   8.193 -0.2549  0.2952  0.0874
  105loPI   C6A 1676  12.613   8.516   7.984  0.1459  0.1858 -0.0268
  105loPI   C1B 1677  13.650   8.570   9.833 -0.1259 -0.0564 -0.0997
  105loPI   C2B 1678  13.694   8.685   9.413 -0.0816 -0.1576 -0.0333
  105loPI   C3B 1679  13.594   8.966   9.087  0.0296  0.3129  0.0116
  105loPI   C4B 1680  13.505   8.910   8.574 -0.0188  0.2287  0.1220
  106loPI    C1 1681   1.912  11.561  10.862 -0.3708 -0.0645  0.1812
  106loPI    C2 1682   1.993  11.260  11.113  0.0499 -0.1482 -0.0447
  106loPI    C3 1683   2.231  11.581  11.103 -0.0929 -0.0448 -0.1793
  106loPI   PO4 1684   1.890  11.435  10.646  0.1615 -0.0310 -0.0773
  106loPI   GL1 1685   1.640  11.299  10.243  0.2112 -0.2044  0.0212
  106loPI   GL2 1686   2.062  11.360  10.225  0.3160  0.4585  0.1858
  106loPI   C1A 1687   1.516  11.130   9.856  0.3268 -0.2853  0.0861
  106loPI   C2A 1688   1.517  11.130   9.451  0.0666  0.0864  0.3166
  106loPI   C3A 1689   1.462  11.140   8.989  0.1580 -0.2998  0.1218
  106loPI   C4A 1690   1.456  11.307   8.585  0.2489 -0.1004 -0.1704
  106loPI   C5A 1691   1.345  11.486   8.240 -0.1592  0.1052 -0.2437
  106loPI   C6A 1692   1.162  11.496   7.803  0.0403 -0.2202 -0.1537
  106loPI   C1B 1693   2.276  11.542   9.999  0.4548 -0.2216  0.0346
  106loPI   C2B 1694   2.319  11.708   9.561 -0.1093 -0.2453 -0.0198
  106loPI   C3B 1695   2.313  11.578   9.138  0.0797  0.3949 -0.0771
  106loPI   C4B 1696   2.044  11.472   8.798 -0.3381  0.0031 -0.1106
  107loPI    C1 1697  15.524  10.366  10.333  0.2317  0.3294 -0.0961
  107loPI    C2 1698  15.820  10.099  10.304 -0.1223 -0.1349  0.3694
  107loPI    C3 1699  15.799  10.342  10.621 -0.0603  0.1322  0.1729
  107loPI   PO4 1700  15.520  10.454  10.008 -0.1672 -0.1014 -0.0889
  107loPI   GL1 1701  15.474  10.228   9.608 -0.0125  0.0460  0.0033
  107loPI   GL2 1702  15.684   9.986   9.518  0.0496 -0.1328 -0.0903
  107loPI   C1A 1703  15.561  10.316   9.202 -0.1897  0.3154  0.3583
  107loPI   C2A 1704  15.622  10.277   8.818 -0.0306 -0.1962 -0.0038
  107loPI   C3A 1705  15.506  10.505   8.456 -0.0363 -0.3023  0.0501
  107loPI   C4A 1706  15.687  10.575   8.082  0.1095  0.0021  0.0367
  107loPI   C5A 1707  15.637  10.904   7.753 -0.2187 -0.1198  0.0503
  107loPI   C6A 1708  15.540  11.401   7.656 -0.2621 -0.0303  0.0286
  107loPI   C1B 1709  15.742   9.833   9.056  0.1527  0.0222  0.0438
  107loPI   C2B 1710  15.820   9.668   8.697  0.1883 -0.0010 -0.0521
  107loPI   C3B 1711  15.671   9.627   8.172 -0.1332 -0.2154 -0.1568
  107loPI   C4B 1712  15.538   9.930   7.846  0.0927 -0.1446  0.0868
  108loPI    C1 1713  13.101  17.055  10.950  0.2461  0.0024  0.1717
  108loPI    C2 1714  12.749  17.182  11.093  0.0710 -0.0635 -0.1883
  108loPI    C3 1715  13.089  17.282  11.279 -0.1192  0.2221  0.0138
  108loPI   PO4 1716  13.081  17.054  10.752 -0.0396  0.0692  0.0157
  108loPI   GL1 1717  13.160  16.879  10.434 -0.0476 -0.0304 -0.0514
  108loPI   GL2 1718  12.980  16.693  10.321  0.1491  0.3380 -0.2791
  108loPI   C1A 1719  13.156  16.992   9.845 -0.0557 -0.2060 -0.5485
  108loPI   C2A 1720  13.061  16.941   9.428 -0.0129  0.1195  0.0060
  108loPI   C3A 1721  12.996  16.831   9.065  0.3725  0.1100  0.0240
  108loPI   C4A 1722  13.045  16.863   8.672  0.1738 -0.0440 -0.3068
  108loPI   C5A 1723  13.451  16.889   8.363 -0.0530  0.1215  0.2744
  108loPI   C6A 1724  13.861  17.203   8.276  0.0724 -0.0443  0.0381
  108loPI   C1B 1725  12.778  16.691   9.957  0.0213  0.2029 -0.2889
  108loPI   C2B 1726  12.690  16.672   9.508 -0.0586  0.2756 -0.1707
  108loPI   C3B 1727  12.514  16.679   9.052  0.0465  0.2959 -0.1709
  108loPI   C4B 1728  12.495  16.596   8.556 -0.1286 -0.0886  0.1072
  109loPI    C1 1729  16.813   4.725  10.904  0.0026 -0.2836 -0.0204
  109loPI    C2 1730  17.064   4.496  11.115  0.3460  0.0303 -0.0777
  109loPI    C3 1731  17.091   4.895  11.135 -0.0320  0.0683 -0.2297
  109loPI   PO4 1732  16.750   4.604  10.704  0.2478 -0.0796 -0.2074
  109loPI   GL1 1733  16.819   4.629  10.295 -0.2617  0.1570  0.5972
  109loPI   GL2 1734  16.782   4.354  10.259  0.2438 -0.2114 -0.0036
  109loPI   C1A 1735  16.893   4.642   9.790 -0.0875 -0.0212 -0.3129
  109loPI   C2A 1736  16.794   4.679   9.350 -0.1141  0.0191  0.1185
  109loPI   C3A 1737  16.535   4.581   9.032  0.2893 -0.2725  0.0561
  109loPI   C4A 1738  16.242   4.278   8.814 -0.0774 -0.1132 -0.4929
  109loPI   C5A 1739  15.833   4.018   8.685 -0.2664 -0.1288 -0.4250
  109loPI   C6A 1740  15.527   3.625   8.638 -0.0253  0.2867  0.2700
  109loPI   C1B 1741  16.772   4.164   9.824  0.0311 -0.0488 -0.2276
  109loPI   C2B 1742  16.774   4.177   9.320  0.1398 -0.2031  0.1161
  109loPI   C3B 1743  16.759   4.110   8.982  0.3736  0.0881 -0.0987
  109loPI   C4B 1744  16.661   4.345   8.534  0.0840 -0.0973  0.0277
  110loPI    C1 1745   8.920   9.998  11.015 -0.1350  0.0135 -0.1412
  110loPI    C2 1746   8.819  10.356  11.164  0.0603  0.0890 -0.1873
  110loPI    C3 1747   8.789  10.028  11.392  0.0695  0.1619 -0.0806
  110loPI   PO4 1748   9.150  10.014  10.903 -0.1510  0.3406 -0.2042
  110loPI   GL1 1749   9.273  10.106  10.499 -0.0148  0.0599 -0.2468
  110loPI   GL2 1750   9.460  10.417  10.451  0.0347  0.1046 -0.3651
  110loPI   C1A 1751   9.064  10.142  10.066 -0.0515 -0.2964  0.1929
  110loPI   C2A 1752   8.997  10.085   9.584  0.1882  0.1875 -0.1612
  110loPI   C3A 1753   9.159  10.069   9.205 -0.0478  0.2041 -0.2647
  110loPI   C4A 1754   9.343  10.153   8.808  0.1620 -0.0349 -0.1867
  110loPI   C5A 1755   9.279  10.337   8.404 -0.0753  0.6073  0.1444
  110loPI   C6A 1756   9.035  10.677   8.208  0.2188  0.1270 -0.4147
  110loPI   C1B 1757   9.464  10.397   9.900 -0.0517 -0.1653 -0.2341
  110loPI   C2B 1758   9.499  10.340   9.551 -0.0288  0.1588 -0.1936
  110loPI   C3B 1759   9.693  10.289   9.128  0.2253  0.0901 -0.1467
  110loPI   C4B 1760   9.727  10.389   8.638 -0.1454 -0.2111 -0.0980
  111loPI    C1 1761  11.365   5.885  11.064 -0.0829 -0.0325 -0.1272
  111loPI    C2 1762  11.111   5.816  11.365 -0.0204 -0.3542 -0.1450
  111loPI    C3 1763  11.501   5.865  11.440 -0.0538 -0.0809 -0.1401
  111loPI   PO4 1764  11.159   6.069  10.910 -0.1596 -0.0481 -0.2746
  111loPI   GL1 1765  11.096   6.118  10.573  0.0334  0.1792 -0.3609
  111loPI   GL2 1766  11.162   6.370  10.334 -0.1298 -0.0007  0.2592
  111loPI   C1A 1767  10.961   5.955  10.201 -0.0405  0.0959 -0.1042
  111loPI   C2A 1768  11.007   5.904   9.769 -0.1799 -0.2261  0.0216
  111loPI   C3A 1769  11.311   5.690   9.487  0.0783 -0.1565  0.1765
  111loPI   C4A 1770  11.309   5.580   9.032 -0.2196 -0.0470  0.1972
  111loPI   C5A 1771  11.152   5.468   8.655 -0.2428 -0.2660 -0.1567
  111loPI   C6A 1772  11.078   5.163   8.330  0.1054 -0.1317  0.0936
  111loPI   C1B 1773  10.935   6.409   9.855  0.0878 -0.1304  0.1961
  111loPI   C2B 1774  10.947   6.305   9.408  0.0484  0.0150 -0.2477
  111loPI   C3B 1775  10.911   6.348   9.013  0.3174  0.5084  0.4081
  111loPI   C4B 1776  10.649   6.413   8.676  0.0081  0.0298  0.0732
  112loPI    C1 1777  15.878   2.356  10.890  0.0165  0.0055 -0.0643
  112loPI    C2 1778  15.655   2.641  10.720 -0.1999 -0.1683 -0.0755
  112loPI    C3 1779  15.540   2.477  11.066  0.0701 -0.0457  0.0753
  112loPI   PO4 1780  15.977   2.228  10.728  0.2708 -0.0420  0.1554
  112loPI   GL1 1781  15.924   2.065  10.318  0.2608 -0.0865 -0.0139
  112loPI   GL2 1782  15.681   2.361  10.301  0.0065 -0.2149 -0.1783
  112loPI   C1A 1783  16.020   2.242   9.930 -0.1261  0.3966 -0.1706
  112loPI   C2A 1784  16.078   2.195   9.470 -0.1271 -0.1379 -0.1622
  112loPI   C3A 1785  16.054   2.031   9.094 -0.2790 -0.3125  0.2189
  112loPI   C4A 1786  16.407   2.012   8.946  0.2954  0.0834  0.0965
  112loPI   C5A 1787  16.834   2.012   8.748 -0.0076  0.2527  0.1061
  112loPI   C6A 1788  16.971   2.127   8.357  0.0611 -0.1481 -0.0321
  112loPI   C1B 1789  15.380   2.698  10.248  0.2489  0.3567  0.2064
  112loPI   C2B 1790  15.246   2.619   9.787  0.0851  0.0678 -0.0914
  112loPI   C3B 1791  15.057   2.359   9.490  0.3207  0.0641  0.0072
  112loPI   C4B 1792  15.155   2.256   9.024  0.0239  0.0727  0.0379
  113loPI    C1 1793   3.280  10.941  10.995 -0.0371  0.0324 -0.0900
  113loPI    C2 1794   3.225  10.580  11.159 -0.3111  0.1340  0.0490
  113loPI    C3 1795   3.209  10.908  11.388  0.0408  0.2306 -0.0583
  113loPI   PO4 1796   3.199  10.845  10.709  0.0879 -0.1847  0.2773
  113loPI   GL1 1797   3.093  10.956  10.316  0.1120 -0.0454 -0.1167
  113loPI   GL2 1798   3.303  11.200  10.156  0.0767 -0.0589  0.3105
  113loPI   C1A 1799   3.148  10.799   9.905 -0.3558 -0.1463  0.3718
  113loPI   C2A 1800   3.013  10.679   9.448  0.1007  0.2124  0.0105
  113loPI   C3A 1801   2.989  10.888   9.120 -0.0215 -0.0219 -0.0211
  113loPI   C4A 1802   2.939  10.982   8.634 -0.0898  0.3228  0.2037
  113loPI   C5A 1803   2.959  11.119   8.216  0.0157  0.0784 -0.2571
  113loPI   C6A 1804   3.078  11.480   7.989  0.0586 -0.1119 -0.1432
  113loPI   C1B 1805   3.136  11.367   9.797  0.2445  0.0158  0.1006
  113loPI   C2B 1806   3.102  11.379   9.376 -0.0357  0.0497 -0.1115
  113loPI   C3B 1807   3.050  11.448   8.961 -0.0440 -0.1722 -0.1364
  113loPI   C4B 1808   2.957  11.502   8.587 -0.1777 -0.1918  0.4254
  114loPI    C1 1809  11.360   1.232  10.761 -0.0637  0.0773 -0.1285
  114loPI    C2 1810  11.699   1.120  10.941  0.0073  0.0427 -0.2821
  114loPI    C3 1811  11.369   1.180  11.158  0.1301  0.1508 -0.1221
  114loPI   PO4 1812  11.461   1.143  10.475 -0.4938 -0.0238  0.0646
  114loPI   GL1 1813  11.604   0.978   9.998 -0.2709  0.3104  0.1660
  114loPI   GL2 1814  11.752   0.847   9.952  0.4208 -0.0007  0.0221
  114loPI   C1A 1815  11.459   0.762   9.561 -0.0733  0.0049 -0.1590
  114loPI   C2A 1816  11.503   0.729   9.115 -0.0408  0.0172 -0.3437
  114loPI   C3A 1817  11.376   0.735   8.787 -0.0384  0.0524  0.1685
  114loPI   C4A 1818  11.628   0.661   8.444  0.2158  0.1218 -0.3033
  114loPI   C5A 1819  11.798   0.596   8.021  0.1657 -0.1793 -0.1752
  114loPI   C6A 1820  11.719   0.565   7.572 -0.2001 -0.0583  0.0830
  114loPI   C1B 1821  11.917   0.956   9.554 -0.0581 -0.0895 -0.0043
  114loPI   C2B 1822  12.038   0.970   9.105 -0.1639  0.1475  0.1448
  114loPI   C3B 1823  12.047   0.971   8.669 -0.0560 -0.2272 -0.0418
  114loPI   C4B 1824  12.303   0.948   8.342 -0.1138 -0.2279  0.3189
  115loPI    C1 1825   4.702   2.928  11.019 -0.0350  0.0083 -0.2011
  115loPI    C2 1826   4.446   3.222  11.106  0.0462  0.0477 -0.0933
  115loPI    C3 1827   4.667   3.057  11.396  0.0190 -0.1029 -0.1574
  115loPI   PO4 1828   4.642   2.883  10.789 -0.1261  0.0809  0.0206
  115loPI   GL1 1829   4.622   2.901  10.329 -0.0752 -0.0604  0.0226
  115loPI   GL2 1830   4.469   2.553  10.332  0.0883  0.0045 -0.2220
  115loPI   C1A 1831   4.661   2.789   9.897 -0.0352  0.0819 -0.4907
  115loPI   C2A 1832   4.510   2.669   9.631  0.1593  0.4065  0.0755
  115loPI   C3A 1833   4.346   2.590   9.227 -0.0057 -0.1346 -0.1316
  115loPI   C4A 1834   4.226   2.519   8.773 -0.2171  0.0620 -0.0864
  115loPI   C5A 1835   4.060   2.359   8.393 -0.2043  0.3778  0.0264
  115loPI   C6A 1836   3.742   2.094   8.311 -0.1771  0.0856 -0.2338
  115loPI   C1B 1837   4.198   2.385   9.897  0.1035  0.0059  0.0874
  115loPI   C2B 1838   4.269   2.196   9.482 -0.1468 -0.0685  0.3399
  115loPI   C3B 1839   4.301   2.077   9.031 -0.1356 -0.1501 -0.2383
  115loPI   C4B 1840   4.520   1.898   8.681 -0.2404 -0.1181 -0.0316
  116loPI    C1 1841  13.438   6.319  10.955  0.0452 -0.1668  0.1114
  116loPI    C2 1842  13.449   6.262  11.351 -0.0477  0.1175  0.1572
  116loPI    C3 1843  13.790   6.299  11.144  0.0000  0.0269  0.2188
  116loPI   PO4 1844  13.279   6.247  10.850  0.0123  0.1222  0.1422
  116loPI   GL1 1845  13.293   6.114  10.482 -0.0768 -0.0889  0.4452
  116loPI   GL2 1846  13.026   6.372  10.465 -0.0136  0.1901 -0.2842
  116loPI   C1A 1847  13.309   6.067  10.055 -0.3087 -0.2279  0.1379
  116loPI   C2A 1848  13.225   6.107   9.638 -0.1924  0.3314 -0.3853
  116loPI   C3A 1849  13.141   6.168   9.297 -0.1118 -0.3367  0.1183
  116loPI   C4A 1850  13.122   6.351   8.827 -0.1652 -0.0951  0.0684
  116loPI   C5A 1851  13.433   6.219   8.662  0.2074 -0.1674 -0.1021
  116loPI   C6A 1852  13.666   6.198   8.237 -0.0519 -0.0675 -0.0052
  116loPI   C1B 1853  12.918   6.353  10.027  0.2527 -0.2768 -0.4165
  116loPI   C2B 1854  12.834   6.429   9.604  0.0129 -0.0843  0.1536
  116loPI   C3B 1855  12.639   6.445   9.146  0.0208  0.2322 -0.1314
  116loPI   C4B 1856  12.621   6.391   8.663  0.0949 -0.1189 -0.3177
  117loPI    C1 1857   6.755  14.698  11.221 -0.1184 -0.0275 -0.0142
  117loPI    C2 1858   6.361  14.771  11.219 -0.1723 -0.3093 -0.0409
  117loPI    C3 1859   6.499  14.419  11.350  0.0732 -0.2054 -0.0147
  117loPI   PO4 1860   6.790  14.948  11.058 -0.0626  0.0117 -0.1155
  117loPI   GL1 1861   6.512  15.107  10.730  0.3206 -0.0572 -0.1796
  117loPI   GL2 1862   6.798  15.312  10.610  0.0047  0.3746 -0.1947
  117loPI   C1A 1863   6.446  15.020  10.327 -0.2267  0.1346 -0.0202
  117loPI   C2A 1864   6.214  15.063   9.947  0.0819  0.1750 -0.0629
  117loPI   C3A 1865   5.907  14.979   9.561 -0.1842  0.1996  0.0092
  117loPI   C4A 1866   5.619  15.221   9.236  0.0891 -0.2817 -0.1616
  117loPI   C5A 1867   5.572  15.357   8.782  0.4389  0.4123  0.1601
  117loPI   C6A 1868   5.705  15.489   8.355  0.0697 -0.0100 -0.1482
  117loPI   C1B 1869   6.484  15.481  10.198  0.0452  0.2967 -0.3740
  117loPI   C2B 1870   6.401  15.546   9.816 -0.3690 -0.0423  0.0443
  117loPI   C3B 1871   6.479  15.625   9.291 -0.0670 -0.1437  0.0476
  117loPI   C4B 1872   6.422  15.858   8.890  0.1627 -0.0397 -0.0236
  118loPI    C1 1873   1.409  16.603  11.057  0.0077  0.1818  0.0620
  118loPI    C2 1874   1.621  16.564  10.720 -0.1356  0.0841 -0.0182
  118loPI    C3 1875   1.801  16.527  11.075 -0.0071  0.0648 -0.0848
  118loPI   PO4 1876   1.254  16.812  11.051 -0.1745  0.0429 -0.0192
  118loPI   GL1 1877   1.221  16.960  10.572  0.1270  0.1267  0.2510
  118loPI   GL2 1878   1.172  16.643  10.455 -0.1508  0.0785 -0.1422
  118loPI   C1A 1879   1.329  17.017  10.103 -0.1122  0.3752  0.2552
  118loPI   C2A 1880   1.343  17.241   9.810 -0.0081  0.0993 -0.0859
  118loPI   C3A 1881   1.243  17.169   9.361 -0.1459 -0.1831  0.1037
  118loPI   C4A 1882   1.134  17.243   8.936  0.1369  0.0697  0.0418
  118loPI   C5A 1883   0.904  17.216   8.620 -0.0602 -0.0484  0.0765
  118loPI   C6A 1884   0.616  17.156   8.297  0.1960  0.1331  0.3529
  118loPI   C1B 1885   1.182  16.582   9.991  0.1414  0.0094  0.0537
  118loPI   C2B 1886   1.195  16.680   9.614  0.1826  0.1393 -0.1897
  118loPI   C3B 1887   1.171  16.746   9.225  0.1506 -0.1045  0.3220
  118loPI   C4B 1888   1.235  16.823   8.784 -0.0245  0.2172  0.0400
  119loPI    C1 1889  13.595   0.902  10.985  0.1370  0.1044  0.0670
  119loPI    C2 1890  13.487   0.814  11.360  0.0303  0.1509  0.0476
  119loPI    C3 1891  13.345   1.144  11.184 -0.0528  0.0415 -0.0923
  119loPI   PO4 1892  13.604   0.646  10.892 -0.2169  0.0060 -0.2317
  119loPI   GL1 1893  13.310   0.437  10.592  0.0704  0.1377  0.1308
  119loPI   GL2 1894  13.630   0.331  10.482  0.0593 -0.2644 -0.3793
  119loPI   C1A 1895  13.271   0.635  10.243 -0.1282  0.0340 -0.2055
  119loPI   C2A 1896  13.282   0.427   9.812 -0.0482  0.0382  0.1165
  119loPI   C3A 1897  13.043   0.318   9.364 -0.0688  0.0133  0.0692
  119loPI   C4A 1898  12.953   0.452   8.936  0.1133 -0.1706 -0.0203
  119loPI   C5A 1899  12.590   0.538   8.591 -0.0186 -0.0280 -0.1141
  119loPI   C6A 1900  12.260   0.463   8.313 -0.2366 -0.1920 -0.2506
  119loPI   C1B 1901  13.828   0.518  10.175  0.0682  0.2537 -0.0024
  119loPI   C2B 1902  14.005   0.692   9.771 -0.3021 -0.1287 -0.0018
  119loPI   C3B 1903  13.923   1.116   9.515 -0.1126 -0.5238  0.2586
  119loPI   C4B 1904  14.054   1.413   9.172  0.1787 -0.3139 -0.0585
  120loPI    C1 1905   8.394  16.973  10.951  0.0521  0.1466 -0.0631
  120loPI    C2 1906   8.679  16.844  11.200 -0.0366  0.1607  0.0463
  120loPI    C3 1907   8.413  17.115  11.324 -0.1109  0.1318 -0.0487
  120loPI   PO4 1908   8.197  16.692  10.881 -0.2225 -0.1248  0.1194
  120loPI   GL1 1909   8.122  16.540  10.480 -0.0006 -0.0462  0.1458
  120loPI   GL2 1910   8.138  16.334  10.182  0.2437  0.0256 -0.0379
  120loPI   C1A 1911   8.040  16.807  10.084  0.1495 -0.0297 -0.0680
  120loPI   C2A 1912   7.909  16.817   9.626  0.1856 -0.4602 -0.0289
  120loPI   C3A 1913   7.879  16.952   9.178  0.2006  0.0624  0.2359
  120loPI   C4A 1914   7.857  17.028   8.747 -0.4013  0.0227  0.1109
  120loPI   C5A 1915   7.647  16.850   8.326 -0.3874 -0.0295 -0.0920
  120loPI   C6A 1916   7.418  16.543   8.221 -0.0827 -0.2549 -0.0446
  120loPI   C1B 1917   7.941  16.376   9.804  0.2901 -0.4241 -0.1917
  120loPI   C2B 1918   7.912  16.340   9.411 -0.1698  0.0165  0.0045
  120loPI   C3B 1919   8.006  16.503   8.961  0.3415  0.0584 -0.1008
  120loPI   C4B 1920   7.945  16.446   8.493  0.0559  0.1197 -0.0973
  121loPI    C1 1921  10.341   7.307  11.071 -0.2039 -0.1548 -0.0617
  121loPI    C2 1922  10.315   6.963  11.274 -0.0832  0.0233  0.2618
  121loPI    C3 1923  10.603   7.227  11.362 -0.1056  0.1602 -0.0601
  121loPI   PO4 1924  10.280   7.186  10.821 -0.1458 -0.1374 -0.1860
  121loPI   GL1 1925  10.589   7.071  10.495  0.0698  0.4098  0.0543
  121loPI   GL2 1926  10.902   6.783  10.451  0.0077 -0.1363 -0.0662
  121loPI   C1A 1927  10.611   7.294  10.030 -0.6144  0.0992 -0.1206
  121loPI   C2A 1928  10.541   7.415   9.661 -0.1352 -0.2355  0.2847
  121loPI   C3A 1929  10.525   7.395   9.230  0.0066  0.1802  0.0867
  121loPI   C4A 1930  10.536   7.194   8.816 -0.2535 -0.0615 -0.2620
  121loPI   C5A 1931  10.204   7.303   8.435  0.1650  0.1155  0.0639
  121loPI   C6A 1932   9.923   7.069   8.280 -0.1508 -0.1116  0.2813
  121loPI   C1B 1933  10.896   6.901  10.001  0.1107  0.2195  0.3203
  121loPI   C2B 1934  11.001   7.100   9.639 -0.3285 -0.1164 -0.1169
  121loPI   C3B 1935  10.905   7.013   9.235 -0.0461 -0.0721  0.3925
  121loPI   C4B 1936  10.756   6.810   9.012 -0.3033 -0.0183 -0.0550
  122loPI    C1 1937  17.597  14.803  11.207  0.3805 -0.0516  0.0373
  122loPI    C2 1938  17.351  14.488  11.223  0.2302  0.0572 -0.0970
  122loPI    C3 1939  17.373  14.741  11.533 -0.0370  0.2014 -0.1919
  122loPI   PO4 1940  17.571  14.903  11.020 -0.0869 -0.0173 -0.1226
  122loPI   GL1 1941  17.609  14.840  10.586  0.4758 -0.0827 -0.0973
  122loPI   GL2 1942  17.333  14.554  10.389 -0.0413 -0.0349  0.1383
  122loPI   C1A 1943  17.736  14.772  10.201 -0.0452 -0.0220 -0.2403
  122loPI   C2A 1944  17.767  14.856   9.700 -0.0807  0.1052  0.0596
  122loPI   C3A 1945  17.709  14.875   9.208  0.0630  0.1120  0.3012
  122loPI   C4A 1946  17.881  15.001   8.849 -0.4580 -0.1496  0.1071
  122loPI   C5A 1947  18.286  15.102   8.658  0.1879 -0.2506 -0.3260
  122loPI   C6A 1948  18.390  15.256   8.375 -0.1626 -0.1752  0.0462
  122loPI   C1B 1949  17.287  14.771   9.982 -0.2185  0.0499 -0.3156
  122loPI   C2B 1950  17.267  14.725   9.523 -0.1638 -0.1795  0.0652
  122loPI   C3B 1951  17.204  14.699   9.090 -0.1595 -0.0539  0.2077
  122loPI   C4B 1952  17.137  14.724   8.661 -0.1017  0.1745  0.0178
  123loPI    C1 1953   1.099   4.579  10.864 -0.0402 -0.2215 -0.0902
  123loPI    C2 1954   1.104   4.910  11.088 -0.2936 -0.0655 -0.3082
  123loPI    C3 1955   1.407   4.650  11.109 -0.3948 -0.1483  0.3471
  123loPI   PO4 1956   1.064   4.662  10.644  0.1405  0.0308  0.0926
  123loPI   GL1 1957   1.225   4.696  10.296 -0.3560  0.2426 -0.0967
  123loPI   GL2 1958   1.374   4.936  10.004 -0.2123 -0.1319  0.0984
  123loPI   C1A 1959   1.331   4.313  10.000  0.0201 -0.0589  0.1722
  123loPI   C2A 1960   1.709   4.529   9.839 -0.1063  0.1657  0.2352
  123loPI   C3A 1961   2.098   4.367   9.615 -0.0506  0.1203  0.0969
  123loPI   C4A 1962   2.225   4.352   9.214  0.0851 -0.1653  0.2836
  123loPI   C5A 1963   2.393   4.439   8.790  0.0311  0.1852  0.2023
  123loPI   C6A 1964   2.629   4.793   8.645 -0.1689 -0.2102  0.1961
  123loPI   C1B 1965   1.297   4.706   9.686  0.1200 -0.2374 -0.3689
  123loPI   C2B 1966   1.198   4.641   9.261  0.0460  0.0323  0.0037
  123loPI   C3B 1967   1.143   4.807   8.898 -0.3356  0.0716  0.1475
  123loPI   C4B 1968   1.386   4.583   8.586  0.2335 -0.1697  0.2595
  124loPI    C1 1969   7.324   3.245  10.526  0.2608  0.0223  0.0568
  124loPI    C2 1970   7.118   2.958  10.713 -0.1458  0.2217 -0.0720
  124loPI    C3 1971   7.251   3.274  10.919 -0.0212  0.1236 -0.0003
  124loPI   PO4 1972   7.510   3.099  10.388 -0.1755 -0.1874  0.6155
  124loPI   GL1 1973   7.647   3.067   9.973  0.3256 -0.0893 -0.1615
  124loPI   GL2 1974   7.722   2.807   9.841  0.0768  0.1787 -0.0781
  124loPI   C1A 1975   7.690   3.365   9.640  0.1047 -0.3130 -0.0710
  124loPI   C2A 1976   7.601   3.647   9.253 -0.0544 -0.2628 -0.1377
  124loPI   C3A 1977   7.433   3.953   9.095 -0.0914  0.2271 -0.0432
  124loPI   C4A 1978   7.200   3.997   8.797  0.0531  0.1726  0.3753
  124loPI   C5A 1979   6.892   4.176   8.498  0.0558 -0.1058 -0.2478
  124loPI   C6A 1980   6.557   4.363   8.224  0.0749 -0.0978 -0.2607
  124loPI   C1B 1981   7.684   2.912   9.460  0.1842 -0.1860 -0.2530
  124loPI   C2B 1982   7.805   3.166   9.038  0.2383 -0.1076  0.0369
  124loPI   C3B 1983   7.773   3.290   8.633 -0.1450  0.0354  0.1835
  124loPI   C4B 1984   7.709   3.239   8.181  0.2451 -0.1763  0.2302
  125loPI    C1 1985  15.509   6.286  10.982 -0.1003  0.1592  0.0647
  125loPI    C2 1986  15.137   6.366  11.104 -0.0735 -0.0186  0.2696
  125loPI    C3 1987  15.372   6.128  11.323  0.0838 -0.0913  0.0257
  125loPI   PO4 1988  15.456   6.196  10.723 -0.0389 -0.1118  0.2767
  125loPI   GL1 1989  15.648   6.025  10.317  0.0153  0.1434  0.0857
  125loPI   GL2 1990  15.419   5.722  10.429 -0.3049 -0.1737 -0.2091
  125loPI   C1A 1991  15.391   6.086   9.933 -0.3182 -0.2460  0.1403
  125loPI   C2A 1992  15.224   6.053   9.530 -0.1544 -0.2586 -0.1429
  125loPI   C3A 1993  15.266   6.023   9.112 -0.1198  0.1545 -0.3465
  125loPI   C4A 1994  15.202   6.051   8.711  0.0850  0.0075 -0.1785
  125loPI   C5A 1995  15.210   5.745   8.365 -0.2648 -0.4375 -0.2289
  125loPI   C6A 1996  15.305   5.367   8.166  0.1321  0.1700 -0.2861
  125loPI   C1B 1997  15.241   5.639  10.013 -0.0542 -0.1020 -0.1550
  125loPI   C2B 1998  15.030   5.625   9.641 -0.2828 -0.1035 -0.2233
  125loPI   C3B 1999  14.971   5.612   9.203 -0.0509  0.0743  0.2748
  125loPI   C4B 2000  14.855   5.674   8.725  0.0910  0.1126 -0.2837
  126loPI    C1 2001   2.876  14.434  11.205  0.2412 -0.1586  0.0816
  126loPI    C2 2002   3.050  14.735  11.402  0.1457 -0.0379 -0.0166
  126loPI    C3 2003   3.272  14.433  11.263  0.1967 -0.2008  0.4023
  126loPI   PO4 2004   2.677  14.493  10.953 -0.1948  0.1399  0.3006
  126loPI   GL1 2005   2.671  14.504  10.579 -0.0459 -0.0901  0.1907
  126loPI   GL2 2006   2.707  14.185  10.554 -0.4097  0.0052 -0.0052
  126loPI   C1A 2007   2.600  14.478  10.173 -0.2006 -0.0765  0.1057
  126loPI   C2A 2008   2.439  14.534   9.850 -0.2031 -0.0599  0.3493
  126loPI   C3A 2009   2.556  14.566   9.420  0.3359  0.0506  0.1424
  126loPI   C4A 2010   2.598  14.607   8.984  0.2269 -0.0222 -0.3531
  126loPI   C5A 2011   2.568  14.620   8.526 -0.2746 -0.1986  0.2544
  126loPI   C6A 2012   2.863  14.400   8.293  0.1799 -0.0191  0.1257
  126loPI   C1B 2013   2.995  14.166  10.212  0.0986 -0.2158 -0.3395
  126loPI   C2B 2014   2.967  14.244   9.791 -0.1924  0.1776  0.0591
  126loPI   C3B 2015   2.980  14.221   9.365  0.2169 -0.1754 -0.4053
  126loPI   C4B 2016   3.002  14.251   8.926 -0.0033 -0.2066  0.0315
  127loPI    C1 2017   4.378   0.167  11.063 -0.1617  0.2159 -0.0987
  127loPI    C2 2018   4.054   0.042  11.262  0.1737 -0.2129  0.1958
  127loPI    C3 2019   4.274   0.343  11.407 -0.0669  0.0576  0.0118
  127loPI   PO4 2020   4.326   0.071  10.865  0.1785 -0.2036 -0.0888
  127loPI   GL1 2021   4.631   0.129  10.526  0.0568  0.2302 -0.0630
  127loPI   GL2 2022   4.917  -0.071  10.466  0.2455 -0.2955  0.1277
  127loPI   C1A 2023   4.521  -0.026  10.199 -0.0381 -0.2443  0.0490
  127loPI   C2A 2024   4.603  -0.179   9.736 -0.0185 -0.1079  0.0241
  127loPI   C3A 2025   4.675  -0.361   9.289  0.2656 -0.0798 -0.1349
  127loPI   C4A 2026   4.856  -0.536   8.908 -0.1144 -0.0654  0.0246
  127loPI   C5A 2027   4.729  -0.275   8.581  0.2376 -0.4581 -0.0420
  127loPI   C6A 2028   4.709   0.238   8.450 -0.0065 -0.1954  0.1546
  127loPI   C1B 2029   5.028  -0.226  10.047 -0.1251 -0.1192 -0.1439
  127loPI   C2B 2030   5.130  -0.264   9.665  0.2101 -0.2974  0.1452
  127loPI   C3B 2031   5.182  -0.213   9.232  0.0890 -0.1291 -0.0497
  127loPI   C4B 2032   5.217  -0.152   8.820 -0.1246 -0.2501 -0.0511
  128loPI    C1 2033   4.913   4.366  10.772 -0.0059 -0.3055 -0.0793
  128loPI    C2 2034   4.610   4.357  10.511 -0.0333  0.0991 -0.0690
  128loPI    C3 2035   4.536   4.333  10.903 -0.0412  0.0803 -0.0715
  128loPI   PO4 2036   5.043   4.571  10.696 -0.2450  0.0490 -0.1752
  128loPI   GL1 2037   4.949   4.707  10.288 -0.2505 -0.0922  0.0026
  128loPI   GL2 2038   5.112   4.854  10.080 -0.3840 -0.0215 -0.0822
  128loPI   C1A 2039   4.694   4.485   9.988  0.1578  0.1885  0.3007
  128loPI   C2A 2040   4.464   4.258   9.685  0.0464  0.2707  0.0002
  128loPI   C3A 2041   4.385   4.235   9.284 -0.0221  0.0691  0.3719
  128loPI   C4A 2042   4.330   4.232   8.775 -0.0919  0.4201  0.0533
  128loPI   C5A 2043   4.440   4.126   8.329 -0.1293 -0.0638  0.1247
  128loPI   C6A 2044   4.656   4.108   8.004  0.1414  0.0818 -0.1314
  128loPI   C1B 2045   5.030   4.771   9.701  0.2912  0.1791  0.3935
  128loPI   C2B 2046   4.760   4.656   9.385  0.1745  0.0406  0.2951
  128loPI   C3B 2047   4.922   4.637   9.002  0.0957  0.2132  0.2393
  128loPI   C4B 2048   4.837   4.420   8.614 -0.0890  0.2649  0.0364
  129loPI    C1 2049  16.794  11.643  10.700  0.0650  0.1805 -0.1238
  129loPI    C2 2050  16.802  11.755  11.084 -0.0107 -0.0876 -0.0414
  129loPI    C3 2051  17.031  11.452  10.960  0.1060  0.0779 -0.2357
  129loPI   PO4 2052  16.835  11.797  10.575  0.0292  0.2292  0.2297
  129loPI   GL1 2053  16.831  11.789  10.120 -0.2218  0.2836 -0.1241
  129loPI   GL2 2054  16.538  11.599   9.998  0.0557 -0.0114  0.0712
  129loPI   C1A 2055  17.030  11.697   9.759  0.0456  0.1189  0.3422
  129loPI   C2A 2056  17.353  11.937   9.429 -0.0975  0.0605  0.0049
  129loPI   C3A 2057  17.172  12.086   9.054  0.1238  0.1546  0.0521
  129loPI   C4A 2058  17.131  12.232   8.710  0.2390 -0.2413 -0.1077
  129loPI   C5A 2059  17.209  12.238   8.233  0.1041 -0.1289  0.0625
  129loPI   C6A 2060  17.277  11.939   7.916  0.0088 -0.0432 -0.0249
  129loPI   C1B 2061  16.566  11.412   9.593 -0.0715  0.1634  0.0615
  129loPI   C2B 2062  16.579  11.378   9.235 -0.3320 -0.2272 -0.0088
  129loPI   C3B 2063  16.517  11.446   8.771  0.0874  0.0154 -0.1524
  129loPI   C4B 2064  16.408  11.846   8.544 -0.1295  0.3173 -0.1144
  130loPI    C1 2065  11.744   2.667  11.050  0.0434  0.1155 -0.3213
  130loPI    C2 2066  11.805   3.042  11.175 -0.0895  0.0838 -0.1587
  130loPI    C3 2067  11.433   2.897  11.149 -0.0168 -0.1879  0.2322
  130loPI   PO4 2068  11.950   2.628  10.843  0.0799 -0.1762 -0.0504
  130loPI   GL1 2069  12.176   2.694  10.462 -0.2858  0.2726 -0.1041
  130loPI   GL2 2070  11.943   2.758  10.343  0.1858  0.0407  0.4258
  130loPI   C1A 2071  12.400   2.735  10.107 -0.3956 -0.2590  0.0789
  130loPI   C2A 2072  12.396   2.658   9.676 -0.0415  0.1606 -0.0622
  130loPI   C3A 2073  12.456   2.518   9.297 -0.0181 -0.0264 -0.0612
  130loPI   C4A 2074  12.620   2.614   8.885  0.1832  0.0855 -0.0255
  130loPI   C5A 2075  12.486   2.324   8.503 -0.0718 -0.2216 -0.1024
  130loPI   C6A 2076  12.328   2.379   8.128  0.1091  0.3565  0.1067
  130loPI   C1B 2077  11.974   2.961   9.892  0.0752  0.1927 -0.2233
  130loPI   C2B 2078  11.929   2.861   9.490 -0.0960 -0.1136  0.1384
  130loPI   C3B 2079  11.579   2.764   9.216 -0.2131  0.0715  0.2395
  130loPI   C4B 2080  11.232   2.773   9.075 -0.3094  0.2187  0.2825
  131loPI    C1 2081  12.034  11.326  11.142 -0.0996  0.1069 -0.0442
  131loPI    C2 2082  11.867  11.682  11.216  0.2175  0.2331  0.0841
  131loPI    C3 2083  12.259  11.629  11.276  0.1634 -0.1553  0.1203
  131loPI   PO4 2084  11.865  11.188  10.926  0.0062  0.2226  0.2703
  131loPI   GL1 2085  11.756  11.286  10.529  0.0560 -0.1779  0.1005
  131loPI   GL2 2086  11.709  10.892  10.508 -0.1507 -0.0596 -0.1203
  131loPI   C1A 2087  11.908  11.116  10.078  0.2862  0.0703 -0.1309
  131loPI   C2A 2088  11.899  11.124   9.631  0.3364 -0.5169  0.2312
  131loPI   C3A 2089  11.671  11.209   9.225 -0.0107 -0.1245 -0.2302
  131loPI   C4A 2090  11.545  11.299   8.827  0.0819  0.2506 -0.2283
  131loPI   C5A 2091  11.798  11.530   8.538  0.0224  0.2361  0.0749
  131loPI   C6A 2092  11.944  11.925   8.503 -0.0812  0.0282 -0.0669
  131loPI   C1B 2093  11.998  10.662  10.263 -0.0882 -0.1571  0.2319
  131loPI   C2B 2094  12.175  10.726   9.803  0.0363 -0.2955 -0.0345
  131loPI   C3B 2095  12.160  10.843   9.332  0.2178 -0.0376 -0.2122
  131loPI   C4B 2096  11.970  10.944   8.915 -0.1623 -0.0298  0.0055
  132loPI    C1 2097  13.047   9.618  11.048 -0.1159  0.2199 -0.1967
  132loPI    C2 2098  13.336   9.364  10.940 -0.0894  0.3029 -0.3230
  132loPI    C3 2099  13.416   9.662  11.195 -0.1628  0.0795 -0.0335
  132loPI   PO4 2100  12.940   9.660  10.827 -0.0527  0.1153  0.3616
  132loPI   GL1 2101  13.086   9.574  10.366 -0.2412 -0.0117 -0.0134
  132loPI   GL2 2102  13.120   9.296  10.196 -0.1534  0.1346  0.0466
  132loPI   C1A 2103  13.333   9.751   9.980 -0.4009  0.3023 -0.3765
  132loPI   C2A 2104  13.399   9.824   9.537 -0.0866 -0.0202 -0.0768
  132loPI   C3A 2105  13.200   9.846   9.142 -0.4733  0.0007 -0.0010
  132loPI   C4A 2106  13.057   9.838   8.639 -0.0169  0.2196  0.1186
  132loPI   C5A 2107  12.772   9.951   8.453  0.2277  0.1035 -0.0869
  132loPI   C6A 2108  12.338  10.100   8.447  0.2959 -0.1436 -0.1475
  132loPI   C1B 2109  12.924   9.359   9.874 -0.3837 -0.0993 -0.1408
  132loPI   C2B 2110  12.957   9.527   9.564 -0.1523  0.1412  0.4664
  132loPI   C3B 2111  12.898   9.461   9.151  0.0687 -0.0715  0.3470
  132loPI   C4B 2112  12.789   9.343   8.825  0.0496 -0.1717  0.2410
  133loPI    C1 2113  16.824   2.848  10.913 -0.0494 -0.2751  0.0218
  133loPI    C2 2114  16.778   3.131  11.192  0.2239 -0.2731  0.0677
  133loPI    C3 2115  16.493   3.072  10.918  0.0666 -0.1036  0.1923
  133loPI   PO4 2116  17.012   2.879  10.803  0.2935  0.0304  0.1410
  133loPI   GL1 2117  17.089   3.010  10.419 -0.2615 -0.1374  0.3727
  133loPI   GL2 2118  16.702   2.992  10.435  0.0931 -0.0871 -0.0725
  133loPI   C1A 2119  17.352   2.969  10.170 -0.0159  0.1185  0.2127
  133loPI   C2A 2120  17.241   2.871   9.657  0.2596 -0.1200  0.0884
  133loPI   C3A 2121  17.127   2.814   9.185 -0.0036  0.3141  0.1121
  133loPI   C4A 2122  17.148   2.476   8.792 -0.1163 -0.1417 -0.0450
  133loPI   C5A 2123  17.467   2.403   8.463 -0.0980  0.1377 -0.1876
  133loPI   C6A 2124  17.415   2.329   8.079  0.1413  0.2733 -0.0248
  133loPI   C1B 2125  16.801   2.940   9.933 -0.0187  0.2717  0.0258
  133loPI   C2B 2126  16.768   3.072   9.459 -0.2118  0.1424 -0.0665
  133loPI   C3B 2127  16.831   3.193   9.096 -0.1544 -0.2993 -0.1508
  133loPI   C4B 2128  16.873   3.246   8.713  0.0998  0.0162 -0.1741
  134loPI    C1 2129   6.214   0.212  10.790 -0.0482 -0.0377 -0.0308
  134loPI    C2 2130   5.915   0.071  11.015  0.1362  0.0828  0.2987
  134loPI    C3 2131   6.179   0.327  11.172  0.1918  0.2781 -0.0993
  134loPI   PO4 2132   6.324   0.046  10.707 -0.1436  0.0060 -0.2113
  134loPI   GL1 2133   6.336  -0.314  10.471  0.2154  0.0959  0.2014
  134loPI   GL2 2134   6.479  -0.561  10.383  0.1716 -0.0596  0.3020
  134loPI   C1A 2135   6.311  -0.070  10.040 -0.2144  0.0173  0.0094
  134loPI   C2A 2136   5.970   0.179   9.808 -0.0390 -0.1886 -0.1048
  134loPI   C3A 2137   5.887   0.279   9.396 -0.1773  0.2729 -0.0926
  134loPI   C4A 2138   6.019   0.602   9.067  0.0776 -0.0569  0.0671
  134loPI   C5A 2139   6.219   0.812   8.811 -0.1582 -0.1262 -0.1092
  134loPI   C6A 2140   6.442   0.932   8.432  0.0090 -0.3130 -0.2569
  134loPI   C1B 2141   6.573  -0.842  10.152 -0.4610  0.3945 -0.2708
  134loPI   C2B 2142   6.573  -1.009   9.745  0.3073  0.3602 -0.0750
  134loPI   C3B 2143   6.638  -1.087   9.184  0.0429 -0.1389  0.1175
  134loPI   C4B 2144   6.585  -1.095   8.759  0.2430  0.1544 -0.1586
  135loPI    C1 2145   7.864   1.302  10.531  0.2431 -0.0447  0.1535
  135loPI    C2 2146   7.691   1.270  10.891 -0.3243  0.1808 -0.0869
  135loPI    C3 2147   7.886   1.605  10.792 -0.0712  0.0753  0.0463
  135loPI   PO4 2148   8.054   1.031  10.497 -0.0415 -0.1682 -0.0034
  135loPI   GL1 2149   8.348   0.887  10.168  0.0096 -0.1724  0.1695
  135loPI   GL2 2150   8.466   1.101  10.253 -0.1515 -0.0266 -0.0843
  135loPI   C1A 2151   8.560   0.623   9.943 -0.0930 -0.0204  0.3281
  135loPI   C2A 2152   8.617   0.612   9.579 -0.0676 -0.0753 -0.3126
  135loPI   C3A 2153   8.707   0.617   9.137 -0.2607 -0.2353 -0.1349
  135loPI   C4A 2154   8.608   0.392   8.725  0.2105 -0.0461 -0.3279
  135loPI   C5A 2155   8.463   0.276   8.381 -0.0269  0.2329 -0.1298
  135loPI   C6A 2156   8.129   0.265   8.263 -0.1017  0.3684 -0.0289
  135loPI   C1B 2157   8.526   1.206   9.762 -0.2858 -0.1299 -0.2564
  135loPI   C2B 2158   8.551   1.085   9.390  0.4408 -0.1666 -0.0594
  135loPI   C3B 2159   8.536   1.113   9.038 -0.0099  0.0282 -0.1336
  135loPI   C4B 2160   8.645   0.890   8.712  0.1637  0.1262 -0.0262
  136loPI    C1 2161   4.909   9.208  10.784  0.1338 -0.1814  0.1000
  136loPI    C2 2162   5.204   9.286  11.042  0.1247  0.1743  0.0077
  136loPI    C3 2163   4.828   9.251  11.173  0.1795 -0.0935  0.1001
  136loPI   PO4 2164   5.017   9.156  10.582  0.0464  0.2802  0.1100
  136loPI   GL1 2165   4.912   8.958  10.181  0.0452 -0.4079 -0.1952
  136loPI   GL2 2166   5.150   8.908  10.064 -0.0989 -0.1211 -0.0049
  136loPI   C1A 2167   4.636   8.984   9.871  0.1948 -0.1589 -0.1051
  136loPI   C2A 2168   4.742   9.079   9.434 -0.3534  0.1438 -0.0382
  136loPI   C3A 2169   5.028   9.288   9.081 -0.1011 -0.0374  0.0198
  136loPI   C4A 2170   5.107   9.298   8.735  0.0991  0.2110  0.2863
  136loPI   C5A 2171   5.279   8.851   8.541  0.3511  0.0858  0.1192
  136loPI   C6A 2172   5.488   8.562   8.293  0.2649  0.1408 -0.0585
  136loPI   C1B 2173   5.190   8.848   9.627  0.0174 -0.0035  0.0951
  136loPI   C2B 2174   5.283   9.112   9.417 -0.1608 -0.4518  0.1342
  136loPI   C3B 2175   5.498   9.039   8.982  0.0262  0.3406  0.0985
  136loPI   C4B 2176   5.731   8.970   8.501  0.0006  0.0243 -0.0939
  137loPI    C1 2177   9.298  11.917  10.444  0.1088  0.0079  0.1543
  137loPI    C2 2178   9.259  12.268  10.255  0.0312 -0.1514 -0.1322
  137loPI    C3 2179   9.349  12.259  10.645  0.1387  0.1840 -0.1461
  137loPI   PO4 2180   9.152  11.765  10.387  0.2765 -0.4027 -0.2646
  137loPI   GL1 2181   8.984  11.672   9.898 -0.2752 -0.1041  0.0836
  137loPI   GL2 2182   9.268  11.953   9.862 -0.0861  0.2495 -0.0499
  137loPI   C1A 2183   8.751  12.024   9.640  0.0731  0.0267  0.1240
  137loPI   C2A 2184   8.869  12.131   9.150  0.2479  0.0899  0.0347
  137loPI   C3A 2185   9.087  12.058   8.774  0.2058  0.1545  0.0619
  137loPI   C4A 2186   9.349  11.705   8.785  0.3759  0.0456 -0.0099
  137loPI   C5A 2187   9.703  11.363   8.821 -0.0183 -0.0945 -0.2112
  137loPI   C6A 2188   9.752  11.189   8.383 -0.1948 -0.0711 -0.1700
  137loPI   C1B 2189   9.203  11.841   9.468  0.0433  0.1905  0.3357
  137loPI   C2B 2190   9.427  12.012   9.113 -0.0639 -0.0352  0.1417
  137loPI   C3B 2191   9.556  12.236   8.699 -0.1075 -0.2307 -0.2079
  137loPI   C4B 2192   9.481  12.560   8.341  0.0221 -0.1352  0.0121
  138loPI    C1 2193  11.969   9.841  11.014  0.0317  0.0026  0.0338
  138loPI    C2 2194  12.056  10.048  11.345  0.1932  0.0454 -0.0344
  138loPI    C3 2195  11.772   9.766  11.354  0.0435  0.1981  0.0846
  138loPI   PO4 2196  12.011  10.051  10.788 -0.1827  0.1116 -0.1856
  138loPI   GL1 2197  12.122  10.252  10.430  0.0324  0.1793 -0.0918
  138loPI   GL2 2198  12.279   9.954  10.310 -0.0944 -0.0978  0.3651
  138loPI   C1A 2199  12.058  10.265   9.944 -0.0525  0.2784  0.1557
  138loPI   C2A 2200  12.315  10.380   9.512  0.0553 -0.0370 -0.2653
  138loPI   C3A 2201  12.406  10.401   9.091  0.1638  0.1091 -0.0799
  138loPI   C4A 2202  12.215  10.561   8.618 -0.0768  0.3329 -0.1767
  138loPI   C5A 2203  11.747  10.708   8.508 -0.2166 -0.1341 -0.1575
  138loPI   C6A 2204  11.299  10.585   8.755 -0.1965 -0.1089  0.2519
  138loPI   C1B 2205  12.067   9.628  10.114 -0.0950 -0.2908  0.2634
  138loPI   C2B 2206  11.969   9.520   9.780  0.0996  0.0125  0.1750
  138loPI   C3B 2207  11.853   9.543   9.353 -0.2126  0.0586 -0.1847
  138loPI   C4B 2208  11.592   9.587   8.978  0.1620 -0.0890 -0.4136
  139loPI    C1 2209   9.108  11.020  10.927 -0.1535 -0.2096  0.1831
  139loPI    C2 2210   9.175  10.687  11.139 -0.2697 -0.2259  0.1946
  139loPI    C3 2211   8.817  10.865  11.154 -0.2142 -0.1120  0.1723
  139loPI   PO4 2212   9.247  11.021  10.756  0.2835 -0.0398  0.0396
  139loPI   GL1 2213   9.184  10.894  10.377 -0.1747 -0.2874 -0.0127
  139loPI   GL2 2214   9.039  11.239  10.288 -0.1335  0.1948 -0.0612
  139loPI   C1A 2215   9.026  10.711   9.971 -0.3967  0.1846 -0.1064
  139loPI   C2A 2216   9.078  10.589   9.572  0.2584  0.1733 -0.1054
  139loPI   C3A 2217   9.199  10.541   9.220 -0.0496 -0.2895 -0.1158
  139loPI   C4A 2218   9.419  10.739   8.899 -0.2192 -0.0229 -0.1088
  139loPI   C5A 2219   9.503  10.838   8.514 -0.0661 -0.0258 -0.1079
  139loPI   C6A 2220   9.753  10.739   8.155  0.2066 -0.0072 -0.0212
  139loPI   C1B 2221   9.024  11.215   9.919  0.0360  0.3661 -0.0294
  139loPI   C2B 2222   9.086  11.164   9.531  0.2284 -0.1025 -0.0185
  139loPI   C3B 2223   8.963  10.966   9.137  0.3896 -0.0725 -0.2696
  139loPI   C4B 2224   8.930  10.744   8.784  0.0007  0.2658  0.0187
  140loPI    C1 2225   2.051  13.729  10.769  0.0563 -0.0084 -0.2548
  140loPI    C2 2226   2.320  13.765  11.062 -0.0771 -0.0089 -0.1311
  140loPI    C3 2227   1.991  13.545  11.119  0.0198 -0.2209 -0.3714
  140loPI   PO4 2228   1.915  13.940  10.678 -0.1399 -0.4062  0.2882
  140loPI   GL1 2229   2.168  14.024  10.350  0.2653  0.4606 -0.3490
  140loPI   GL2 2230   2.110  14.325  10.148  0.0747  0.0126 -0.0185
  140loPI   C1A 2231   2.526  14.029  10.034  0.1035  0.0554  0.1273
  140loPI   C2A 2232   2.533  14.089   9.553  0.0526  0.0683  0.1740
  140loPI   C3A 2233   2.512  14.115   9.136 -0.0310  0.2459 -0.1258
  140loPI   C4A 2234   2.481  14.171   8.729  0.2238 -0.0542  0.2405
  140loPI   C5A 2235   2.438  14.237   8.266 -0.1673  0.1821 -0.0112
  140loPI   C6A 2236   2.151  14.116   8.009  0.3553  0.3100 -0.2181
  140loPI   C1B 2237   2.064  14.050   9.786 -0.2547 -0.1241  0.1657
  140loPI   C2B 2238   2.000  14.038   9.399  0.2195 -0.5100 -0.0915
  140loPI   C3B 2239   1.996  14.006   8.983  0.1754  0.0396 -0.3606
  140loPI   C4B 2240   1.980  14.021   8.659 -0.2279 -0.0271  0.2433
  141loPI    C1 2241   0.143   0.134  11.454 -0.1025 -0.1675 -0.0254
  141loPI    C2 2242   0.318  -0.112  11.716  0.1975  0.0303 -0.0348
  141loPI    C3 2243   0.097   0.194  11.847  0.0383 -0.0895 -0.0201
  141loPI   PO4 2244   0.325   0.186  11.222  0.2388 -0.2689  0.2031
  141loPI   GL1 2245   0.297   0.086  10.845  0.2564  0.0963 -0.1935
  141loPI   GL2 2246   0.163   0.336  10.661 -0.1998 -0.2849  0.1272
  141loPI   C1A 2247   0.604  -0.058  10.437 -0.1468  0.0080 -0.2281
  141loPI   C2A 2248   0.512  -0.105   9.960 -0.1016  0.2411 -0.3799
  141loPI   C3A 2249   0.584  -0.034   9.520  0.0841  0.1241 -0.0577
  141loPI   C4A 2250   0.472  -0.041   9.101  0.1148  0.0428 -0.1524
  141loPI   C5A 2251   0.428   0.051   8.632 -0.0786  0.0168 -0.3178
  141loPI   C6A 2252   0.654   0.072   8.302  0.0752 -0.1638  0.0010
  141loPI   C1B 2253   0.259   0.433  10.214  0.2984 -0.1368  0.1858
  141loPI   C2B 2254   0.274   0.288   9.763 -0.0194  0.0100 -0.0715
  141loPI   C3B 2255   0.189   0.358   9.364 -0.1511 -0.2830 -0.2341
  141loPI   C4B 2256   0.108   0.326   8.925  0.0978 -0.0401 -0.0351
  142loPI    C1 2257   5.978  16.816  11.187 -0.0119 -0.0462  0.0819
  142loPI    C2 2258   6.368  16.886  11.240  0.0192  0.0412 -0.2428
  142loPI    C3 2259   6.130  16.830  11.556  0.2684  0.1269 -0.0372
  142loPI   PO4 2260   5.967  16.946  10.887  0.1759 -0.4444 -0.0608
  142loPI   GL1 2261   6.001  17.224  10.521 -0.0943  0.0743 -0.0949
  142loPI   GL2 2262   6.173  16.988  10.349 -0.1743 -0.4740  0.1540
  142loPI   C1A 2263   6.025  17.439  10.121 -0.0627 -0.1301  0.1225
  142loPI   C2A 2264   6.182  17.413   9.797  0.2392 -0.2655 -0.1287
  142loPI   C3A 2265   6.269  17.320   9.384 -0.2315  0.0353  0.2045
  142loPI   C4A 2266   6.216  17.571   9.024  0.3025 -0.1291  0.3229
  142loPI   C5A 2267   6.478  17.547   8.638 -0.1892  0.1377  0.1435
  142loPI   C6A 2268   6.655  17.965   8.580 -0.3019 -0.2741  0.0999
  142loPI   C1B 2269   6.035  16.966   9.966  0.1678  0.1089  0.4108
  142loPI   C2B 2270   6.136  16.862   9.501  0.1671 -0.2016 -0.1487
  142loPI   C3B 2271   6.075  16.616   9.111  0.3824  0.1833  0.1080
  142loPI   C4B 2272   6.118  16.612   8.622 -0.0636  0.2739  0.2240
  143loPI    C1 2273   5.764   0.678  10.922  0.0684 -0.0294 -0.1191
  143loPI    C2 2274   5.896   0.770  11.288  0.0369  0.1471 -0.1514
  143loPI    C3 2275   5.868   1.055  11.008 -0.0401  0.0337 -0.2598
  143loPI   PO4 2276   5.833   0.513  10.816 -0.4012 -0.4232 -0.0073
  143loPI   GL1 2277   6.045   0.545  10.430 -0.1209  0.2075 -0.1939
  143loPI   GL2 2278   6.201   0.290  10.295  0.1113  0.1948 -0.3757
  143loPI   C1A 2279   5.741   0.523  10.074 -0.1769  0.2339  0.1330
  143loPI   C2A 2280   5.645   0.590   9.735 -0.2174  0.0951  0.0669
  143loPI   C3A 2281   5.589   0.657   9.331 -0.1422 -0.2521  0.2223
  143loPI   C4A 2282   5.439   0.652   8.897 -0.2689  0.0351  0.0264
  143loPI   C5A 2283   5.151   0.402   8.670  0.0267  0.1268  0.0281
  143loPI   C6A 2284   5.138   0.338   8.234  0.0259  0.2136 -0.1462
  143loPI   C1B 2285   6.254   0.623   9.952  0.1463 -0.0453 -0.0142
  143loPI   C2B 2286   6.105   0.692   9.542 -0.1457  0.0160  0.0415
  143loPI   C3B 2287   6.003   1.036   9.276  0.1701 -0.0185 -0.1698
  143loPI   C4B 2288   6.144   1.313   8.941 -0.1159  0.1263  0.0418
  144loPI    C1 2289   8.972   5.766  11.196 -0.1648 -0.0834  0.1082
  144loPI    C2 2290   8.718   5.499  11.350 -0.1561 -0.2479 -0.1572
  144loPI    C3 2291   8.723   5.873  11.490 -0.0738 -0.4183  0.3125
  144loPI   PO4 2292   8.832   5.697  10.849 -0.0266  0.1251 -0.1886
  144loPI   GL1 2293   8.927   5.652  10.379 -0.1470 -0.1226  0.3515
  144loPI   GL2 2294   9.163   5.802  10.202 -0.5775 -0.1072 -0.0645
  144loPI   C1A 2295   9.090   5.422  10.025  0.0130  0.2263 -0.0477
  144loPI   C2A 2296   9.287   5.291   9.686 -0.1152  0.1103 -0.0803
  144loPI   C3A 2297   9.239   5.371   9.199  0.2508 -0.2797 -0.0213
  144loPI   C4A 2298   9.461   5.594   8.858 -0.0324 -0.2375  0.6335
  144loPI   C5A 2299   9.529   5.307   8.399  0.1250  0.1244 -0.0568
  144loPI   C6A 2300   9.532   5.071   8.060  0.0410  0.3803  0.0915
  144loPI   C1B 2301   9.131   5.773   9.673 -0.3371 -0.1102 -0.1086
  144loPI   C2B 2302   9.239   5.876   9.195  0.3646  0.2780  0.1910
  144loPI   C3B 2303   9.113   5.843   8.639 -0.0792 -0.0902  0.1069
  144loPI   C4B 2304   9.077   5.578   8.308  0.2711  0.0526  0.2750
  145loPI    C1 2305  10.559  14.160  11.193  0.1462  0.2458 -0.2385
  145loPI    C2 2306  10.317  14.450  11.325 -0.0203  0.1425 -0.3140
  145loPI    C3 2307  10.670  14.388  11.503 -0.1270  0.1768 -0.0866
  145loPI   PO4 2308  10.564  14.285  10.901  0.0117  0.0749  0.1585
  145loPI   GL1 2309  10.216  14.278  10.605  0.0269 -0.1799  0.0628
  145loPI   GL2 2310  10.397  14.067  10.417  0.0942 -0.0853 -0.1329
  145loPI   C1A 2311  10.372  14.548  10.210 -0.0655 -0.1913 -0.1613
  145loPI   C2A 2312  10.155  14.639   9.833 -0.4462 -0.0494  0.1148
  145loPI   C3A 2313  10.076  14.905   9.457 -0.0636  0.1266 -0.2754
  145loPI   C4A 2314  10.022  14.819   9.080 -0.2633  0.0131  0.1672
  145loPI   C5A 2315  10.035  14.438   8.814  0.2394  0.0452 -0.2794
  145loPI   C6A 2316   9.957  14.001   8.887 -0.1956  0.0248  0.0631
  145loPI   C1B 2317  10.356  14.008   9.989 -0.3618 -0.1103  0.2225
  145loPI   C2B 2318  10.242  14.185   9.690  0.0507 -0.1856 -0.0407
  145loPI   C3B 2319  10.240  14.340   9.279 -0.3390 -0.3214  0.3446
  145loPI   C4B 2320  10.515  14.219   8.937 -0.0387  0.1978  0.1312
  146loPI    C1 2321  15.353   9.366  10.436  0.1254 -0.1965 -0.0910
  146loPI    C2 2322  15.142   9.610  10.672 -0.1384 -0.3690 -0.1447
  146loPI    C3 2323  15.463   9.420  10.817  0.0588 -0.0085 -0.0977
  146loPI   PO4 2324  15.385   9.514  10.241  0.0840 -0.0743 -0.0660
  146loPI   GL1 2325  15.473   9.371   9.878 -0.2490 -0.1385 -0.0104
  146loPI   GL2 2326  15.393   9.576   9.660 -0.2256  0.3334  0.0714
  146loPI   C1A 2327  15.814   9.379   9.538 -0.0648 -0.2183  0.1080
  146loPI   C2A 2328  15.783   9.348   9.084  0.3758 -0.0469 -0.1483
  146loPI   C3A 2329  15.772   9.197   8.613  0.1466 -0.3373  0.0794
  146loPI   C4A 2330  15.825   9.075   8.228 -0.1197 -0.0300 -0.3834
  146loPI   C5A 2331  15.681   8.716   8.058 -0.0769 -0.0402 -0.1604
  146loPI   C6A 2332  15.676   8.261   7.954 -0.1160 -0.0893 -0.0841
  146loPI   C1B 2333  15.367   9.563   9.250 -0.3269 -0.4105 -0.2523
  146loPI   C2B 2334  15.351   9.444   8.773 -0.0384  0.3516 -0.0238
  146loPI   C3B 2335  15.231   9.489   8.340  0.2323 -0.0911 -0.1019
  146loPI   C4B 2336  15.178   9.527   7.974 -0.1503  0.4800  0.4870
  147loPI    C1 2337  13.270   2.489  11.345 -0.2686 -0.2307 -0.1309
  147loPI    C2 2338  13.578   2.396  11.584 -0.3173 -0.1171 -0.0227
  147loPI    C3 2339  13.207   2.284  11.683 -0.2930 -0.3981 -0.2357
  147loPI   PO4 2340  13.363   2.371  11.097  0.3726  0.0039 -0.0735
  147loPI   GL1 2341  13.299   2.442  10.618  0.1335 -0.1647  0.1030
  147loPI   GL2 2342  13.031   2.279  10.547  0.1021 -0.0167  0.1537
  147loPI   C1A 2343  13.479   2.554  10.272 -0.1861 -0.0353 -0.0739
  147loPI   C2A 2344  13.668   2.539   9.869  0.2365 -0.2714 -0.1244
  147loPI   C3A 2345  13.843   2.457   9.533  0.3415  0.0103 -0.3288
  147loPI   C4A 2346  14.035   2.404   9.079 -0.2150 -0.3204  0.0945
  147loPI   C5A 2347  14.387   2.384   8.740  0.0351 -0.0989 -0.1450
  147loPI   C6A 2348  14.748   2.619   8.660 -0.2656  0.0304  0.1809
  147loPI   C1B 2349  13.157   2.153  10.172 -0.2201  0.3251 -0.0270
  147loPI   C2B 2350  13.314   2.064   9.785 -0.1572 -0.1131 -0.3364
  147loPI   C3B 2351  13.436   2.276   9.394  0.1410  0.1185  0.1260
  147loPI   C4B 2352  13.545   2.354   8.983 -0.2650 -0.1158 -0.1392
  148loPI    C1 2353   1.348   9.597  10.700  0.2046  0.0632 -0.1236
  148loPI    C2 2354   1.529   9.575  11.056 -0.0534 -0.1963 -0.0048
  148loPI    C3 2355   1.235   9.319  10.965 -0.0381 -0.0859 -0.3782
  148loPI   PO4 2356   1.481   9.833  10.606 -0.0796 -0.1545  0.2625
  148loPI   GL1 2357   1.714   9.891  10.235 -0.0169  0.3697  0.0171
  148loPI   GL2 2358   1.925   9.724  10.166 -0.0984 -0.4907 -0.0439
  148loPI   C1A 2359   1.681  10.142   9.807  0.3485  0.0791  0.0293
  148loPI   C2A 2360   1.692  10.154   9.322  0.1080 -0.1405  0.0618
  148loPI   C3A 2361   1.877  10.085   8.878  0.2647  0.0057 -0.2069
  148loPI   C4A 2362   1.819  10.107   8.413  0.2346  0.3326  0.2879
  148loPI   C5A 2363   1.945  10.034   7.974  0.3635  0.0475 -0.2755
  148loPI   C6A 2364   2.232  10.256   7.729  0.0544  0.2609  0.1117
  148loPI   C1B 2365   2.132   9.931   9.850 -0.3196  0.1047  0.3459
  148loPI   C2B 2366   2.172  10.094   9.525 -0.3535 -0.1589 -0.0478
  148loPI   C3B 2367   2.291  10.159   8.989 -0.2399 -0.0803  0.2231
  148loPI   C4B 2368   2.302   9.984   8.603  0.1335  0.1856 -0.0339
  149loPI    C1 2369   7.849   1.818  10.234 -0.0505 -0.2283 -0.1166
  149loPI    C2 2370   7.786   2.111  10.500 -0.2767 -0.2267 -0.1701
  149loPI    C3 2371   8.129   1.905  10.507 -0.1153  0.0383 -0.1318
  149loPI   PO4 2372   7.595   1.675  10.171 -0.1468 -0.0689  0.0361
  149loPI   GL1 2373   7.537   1.521   9.769  0.0006  0.0386 -0.1557
  149loPI   GL2 2374   7.472   1.965   9.707 -0.0016  0.2043  0.3633
  149loPI   C1A 2375   7.510   1.527   9.311 -0.0214 -0.0573  0.2812
  149loPI   C2A 2376   7.250   1.752   8.968  0.0280  0.1636  0.2569
  149loPI   C3A 2377   7.052   1.467   8.633  0.2189  0.0008 -0.2532
  149loPI   C4A 2378   6.751   1.401   8.349  0.1043  0.0292  0.1793
  149loPI   C5A 2379   6.576   1.577   8.093  0.0985 -0.1138 -0.1081
  149loPI   C6A 2380   6.324   1.460   7.836 -0.1252 -0.4021  0.0908
  149loPI   C1B 2381   7.485   2.028   9.282 -0.2631  0.1521 -0.1779
  149loPI   C2B 2382   7.482   2.196   8.905 -0.0059 -0.1202 -0.0111
  149loPI   C3B 2383   7.500   2.457   8.553 -0.0116 -0.0507 -0.1972
  149loPI   C4B 2384   7.363   2.671   8.157  0.0773  0.0503 -0.1954
  150loPI    C1 2385   1.964  13.008  10.954  0.1408 -0.1103  0.0687
  150loPI    C2 2386   1.606  12.844  11.022  0.0570  0.1003  0.1435
  150loPI    C3 2387   1.914  12.760  11.264  0.0775 -0.1355  0.0385
  150loPI   PO4 2388   1.834  13.192  10.754  0.2615  0.0760 -0.0509
  150loPI   GL1 2389   1.987  13.463  10.357 -0.0327 -0.3086 -0.1088
  150loPI   GL2 2390   1.808  13.362  10.188 -0.1752 -0.1776  0.0743
  150loPI   C1A 2391   2.270  13.508  10.057  0.1350 -0.0102 -0.0441
  150loPI   C2A 2392   2.351  13.649   9.638 -0.0977 -0.2531  0.0796
  150loPI   C3A 2393   2.220  13.610   9.237 -0.2860 -0.0219  0.0385
  150loPI   C4A 2394   2.288  13.692   8.785 -0.1628  0.2070 -0.4297
  150loPI   C5A 2395   2.227  13.427   8.396  0.0233 -0.3336 -0.0253
  150loPI   C6A 2396   1.931  13.238   8.110  0.0374  0.3100  0.2066
  150loPI   C1B 2397   1.843  13.568   9.810  0.0915 -0.0519  0.1530
  150loPI   C2B 2398   1.765  13.624   9.493  0.0851  0.0969 -0.2268
  150loPI   C3B 2399   1.797  13.598   9.028  0.1813  0.2824  0.0645
  150loPI   C4B 2400   1.700  13.523   8.592 -0.2582 -0.0817  0.2529
  151loPI    C1 2401  17.352   4.492  10.639  0.0579  0.0943  0.1327
  151loPI    C2 2402  17.446   4.140  10.472 -0.0196  0.0713  0.1373
  151loPI    C3 2403  17.444   4.179  10.871 -0.1814  0.0286  0.1414
  151loPI   PO4 2404  17.557   4.631  10.510 -0.2496  0.2031  0.5200
  151loPI   GL1 2405  17.590   4.720  10.081 -0.0942 -0.0489  0.4926
  151loPI   GL2 2406  17.314   4.487  10.053 -0.2611  0.1812  0.0654
  151loPI   C1A 2407  17.674   4.590   9.697  0.1495 -0.0947 -0.1392
  151loPI   C2A 2408  17.613   4.576   9.294 -0.0542 -0.0656 -0.2133
  151loPI   C3A 2409  17.504   4.598   8.838  0.3312 -0.1046 -0.1703
  151loPI   C4A 2410  17.340   5.017   8.713 -0.1897  0.0006  0.0471
  151loPI   C5A 2411  17.138   5.145   8.353 -0.1744  0.1449 -0.2145
  151loPI   C6A 2412  17.170   5.576   8.085 -0.1452  0.1333  0.0388
  151loPI   C1B 2413  17.213   4.360   9.569 -0.2217  0.2411 -0.0906
  151loPI   C2B 2414  17.237   4.203   9.128  0.0271  0.0019 -0.1271
  151loPI   C3B 2415  17.179   4.141   8.683  0.1954  0.1540 -0.0386
  151loPI   C4B 2416  17.405   4.057   8.395  0.0794  0.1274  0.1150
  152loPI    C1 2417  10.086   4.879  10.759  0.0421  0.1328  0.0247
  152loPI    C2 2418  10.349   4.964  11.049  0.1886  0.0672 -0.0875
  152loPI    C3 2419  10.309   4.587  10.920  0.1821  0.1092 -0.2084
  152loPI   PO4 2420  10.010   5.129  10.633  0.0523 -0.1665 -0.2146
  152loPI   GL1 2421  10.164   5.296  10.243  0.3444  0.0961  0.2021
  152loPI   GL2 2422  10.350   4.993  10.061  0.1413 -0.1534  0.2437
  152loPI   C1A 2423  10.104   5.382   9.779 -0.1439 -0.2969  0.4274
  152loPI   C2A 2424  10.223   5.520   9.296 -0.3339 -0.0968 -0.1107
  152loPI   C3A 2425  10.231   5.809   9.049  0.1059 -0.0830  0.1237
  152loPI   C4A 2426  10.199   6.212   8.740 -0.0989 -0.3930 -0.0053
  152loPI   C5A 2427  10.265   6.206   8.371  0.2369 -0.0936 -0.1627
  152loPI   C6A 2428  10.042   6.121   8.017 -0.2336  0.1560  0.1526
  152loPI   C1B 2429  10.465   5.047   9.618 -0.1961 -0.0127 -0.3984
  152loPI   C2B 2430  10.272   5.031   9.189 -0.0652 -0.0783  0.0537
  152loPI   C3B 2431  10.305   4.925   8.803 -0.2248 -0.2243  0.1232
  152loPI   C4B 2432  10.269   4.735   8.415  0.1762 -0.4308 -0.5223
  153loPI    C1 2433  10.517  10.313  11.148 -0.0766  0.0458  0.0847
  153loPI    C2 2434  10.490  10.680  11.304  0.2006  0.0773  0.0638
  153loPI    C3 2435  10.275  10.381  11.459  0.0809  0.2177  0.1719
  153loPI   PO4 2436  10.644  10.194  11.027 -0.1568 -0.1680  0.1518
  153loPI   GL1 2437  10.717  10.205  10.598  0.1531  0.3233  0.0236
  153loPI   GL2 2438  10.645   9.921  10.411  0.2231  0.1057 -0.2357
  153loPI   C1A 2439  10.417  10.372  10.250  0.0082  0.0005 -0.4017
  153loPI   C2A 2440  10.461  10.376   9.765 -0.1509 -0.0597 -0.3074
  153loPI   C3A 2441  10.568  10.368   9.355  0.0777  0.1491  0.1672
  153loPI   C4A 2442  10.604  10.026   9.030 -0.0515 -0.1623 -0.0308
  153loPI   C5A 2443  10.552   9.803   8.715 -0.0278  0.0286 -0.1554
  153loPI   C6A 2444  10.589   9.433   8.361 -0.1980 -0.0450 -0.1491
  153loPI   C1B 2445  10.602   9.845   9.958 -0.0516 -0.0195 -0.2000
  153loPI   C2B 2446  10.477   9.891   9.561 -0.1364 -0.0209  0.1073
  153loPI   C3B 2447  10.421   9.555   9.247 -0.0155 -0.0950 -0.2248
  153loPI   C4B 2448  10.224   9.482   8.812 -0.0371  0.0536  0.2558
  154loPI    C1 2449  14.509   0.651  11.121  0.1264 -0.2057  0.0559
  154loPI    C2 2450  14.852   0.449  11.155  0.2918  0.0166 -0.2406
  154loPI    C3 2451  14.841   0.839  11.242  0.1527  0.0462 -0.3872
  154loPI   PO4 2452  14.456   0.558  10.858  0.3552 -0.1824 -0.2827
  154loPI   GL1 2453  14.294   0.349  10.501 -0.0069 -0.2898 -0.1638
  154loPI   GL2 2454  14.390   0.067  10.550  0.0796 -0.0501 -0.1235
  154loPI   C1A 2455  14.377   0.588  10.105 -0.1135 -0.5197  0.1395
  154loPI   C2A 2456  14.444   0.939   9.803 -0.1238  0.1031  0.0682
  154loPI   C3A 2457  14.433   0.943   9.309  0.3051  0.1570 -0.0187
  154loPI   C4A 2458  14.324   0.977   9.067 -0.2551 -0.0233  0.1360
  154loPI   C5A 2459  14.336   1.081   8.760 -0.0957  0.3351 -0.0105
  154loPI   C6A 2460  14.081   1.419   8.674  0.1421 -0.1612  0.0624
  154loPI   C1B 2461  14.365   0.089  10.030  0.3499  0.2494  0.1352
  154loPI   C2B 2462  14.282   0.264   9.609 -0.1770  0.2462 -0.5034
  154loPI   C3B 2463  14.195   0.463   9.234  0.1746  0.1028 -0.5479
  154loPI   C4B 2464  14.181   0.389   8.900 -0.0990 -0.1950 -0.2195
  155loPI    C1 2465   7.739   7.073  10.989  0.0246 -0.2451  0.2284
  155loPI    C2 2466   8.138   7.073  11.023  0.0298  0.0693  0.1997
  155loPI    C3 2467   7.911   7.188  11.331 -0.0384 -0.0625  0.1996
  155loPI   PO4 2468   7.699   7.176  10.756  0.0676  0.1985  0.3469
  155loPI   GL1 2469   7.805   7.439  10.335 -0.0254 -0.1251 -0.0575
  155loPI   GL2 2470   7.955   7.667  10.271  0.2264 -0.0789 -0.0467
  155loPI   C1A 2471   7.981   7.260   9.957 -0.4653  0.2597 -0.0700
  155loPI   C2A 2472   7.953   7.191   9.597 -0.1135 -0.2313  0.1887
  155loPI   C3A 2473   8.039   6.926   9.314  0.0517 -0.1101  0.0827
  155loPI   C4A 2474   8.198   6.890   8.927  0.2756  0.0124  0.1469
  155loPI   C5A 2475   8.110   6.935   8.488 -0.0377 -0.0787 -0.2149
  155loPI   C6A 2476   8.477   7.165   8.328 -0.2278  0.1761  0.2864
  155loPI   C1B 2477   8.158   7.852   9.967  0.3155 -0.1928 -0.0842
  155loPI   C2B 2478   8.342   8.161   9.735 -0.2052 -0.3472  0.0524
  155loPI   C3B 2479   8.337   8.254   9.275  0.0736  0.3871 -0.0497
  155loPI   C4B 2480   8.173   8.492   8.863 -0.2660  0.0325 -0.0219
  156loPI    C1 2481   3.614  13.112  11.067  0.1836 -0.4048  0.3548
  156loPI    C2 2482   3.825  13.026  10.738 -0.0699  0.1848  0.0207
  156loPI    C3 2483   3.660  12.732  10.953  0.3328 -0.2264 -0.2156
  156loPI   PO4 2484   3.428  13.305  10.951 -0.0396 -0.0737  0.1419
  156loPI   GL1 2485   3.415  13.236  10.560 -0.1097 -0.0184 -0.0864
  156loPI   GL2 2486   3.119  13.149  10.482  0.2880  0.1825  0.0718
  156loPI   C1A 2487   3.537  12.931  10.245  0.0242 -0.1564  0.1138
  156loPI   C2A 2488   3.599  12.906   9.838  0.1436 -0.0693  0.1774
  156loPI   C3A 2489   3.419  12.981   9.417 -0.3165 -0.1638  0.0103
  156loPI   C4A 2490   3.428  12.994   9.032 -0.2564  0.2732  0.1883
  156loPI   C5A 2491   3.577  13.218   8.725  0.1086  0.1035 -0.1006
  156loPI   C6A 2492   3.398  13.427   8.349 -0.4087  0.2177  0.0337
  156loPI   C1B 2493   3.265  13.342  10.136  0.1193  0.1458 -0.0065
  156loPI   C2B 2494   3.242  13.350   9.718 -0.0929  0.3092  0.4283
  156loPI   C3B 2495   3.175  13.483   9.249  0.2035 -0.2405  0.4067
  156loPI   C4B 2496   3.067  13.366   8.833 -0.2425  0.3371 -0.2996
  157loPI    C1 2497   0.315   9.467  10.384  0.0526  0.1216  0.0519
  157loPI    C2 2498   0.384   9.741  10.667  0.1715 -0.0812  0.2224
  157loPI    C3 2499   0.038   9.541  10.663 -0.0377  0.2743 -0.0769
  157loPI   PO4 2500   0.244   9.516  10.137  0.1120 -0.0505  0.0503
  157loPI   GL1 2501   0.019   9.730   9.874 -0.0089 -0.0813  0.1859
  157loPI   GL2 2502  -0.404   9.663   9.815  0.1621 -0.4739  0.0778
  157loPI   C1A 2503   0.285   9.907   9.482 -0.1047  0.0970  0.3825
  157loPI   C2A 2504   0.417  10.017   9.099  0.0712  0.0513  0.2078
  157loPI   C3A 2505   0.480  10.165   8.789  0.0331  0.0301  0.3092
  157loPI   C4A 2506   0.449  10.081   8.252 -0.2282 -0.0801  0.1289
  157loPI   C5A 2507   0.573   9.808   7.901  0.4143 -0.2359 -0.0136
  157loPI   C6A 2508   0.251   9.745   7.539  0.1455  0.2955  0.0162
  157loPI   C1B 2509  -0.584   9.944   9.482  0.2621  0.3259 -0.3496
  157loPI   C2B 2510  -0.440  10.032   9.156  0.0577  0.0154  0.0516
  157loPI   C3B 2511  -0.468  10.005   8.736  0.1655 -0.3234  0.1040
  157loPI   C4B 2512  -0.721  10.364   8.453  0.1139 -0.1484  0.0005
  158loPI    C1 2513  15.911  15.772  11.341 -0.1523 -0.1069  0.1482
  158loPI    C2 2514  15.706  16.111  11.393 -0.1571 -0.1023  0.1001
  158loPI    C3 2515  15.853  15.915  11.710 -0.2828 -0.1348  0.1389
  158loPI   PO4 2516  16.042  15.836  11.076  0.3776 -0.1809  0.0879
  158loPI   GL1 2517  16.205  15.683  10.788  0.2748 -0.1870 -0.2071
  158loPI   GL2 2518  16.217  15.356  10.721  0.0011  0.0578 -0.0772
  158loPI   C1A 2519  16.162  15.792  10.367 -0.2209 -0.1741 -0.0424
  158loPI   C2A 2520  16.090  15.794   9.937  0.0647 -0.0595  0.1901
  158loPI   C3A 2521  16.052  15.804   9.472 -0.1218  0.0260  0.0532
  158loPI   C4A 2522  16.096  15.810   9.072  0.1287 -0.0505  0.0726
  158loPI   C5A 2523  16.185  15.802   8.651 -0.1073 -0.3626 -0.0499
  158loPI   C6A 2524  16.480  15.827   8.260 -0.2787 -0.1012 -0.0208
  158loPI   C1B 2525  16.037  15.336  10.285 -0.0025 -0.0619 -0.2503
  158loPI   C2B 2526  16.022  15.271   9.888 -0.0726  0.1564 -0.2288
  158loPI   C3B 2527  15.970  15.303   9.477 -0.0782  0.0703  0.1258
  158loPI   C4B 2528  16.123  15.251   9.063  0.0246  0.0537  0.2347
  159loPI    C1 2529  14.588  13.720  11.143  0.0291  0.0374  0.0295
  159loPI    C2 2530  14.230  13.671  11.315  0.0448  0.0820  0.0750
  159loPI    C3 2531  14.400  13.367  11.118  0.0159  0.0381  0.1175
  159loPI   PO4 2532  14.445  13.947  10.944 -0.0119 -0.0167  0.0761
  159loPI   GL1 2533  14.503  14.155  10.525  0.0033  0.3257 -0.1970
  159loPI   GL2 2534  14.266  14.261  10.350 -0.0039 -0.1327  0.0480
  159loPI   C1A 2535  14.703  14.102  10.193  0.1270  0.0074  0.0887
  159loPI   C2A 2536  14.662  13.913   9.844  0.0544  0.0210 -0.1233
  159loPI   C3A 2537  14.834  13.982   9.429 -0.0828 -0.1794  0.2224
  159loPI   C4A 2538  14.731  13.984   9.078 -0.3810 -0.1107  0.2230
  159loPI   C5A 2539  14.687  13.874   8.634  0.0045 -0.1240 -0.2283
  159loPI   C6A 2540  14.427  13.761   8.411  0.0285 -0.0670  0.0797
  159loPI   C1B 2541  14.246  14.199   9.953  0.0771 -0.1070 -0.0887
  159loPI   C2B 2542  14.418  14.322   9.469 -0.2575  0.2410 -0.0350
  159loPI   C3B 2543  14.350  14.373   9.015  0.0875 -0.1362  0.0924
  159loPI   C4B 2544  14.347  14.464   8.637 -0.3078 -0.1148 -0.1197
  160loPI    C1 2545   1.664  17.729  11.184 -0.0675  0.3294 -0.1139
  160loPI    C2 2546   1.791  17.428  11.415 -0.1226  0.0058 -0.4942
  160loPI    C3 2547   1.482  17.654  11.532  0.1819  0.1882 -0.0116
  160loPI   PO4 2548   1.829  17.921  11.103 -0.1005  0.3208 -0.3419
  160loPI   GL1 2549   1.765  18.043  10.693 -0.0636  0.1583  0.0295
  160loPI   GL2 2550   1.498  17.923  10.698 -0.1765 -0.0015 -0.0254
  160loPI   C1A 2551   1.671  18.178  10.298  0.1163  0.0015  0.1679
  160loPI   C2A 2552   1.556  18.143   9.878 -0.0596 -0.0696 -0.1434
  160loPI   C3A 2553   1.521  18.203   9.392 -0.1763 -0.0162 -0.2823
  160loPI   C4A 2554   1.437  18.255   8.962  0.1792  0.4381 -0.1328
  160loPI   C5A 2555   1.578  18.456   8.625  0.1972 -0.0955  0.2483
  160loPI   C6A 2556   1.440  18.473   8.313  0.1580 -0.1402  0.0113
  160loPI   C1B 2557   1.180  17.952  10.438  0.5429  0.2724 -0.1463
  160loPI   C2B 2558   1.104  18.133  10.064  0.0992  0.1178  0.0511
  160loPI   C3B 2559   1.096  18.105   9.579 -0.1200  0.0305 -0.1030
  160loPI   C4B 2560   0.952  18.113   9.144 -0.1548 -0.0859 -0.3603
  161loPI    C1 2561  12.583   5.223  10.962 -0.2306  0.1803 -0.0716
  161loPI    C2 2562  12.917   5.443  10.964 -0.1293  0.0280  0.0545
  161loPI    C3 2563  12.718   5.379  11.305 -0.1835 -0.0374  0.0110
  161loPI   PO4 2564  12.676   4.996  10.783  0.4056 -0.1041 -0.2714
  161loPI   GL1 2565  12.693   4.938  10.317  0.2266 -0.0249  0.0720
  161loPI   GL2 2566  13.066   4.953  10.513 -0.1729  0.1990 -0.2428
  161loPI   C1A 2567  12.709   5.160   9.895  0.0904 -0.0105 -0.1200
  161loPI   C2A 2568  12.731   5.343   9.599 -0.0310  0.2816 -0.0477
  161loPI   C3A 2569  12.578   5.481   9.231 -0.2595 -0.1630 -0.2721
  161loPI   C4A 2570  12.586   5.304   8.844  0.1839  0.2515 -0.1842
  161loPI   C5A 2571  12.471   5.586   8.548  0.0851 -0.1502  0.0295
  161loPI   C6A 2572  12.434   5.999   8.429 -0.2740 -0.1178 -0.0530
  161loPI   C1B 2573  13.071   4.811  10.038  0.0354  0.0396 -0.3320
  161loPI   C2B 2574  13.090   5.015   9.552 -0.0553 -0.0130  0.0727
  161loPI   C3B 2575  12.987   5.175   9.089  0.0891 -0.0888 -0.1666
  161loPI   C4B 2576  13.004   5.370   8.645 -0.0431 -0.0392 -0.2665
  162loPI    C1 2577   0.957  14.402  10.969 -0.3255 -0.0563 -0.0718
  162loPI    C2 2578   1.105  14.195  11.278 -0.2967  0.0800  0.0062
  162loPI    C3 2579   0.759  14.392  11.317 -0.2720  0.1317 -0.0353
  162loPI   PO4 2580   0.951  14.224  10.763 -0.0068 -0.3135 -0.2326
  162loPI   GL1 2581   0.876  14.515  10.476 -0.0346  0.1838  0.3004
  162loPI   GL2 2582   0.882  14.818  10.636 -0.2592 -0.3832 -0.1293
  162loPI   C1A 2583   0.669  14.443   9.971 -0.4500 -0.1004 -0.1422
  162loPI   C2A 2584   0.682  14.561   9.585 -0.0502  0.0846 -0.1132
  162loPI   C3A 2585   0.676  14.645   9.141  0.2213 -0.1305 -0.2845
  162loPI   C4A 2586   0.689  14.764   8.685  0.0138 -0.0723  0.3683
  162loPI   C5A 2587   0.793  14.787   8.212  0.1399 -0.1112 -0.2204
  162loPI   C6A 2588   1.084  14.488   7.963  0.2134  0.2179  0.1042
  162loPI   C1B 2589   0.485  14.760  10.300 -0.2691  0.1180  0.0541
  162loPI   C2B 2590   0.395  14.872   9.856  0.1190  0.0556 -0.3141
  162loPI   C3B 2591   0.232  14.936   9.476  0.2025  0.0617 -0.2229
  162loPI   C4B 2592   0.375  15.021   9.112  0.1269  0.0681 -0.2230
  163loPI    C1 2593  17.788   2.366  11.465 -0.1286  0.0713 -0.1650
  163loPI    C2 2594  17.820   2.763  11.506  0.1003  0.0320  0.0583
  163loPI    C3 2595  18.111   2.523  11.641 -0.0627 -0.2161 -0.0237
  163loPI   PO4 2596  17.678   2.389  11.186  0.1711  0.0859 -0.1997
  163loPI   GL1 2597  17.481   2.212  10.796  0.0879  0.2574 -0.1330
  163loPI   GL2 2598  17.686   1.867  10.780 -0.2230  0.1195 -0.1724
  163loPI   C1A 2599  17.259   2.183  10.309  0.0724 -0.4477 -0.4001
  163loPI   C2A 2600  17.320   2.172   9.901 -0.2543  0.1141  0.0174
  163loPI   C3A 2601  17.515   2.040   9.557 -0.0087 -0.0663  0.2060
  163loPI   C4A 2602  17.749   1.796   9.225  0.1641  0.2461  0.2085
  163loPI   C5A 2603  17.855   1.838   8.767 -0.3473 -0.1149  0.1158
  163loPI   C6A 2604  18.068   1.681   8.344  0.1116  0.1763 -0.2660
  163loPI   C1B 2605  17.625   1.701  10.319  0.0110  0.0754 -0.0918
  163loPI   C2B 2606  17.740   1.629   9.841 -0.0152 -0.2491 -0.0672
  163loPI   C3B 2607  18.068   1.696   9.599  0.1218  0.0357  0.0474
  163loPI   C4B 2608  18.264   1.737   9.254 -0.1594  0.1480 -0.1458
  164loPI    C1 2609  17.331   6.791  10.305  0.1838 -0.0660  0.2136
  164loPI    C2 2610  17.250   6.800  10.696 -0.0886 -0.0789  0.1594
  164loPI    C3 2611  17.259   7.140  10.487  0.2222 -0.0545  0.2069
  164loPI   PO4 2612  17.178   6.705  10.180 -0.1274  0.1944 -0.0385
  164loPI   GL1 2613  17.009   6.590   9.857  0.0683 -0.0441 -0.1469
  164loPI   GL2 2614  16.715   6.552  10.062 -0.4719 -0.1361 -0.0038
  164loPI   C1A 2615  16.871   6.389   9.559  0.2223  0.2023 -0.0521
  164loPI   C2A 2616  16.731   6.199   9.263 -0.2472  0.0171  0.0188
  164loPI   C3A 2617  16.571   6.284   8.798  0.1853 -0.0221 -0.4045
  164loPI   C4A 2618  16.333   6.218   8.616  0.0230  0.3502  0.1615
  164loPI   C5A 2619  16.013   5.900   8.394 -0.4068 -0.4375 -0.1248
  164loPI   C6A 2620  15.781   5.517   8.401 -0.0506  0.0319 -0.0670
  164loPI   C1B 2621  16.409   6.456   9.760  0.0106 -0.0473 -0.1238
  164loPI   C2B 2622  16.222   6.489   9.351  0.1078 -0.0708 -0.3469
  164loPI   C3B 2623  16.113   6.488   8.951  0.0496  0.0493  0.0979
  164loPI   C4B 2624  16.026   6.642   8.541 -0.1783  0.1246  0.1042
  165loPI    C1 2625   6.383   2.541  10.868 -0.0253  0.1330  0.0178
  165loPI    C2 2626   6.681   2.768  11.007  0.0163 -0.0480  0.2289
  165loPI    C3 2627   6.302   2.873  11.077  0.0345  0.0006  0.2553
  165loPI   PO4 2628   6.522   2.373  10.590  0.1471 -0.0195  0.1565
  165loPI   GL1 2629   6.584   2.452  10.171  0.0806 -0.0812  0.1670
  165loPI   GL2 2630   6.387   2.764  10.078 -0.0292 -0.0956  0.2176
  165loPI   C1A 2631   6.749   2.128   9.971 -0.3510  0.0508 -0.1979
  165loPI   C2A 2632   6.914   2.152   9.496  0.1636  0.5474 -0.0800
  165loPI   C3A 2633   7.014   2.236   9.102 -0.0439 -0.1535  0.0207
  165loPI   C4A 2634   7.059   2.140   8.657  0.0455  0.0522  0.1242
  165loPI   C5A 2635   6.793   1.944   8.378 -0.0913  0.0296 -0.0843
  165loPI   C6A 2636   7.106   1.687   8.159 -0.0709 -0.1262  0.0007
  165loPI   C1B 2637   6.099   2.751   9.692  0.1791 -0.1487 -0.1725
  165loPI   C2B 2638   6.067   2.746   9.317 -0.2388 -0.1342  0.0175
  165loPI   C3B 2639   6.064   2.986   8.996  0.0040  0.0862 -0.1476
  165loPI   C4B 2640   6.143   3.174   8.518 -0.0696 -0.2054 -0.0222
  166loPI    C1 2641   9.895   6.147  11.123  0.0276 -0.1210 -0.2171
  166loPI    C2 2642  10.030   5.771  11.135  0.3600 -0.0007 -0.0642
  166loPI    C3 2643  10.147   6.034  11.412 -0.0816  0.1488 -0.0116
  166loPI   PO4 2644   9.865   6.131  10.828  0.3277  0.0752  0.3600
  166loPI   GL1 2645   9.595   6.275  10.563 -0.0390  0.0186  0.3358
  166loPI   GL2 2646   9.549   5.975  10.460 -0.0388 -0.0447  0.1386
  166loPI   C1A 2647   9.718   6.601  10.333 -0.0772  0.0392  0.0519
  166loPI   C2A 2648   9.761   6.681   9.905 -0.4313  0.1069 -0.3974
  166loPI   C3A 2649   9.956   6.719   9.540 -0.0016  0.1477 -0.1065
  166loPI   C4A 2650   9.909   6.534   9.111  0.1634  0.0668  0.0653
  166loPI   C5A 2651   9.758   6.510   8.638 -0.1813  0.0115 -0.4035
  166loPI   C6A 2652   9.739   6.492   8.149 -0.2684 -0.2232  0.0791
  166loPI   C1B 2653   9.769   6.181  10.093 -0.2483 -0.2349 -0.0376
  166loPI   C2B 2654  10.131   6.310   9.936  0.0490  0.2004  0.0904
  166loPI   C3B 2655  10.414   6.491   9.752  0.2247  0.0751 -0.0735
  166loPI   C4B 2656  10.669   6.691   9.540  0.2052 -0.2294  0.2205
  167loPI    C1 2657  14.912   4.617  11.006 -0.0920  0.1136  0.1781
  167loPI    C2 2658  14.661   4.368  11.192 -0.0721 -0.1569 -0.1479
  167loPI    C3 2659  14.792   4.696  11.379 -0.3151 -0.2451  0.1867
  167loPI   PO4 2660  14.817   4.563  10.736 -0.2274 -0.1776 -0.1380
  167loPI   GL1 2661  14.712   4.273  10.429  0.1055 -0.0117 -0.0674
  167loPI   GL2 2662  14.375   4.478  10.355  0.0069  0.2130  0.0984
  167loPI   C1A 2663  14.933   4.175  10.100  0.2122  0.1882  0.0787
  167loPI   C2A 2664  14.824   4.165   9.595 -0.2036  0.1587  0.1396
  167loPI   C3A 2665  14.843   4.236   9.094 -0.0896  0.1374  0.0147
  167loPI   C4A 2666  14.931   4.249   8.709 -0.3228 -0.1178  0.1390
  167loPI   C5A 2667  14.954   3.962   8.311  0.0321  0.0901  0.2469
  167loPI   C6A 2668  15.296   3.728   8.147 -0.0864 -0.1268  0.2428
  167loPI   C1B 2669  14.433   4.421   9.854 -0.1205  0.0121 -0.2015
  167loPI   C2B 2670  14.337   4.386   9.483 -0.0654 -0.0228  0.1336
  167loPI   C3B 2671  14.371   4.145   9.124 -0.2117  0.0119  0.0417
  167loPI   C4B 2672  14.089   4.087   8.816 -0.3014 -0.0783  0.1201
  168loPI    C1 2673  10.758   1.982  10.758  0.0635  0.2440 -0.0804
  168loPI    C2 2674  10.737   2.321  10.970 -0.0849  0.0046  0.2981
  168loPI    C3 2675  10.976   2.024  11.091 -0.2581 -0.1800  0.1937
  168loPI   PO4 2676  10.779   2.054  10.479 -0.1126 -0.2069  0.1278
  168loPI   GL1 2677  10.887   1.670  10.180 -0.1317  0.0835  0.0215
  168loPI   GL2 2678  10.799   1.845   9.971  0.2878 -0.0073  0.1746
  168loPI   C1A 2679  11.100   1.327   9.939 -0.2323  0.1089 -0.0256
  168loPI   C2A 2680  11.129   1.158   9.520  0.0699 -0.1626  0.0320
  168loPI   C3A 2681  11.137   1.131   9.061 -0.3070 -0.0666  0.1277
  168loPI   C4A 2682  10.917   1.146   8.749 -0.3249  0.4757 -0.0496
  168loPI   C5A 2683  11.069   0.974   8.402  0.2999  0.3250  0.4697
  168loPI   C6A 2684  11.378   0.884   8.087 -0.0882 -0.0594  0.1045
  168loPI   C1B 2685  10.824   1.573   9.572  0.2741  0.1362  0.1094
  168loPI   C2B 2686  10.827   1.574   9.098  0.1458  0.1131  0.0199
  168loPI   C3B 2687  11.015   1.603   8.706  0.3545 -0.0383  0.1678
  168loPI   C4B 2688  11.007   1.473   8.328  0.0472 -0.2176 -0.0210
  169loPI    C1 2689  14.756  14.900  11.253 -0.0748  0.0772  0.0376
  169loPI    C2 2690  14.580  14.626  11.484  0.2846 -0.0495  0.1692
  169loPI    C3 2691  14.357  14.870  11.258 -0.0503 -0.2619  0.2614
  169loPI   PO4 2692  14.935  14.776  11.049  0.0541 -0.1571  0.0596
  169loPI   GL1 2693  15.162  14.655  10.711  0.2957 -0.2261 -0.2721
  169loPI   GL2 2694  14.843  14.567  10.590  0.0111  0.1002 -0.0483
  169loPI   C1A 2695  15.015  14.989  10.364  0.3172  0.1220 -0.0931
  169loPI   C2A 2696  14.981  14.968   9.899 -0.0976 -0.0285  0.0729
  169loPI   C3A 2697  15.002  14.971   9.478 -0.1132  0.0812 -0.0750
  169loPI   C4A 2698  15.048  14.993   9.021  0.0548 -0.0150  0.1836
  169loPI   C5A 2699  14.983  15.184   8.646  0.3156 -0.3051  0.1979
  169loPI   C6A 2700  14.794  15.554   8.472  0.0779 -0.0176 -0.0714
  169loPI   C1B 2701  14.886  14.545  10.131 -0.0621 -0.2848  0.0289
  169loPI   C2B 2702  14.919  14.463   9.666  0.4733 -0.0426  0.3718
  169loPI   C3B 2703  14.909  14.498   9.219 -0.0702  0.0503  0.3098
  169loPI   C4B 2704  14.817  14.397   8.768 -0.2865  0.0985  0.1634
  170loPI    C1 2705   1.785  10.922  10.721 -0.1684  0.1650  0.1101
  170loPI    C2 2706   1.650  10.766  11.064  0.0574  0.0360  0.1425
  170loPI    C3 2707   1.438  11.048  10.875 -0.1478 -0.0084  0.3030
  170loPI   PO4 2708   1.855  10.611  10.565  0.0679 -0.2876 -0.0029
  170loPI   GL1 2709   1.957  10.481  10.170 -0.0090 -0.1803 -0.0164
  170loPI   GL2 2710   1.804  10.758  10.032 -0.1988 -0.0935 -0.1520
  170loPI   C1A 2711   2.161  10.462   9.912 -0.1977  0.0007  0.0048
  170loPI   C2A 2712   2.332  10.710   9.558  0.2452  0.0276  0.1999
  170loPI   C3A 2713   2.464  10.633   9.123 -0.1084 -0.0217  0.1443
  170loPI   C4A 2714   2.693  10.566   8.766 -0.2345  0.0234 -0.0153
  170loPI   C5A 2715   2.927  10.429   8.423  0.0260  0.0674  0.0266
  170loPI   C6A 2716   3.282  10.157   8.425 -0.5783  0.1104 -0.0984
  170loPI   C1B 2717   1.819  10.640   9.615  0.0860  0.0724  0.0509
  170loPI   C2B 2718   1.933  10.570   9.154 -0.1794 -0.0021 -0.2227
  170loPI   C3B 2719   2.167  10.565   8.714 -0.2448  0.3251 -0.1031
  170loPI   C4B 2720   2.185  10.375   8.267  0.0224  0.2519 -0.3003
  171loPI    C1 2721   5.977   5.954  10.770  0.0766 -0.2228  0.0334
  171loPI    C2 2722   6.172   6.298  10.829 -0.3663  0.0538 -0.0731
  171loPI    C3 2723   6.229   5.990  11.078 -0.2407  0.3260  0.2422
  171loPI   PO4 2724   5.979   5.983  10.481 -0.0615  0.4263 -0.2786
  171loPI   GL1 2725   6.115   5.841  10.082  0.2640  0.1178  0.2959
  171loPI   GL2 2726   6.273   5.565  10.125  0.1523 -0.0872  0.0790
  171loPI   C1A 2727   5.868   6.049   9.815 -0.2414 -0.2567 -0.0207
  171loPI   C2A 2728   5.671   6.197   9.464  0.3683  0.0377 -0.1003
  171loPI   C3A 2729   5.514   6.410   9.216  0.1381 -0.1769  0.1335
  171loPI   C4A 2730   5.423   6.470   8.841 -0.0752 -0.0079  0.0201
  171loPI   C5A 2731   5.544   6.460   8.325  0.1587  0.0053 -0.0871
  171loPI   C6A 2732   5.821   6.685   8.093 -0.3164  0.0713 -0.1657
  171loPI   C1B 2733   6.137   5.580   9.646  0.2376  0.0080 -0.0673
  171loPI   C2B 2734   5.986   5.879   9.348 -0.0789 -0.4158 -0.0294
  171loPI   C3B 2735   5.920   6.160   9.020 -0.0695  0.1423  0.0609
  171loPI   C4B 2736   5.909   6.228   8.570  0.1103 -0.0225 -0.0167
  172loPI    C1 2737  12.313  17.356  10.823  0.0340  0.2688  0.2018
  172loPI    C2 2738  11.976  17.256  11.014  0.0410 -0.0614  0.0485
  172loPI    C3 2739  12.299  17.366  11.223 -0.0674 -0.0435  0.2085
  172loPI   PO4 2740  12.222  17.437  10.561  0.0019  0.3171  0.2009
  172loPI   GL1 2741  12.228  17.815  10.200 -0.1970 -0.0326 -0.1708
  172loPI   GL2 2742  12.581  17.744  10.093 -0.0149 -0.2540 -0.1898
  172loPI   C1A 2743  11.820  17.836   9.759 -0.0938  0.1012 -0.1458
  172loPI   C2A 2744  11.840  17.894   9.309 -0.2550 -0.0218  0.1615
  172loPI   C3A 2745  12.003  17.808   8.828  0.0217 -0.1902 -0.0477
  172loPI   C4A 2746  12.190  17.896   8.441  0.1662 -0.2545 -0.0307
  172loPI   C5A 2747  12.447  17.961   8.193 -0.1867  0.0044 -0.3416
  172loPI   C6A 2748  12.980  17.966   8.002 -0.2340 -0.0686  0.1330
  172loPI   C1B 2749  12.387  17.805   9.738 -0.1883  0.1811 -0.2090
  172loPI   C2B 2750  12.392  17.879   9.355  0.0118 -0.1071 -0.1676
  172loPI   C3B 2751  12.487  18.110   8.937  0.0078 -0.0253  0.1093
  172loPI   C4B 2752  12.843  18.127   8.548 -0.1684 -0.0670 -0.2179
  173loPI    C1 2753  11.372   7.249  10.955  0.0332 -0.0695 -0.0634
  173loPI    C2 2754  11.166   7.295  11.294  0.0610  0.0056 -0.0565
  173loPI    C3 2755  11.560   7.226  11.307  0.0170 -0.2549 -0.0657
  173loPI   PO4 2756  11.295   7.021  10.802 -0.0722 -0.0306 -0.1355
  173loPI   GL1 2757  11.446   6.857  10.451  0.0275 -0.1679  0.2072
  173loPI   GL2 2758  11.746   6.943  10.451 -0.0463 -0.1112  0.1496
  173loPI   C1A 2759  11.382   6.676  10.002  0.1925  0.0049  0.2617
  173loPI   C2A 2760  11.285   6.700   9.483  0.1317  0.0803 -0.0829
  173loPI   C3A 2761  11.286   6.721   9.042  0.1406 -0.0360  0.0226
  173loPI   C4A 2762  11.358   6.611   8.580 -0.3006 -0.3051  0.2281
  173loPI   C5A 2763  11.105   6.354   8.344  0.3163 -0.1197  0.1856
  173loPI   C6A 2764  11.102   6.060   8.019 -0.1970  0.0702 -0.0173
  173loPI   C1B 2765  11.807   6.886  10.074  0.3404 -0.0199 -0.2059
  173loPI   C2B 2766  11.981   6.905   9.740 -0.0247  0.0540  0.2344
  173loPI   C3B 2767  11.940   7.013   9.215  0.0024 -0.1371  0.0141
  173loPI   C4B 2768  11.737   6.938   8.751  0.0496 -0.0259  0.3302
  174loPI    C1 2769  11.754   4.565  11.248 -0.0412  0.0460 -0.1350
  174loPI    C2 2770  11.464   4.292  11.208 -0.0182 -0.0202  0.1273
  174loPI    C3 2771  11.372   4.667  11.314 -0.0333  0.0324 -0.0673
  174loPI   PO4 2772  11.848   4.536  11.044  0.0320 -0.1361  0.2995
  174loPI   GL1 2773  11.874   4.792  10.617  0.1595 -0.3889 -0.0093
  174loPI   GL2 2774  11.813   4.430  10.511 -0.3788 -0.1586  0.0827
  174loPI   C1A 2775  11.812   4.770  10.086 -0.0605 -0.1602 -0.1215
  174loPI   C2A 2776  12.008   4.748   9.737  0.0273 -0.0905  0.1817
  174loPI   C3A 2777  12.083   4.710   9.332  0.2794  0.1395  0.2730
  174loPI   C4A 2778  12.390   4.833   8.884 -0.2620  0.1344  0.2161
  174loPI   C5A 2779  12.654   4.900   8.580  0.3501  0.1273 -0.1076
  174loPI   C6A 2780  12.958   4.766   8.361 -0.3885 -0.1320 -0.0457
  174loPI   C1B 2781  12.227   4.604  10.265  0.1902  0.2158  0.1670
  174loPI   C2B 2782  12.251   5.095  10.060  0.0337  0.0676  0.1777
  174loPI   C3B 2783  12.291   5.134   9.561  0.3442 -0.0143  0.3152
  174loPI   C4B 2784  12.167   5.157   9.240  0.2941 -0.1727 -0.0975
  175loPI    C1 2785   7.332   5.940  10.583  0.0859 -0.0617 -0.2181
  175loPI    C2 2786   7.683   5.754  10.537  0.1552  0.0217 -0.0363
  175loPI    C3 2787   7.537   5.817  10.904  0.1234  0.3089 -0.0959
  175loPI   PO4 2788   7.174   5.783  10.472 -0.0835 -0.2591  0.0341
  175loPI   GL1 2789   7.213   5.437  10.150 -0.0640 -0.3035 -0.0287
  175loPI   GL2 2790   7.464   5.681   9.983  0.1611  0.3455  0.2668
  175loPI   C1A 2791   7.008   5.514   9.774  0.0617  0.0091  0.3338
  175loPI   C2A 2792   7.010   5.643   9.359  0.3085  0.0718  0.0139
  175loPI   C3A 2793   6.911   5.729   8.944  0.3723  0.1705  0.1181
  175loPI   C4A 2794   6.622   6.033   8.818  0.0819 -0.3740 -0.3824
  175loPI   C5A 2795   6.478   6.478   8.696  0.2702  0.0796 -0.2187
  175loPI   C6A 2796   6.134   6.689   8.488  0.0038 -0.1544  0.0878
  175loPI   C1B 2797   7.340   5.959   9.564  0.2209  0.2782 -0.0062
  175loPI   C2B 2798   7.369   5.991   9.052  0.2084  0.1955 -0.3593
  175loPI   C3B 2799   7.241   5.884   8.608 -0.0914 -0.1865  0.0294
  175loPI   C4B 2800   7.231   5.870   8.122 -0.1110 -0.0388 -0.0222
  176loPI    C1 2801  15.371  14.977  11.271 -0.1257  0.0370  0.3104
  176loPI    C2 2802  15.647  14.741  11.438  0.0491  0.0704  0.0740
  176loPI    C3 2803  15.484  15.038  11.650 -0.1198 -0.2138  0.3506
  176loPI   PO4 2804  15.470  15.047  11.058 -0.0195 -0.3633  0.0917
  176loPI   GL1 2805  15.413  15.111  10.652  0.1683  0.1441 -0.0057
  176loPI   GL2 2806  15.711  15.048  10.613 -0.1417 -0.0186  0.1198
  176loPI   C1A 2807  15.308  15.388  10.286  0.3799  0.0927 -0.1649
  176loPI   C2A 2808  15.219  15.379   9.890  0.4309  0.1309 -0.1109
  176loPI   C3A 2809  15.119  15.450   9.477  0.0632  0.3072 -0.2301
  176loPI   C4A 2810  15.146  15.495   8.987  0.0862 -0.2254 -0.1050
  176loPI   C5A 2811  15.256  15.650   8.603 -0.1580 -0.1932  0.1698
  176loPI   C6A 2812  15.445  16.029   8.403 -0.0068  0.1230 -0.0956
  176loPI   C1B 2813  15.564  15.022  10.086  0.3901 -0.0674  0.3458
  176loPI   C2B 2814  15.538  15.158   9.599 -0.1259  0.1204 -0.1240
  176loPI   C3B 2815  15.564  15.123   9.203  0.2819 -0.1874  0.0171
  176loPI   C4B 2816  15.469  15.104   8.780  0.1881  0.3608  0.0754
  177loPI    C1 2817  10.831   7.932  10.884 -0.4882  0.0582 -0.2436
  177loPI    C2 2818  10.699   7.699  11.181  0.2530 -0.0725  0.0035
  177loPI    C3 2819  10.717   8.095  11.231 -0.1491 -0.0399 -0.0815
  177loPI   PO4 2820  11.089   7.750  10.742 -0.0218  0.0758  0.0571
  177loPI   GL1 2821  11.021   7.578  10.297  0.0246 -0.0572 -0.0209
  177loPI   GL2 2822  11.012   7.291  10.425 -0.1751  0.1470 -0.2238
  177loPI   C1A 2823  11.191   7.642   9.834 -0.1999  0.3096 -0.1912
  177loPI   C2A 2824  11.139   7.662   9.402 -0.0502  0.0107  0.0218
  177loPI   C3A 2825  11.039   7.510   9.052 -0.2872  0.0260  0.4389
  177loPI   C4A 2826  11.068   7.134   8.755 -0.0829 -0.1225  0.0720
  177loPI   C5A 2827  10.879   6.833   8.465  0.0076 -0.2875  0.2113
  177loPI   C6A 2828  10.522   6.726   8.275 -0.1427  0.2226  0.0570
  177loPI   C1B 2829  11.330   7.189  10.083 -0.3682 -0.0835 -0.1344
  177loPI   C2B 2830  11.504   7.099   9.682 -0.2934 -0.0579 -0.1426
  177loPI   C3B 2831  11.395   7.191   9.232  0.0047  0.1736 -0.0687
  177loPI   C4B 2832  11.489   7.383   8.769 -0.2164 -0.0874 -0.1772
  178loPI    C1 2833   4.886  13.745  11.413  0.1238 -0.0124  0.1057
  178loPI    C2 2834   5.003  13.658  11.785 -0.0574 -0.2304  0.1135
  178loPI    C3 2835   4.614  13.700  11.702  0.0032  0.2111  0.0295
  178loPI   PO4 2836   5.018  13.663  11.219  0.0630 -0.1354 -0.2819
  178loPI   GL1 2837   5.029  13.667  10.823  0.1506  0.0621 -0.2915
  178loPI   GL2 2838   4.927  13.929  10.702 -0.2463  0.1001  0.1887
  178loPI   C1A 2839   5.112  13.481  10.472  0.0200  0.3116  0.4347
  178loPI   C2A 2840   5.162  13.514  10.091 -0.1785  0.0676  0.1450
  178loPI   C3A 2841   5.071  13.497   9.650  0.0025 -0.1414  0.3790
  178loPI   C4A 2842   5.047  13.713   9.123 -0.0613 -0.2317  0.3093
  178loPI   C5A 2843   5.204  13.971   8.793 -0.0077  0.1724  0.4052
  178loPI   C6A 2844   5.276  14.315   8.659 -0.0278 -0.4168 -0.1549
  178loPI   C1B 2845   5.039  14.009  10.274 -0.0724 -0.2395  0.1058
  178loPI   C2B 2846   5.170  13.990   9.850  0.2736  0.1721  0.1270
  178loPI   C3B 2847   5.087  14.119   9.508  0.1592 -0.0192 -0.3047
  178loPI   C4B 2848   5.283  14.217   9.191 -0.0931  0.0347  0.0708
  179loPI    C1 2849  16.307   9.869  10.283  0.0833 -0.0000  0.0992
  179loPI    C2 2850  16.202   9.934  10.663 -0.0145  0.3336  0.0184
  179loPI    C3 2851  16.561   9.779  10.578 -0.0055  0.2253  0.2469
  179loPI   PO4 2852  16.279  10.102  10.154  0.2361  0.0454  0.1192
  179loPI   GL1 2853  16.476  10.012   9.749  0.0689  0.2988  0.0056
  179loPI   GL2 2854  16.489  10.222   9.581  0.1121  0.0199 -0.0825
  179loPI   C1A 2855  16.187   9.830   9.428 -0.3052  0.3453  0.1554
  179loPI   C2A 2856  16.264   9.955   9.035 -0.0845  0.1987 -0.2393
  179loPI   C3A 2857  16.257   9.919   8.662  0.2279 -0.0381 -0.2105
  179loPI   C4A 2858  16.380  10.034   8.367 -0.0875 -0.0787  0.1674
  179loPI   C5A 2859  16.513   9.816   8.027 -0.0235 -0.1538  0.1252
  179loPI   C6A 2860  16.629   9.676   7.654 -0.2734 -0.1333 -0.1836
  179loPI   C1B 2861  16.601  10.353   9.168 -0.0330 -0.1277 -0.0824
  179loPI   C2B 2862  16.592  10.402   8.664  0.0636 -0.0965  0.0406
  179loPI   C3B 2863  16.680  10.408   8.237  0.0224  0.1996 -0.1399
  179loPI   C4B 2864  16.351  10.468   7.878  0.1535 -0.2192 -0.2390
  180loPI    C1 2865  12.767   8.337  10.911  0.0246  0.1396  0.2250
  180loPI    C2 2866  12.832   8.103  11.229 -0.0797 -0.1761  0.0191
  180loPI    C3 2867  12.977   8.476  11.221 -0.0621 -0.1703  0.4270
  180loPI   PO4 2868  12.683   8.174  10.731 -0.1263  0.1030  0.1822
  180loPI   GL1 2869  12.756   7.887  10.424 -0.1331 -0.2354 -0.2072
  180loPI   GL2 2870  13.057   7.947  10.475 -0.1761  0.1619  0.3113
  180loPI   C1A 2871  12.655   7.906   9.991  0.3068  0.0201 -0.0065
  180loPI   C2A 2872  12.757   8.027   9.594  0.1298 -0.3211  0.1250
  180loPI   C3A 2873  12.620   8.055   9.188  0.0349  0.0879  0.0418
  180loPI   C4A 2874  12.391   7.925   8.850  0.1751  0.1668  0.0113
  180loPI   C5A 2875  12.363   7.681   8.420  0.0775 -0.2229 -0.0017
  180loPI   C6A 2876  12.488   7.716   7.980 -0.1292  0.3605  0.1636
  180loPI   C1B 2877  13.158   8.015  10.023  0.1470 -0.1080 -0.0126
  180loPI   C2B 2878  13.278   8.133   9.655 -0.0590 -0.2298 -0.0426
  180loPI   C3B 2879  13.499   8.243   9.297  0.0659  0.0788 -0.0361
  180loPI   C4B 2880  13.322   8.446   8.947 -0.1722  0.1791  0.0544
  181loPI    C1 2881   7.842  14.377  10.982  0.0225  0.0758 -0.2019
  181loPI    C2 2882   8.213  14.396  11.130 -0.1351  0.0649  0.2078
  181loPI    C3 2883   7.921  14.614  11.295 -0.3336 -0.0055 -0.0450
  181loPI   PO4 2884   7.865  14.383  10.700  0.1063 -0.0758 -0.1855
  181loPI   GL1 2885   8.056  14.382  10.370  0.1168  0.3991 -0.0038
  181loPI   GL2 2886   8.183  14.088  10.290  0.2049 -0.1098  0.0168
  181loPI   C1A 2887   8.521  14.445  10.188  0.1402 -0.0617  0.1855
  181loPI   C2A 2888   8.656  14.445   9.780  0.0178 -0.1321  0.3033
  181loPI   C3A 2889   8.728  14.581   9.291 -0.0473  0.1099 -0.2036
  181loPI   C4A 2890   8.691  14.274   8.989  0.0602 -0.0583  0.0165
  181loPI   C5A 2891   8.710  14.027   8.662  0.1537  0.1250  0.0425
  181loPI   C6A 2892   8.865  13.898   8.281  0.4696 -0.1663 -0.3244
  181loPI   C1B 2893   8.193  14.218   9.859  0.0712  0.0773  0.0319
  181loPI   C2B 2894   8.350  14.258   9.373  0.0118 -0.2205 -0.0807
  181loPI   C3B 2895   8.199  14.349   8.993  0.0358  0.2912  0.0406
  181loPI   C4B 2896   8.184  14.366   8.552 -0.1979 -0.3038 -0.2343
  182loPI    C1 2897  15.567   0.324  11.482  0.0979 -0.0597 -0.1090
  182loPI    C2 2898  15.180   0.234  11.531  0.0842  0.0886  0.0651
  182loPI    C3 2899  15.449   0.120  11.805  0.1652 -0.0139 -0.0554
  182loPI   PO4 2900  15.669   0.216  11.174  0.1366 -0.0488  0.1597
  182loPI   GL1 2901  15.884   0.291  10.828  0.2167  0.1443 -0.0022
  182loPI   GL2 2902  15.771  -0.063  10.770 -0.1557 -0.2820  0.1921
  182loPI   C1A 2903  15.735   0.303  10.444  0.0169  0.0975  0.1313
  182loPI   C2A 2904  15.644   0.124  10.117  0.0981 -0.1013  0.0630
  182loPI   C3A 2905  15.621   0.052   9.636 -0.1180 -0.1525 -0.0109
  182loPI   C4A 2906  15.698   0.209   9.264  0.2217  0.1842 -0.2734
  182loPI   C5A 2907  15.639   0.017   8.932  0.1706  0.1226  0.0805
  182loPI   C6A 2908  15.345  -0.353   8.871  0.0533 -0.2099 -0.0595
  182loPI   C1B 2909  15.733  -0.250  10.401 -0.0352  0.1758 -0.4021
  182loPI   C2B 2910  15.658  -0.382  10.037  0.0192  0.0390  0.0947
  182loPI   C3B 2911  15.597  -0.522   9.645  0.2467 -0.0189 -0.2068
  182loPI   C4B 2912  15.647  -0.363   9.251  0.3382 -0.0068  0.1126
  183loPI    C1 2913  17.092   7.656  10.466  0.0640  0.3592 -0.0865
  183loPI    C2 2914  17.198   7.554  10.839 -0.2196 -0.0912 -0.1209
  183loPI    C3 2915  16.969   7.876  10.776 -0.1607 -0.0064  0.0910
  183loPI   PO4 2916  17.283   7.624  10.324  0.2995  0.0177  0.1652
  183loPI   GL1 2917  17.300   7.704   9.899 -0.1287 -0.2143  0.0007
  183loPI   GL2 2918  16.944   7.806   9.957  0.0011 -0.2960  0.0709
  183loPI   C1A 2919  17.203   7.492   9.511  0.3184 -0.1717  0.0532
  183loPI   C2A 2920  17.265   7.364   9.069 -0.1873  0.0632  0.1056
  183loPI   C3A 2921  17.025   7.334   8.754 -0.3922  0.0353 -0.0213
  183loPI   C4A 2922  16.852   7.530   8.383  0.0349  0.2572 -0.0364
  183loPI   C5A 2923  16.595   7.882   8.083 -0.0863 -0.0041 -0.1668
  183loPI   C6A 2924  16.585   8.282   7.951 -0.2187 -0.2194 -0.4722
  183loPI   C1B 2925  16.876   7.993   9.486 -0.1314  0.3009 -0.2111
  183loPI   C2B 2926  16.837   7.761   9.055  0.0964 -0.0802  0.1710
  183loPI   C3B 2927  16.967   7.929   8.614  0.0402  0.2280 -0.1009
  183loPI   C4B 2928  17.037   8.072   8.247 -0.2201  0.1245 -0.3333
  184loPI    C1 2929   2.376   4.016  11.123 -0.1489  0.0808  0.1276
  184loPI    C2 2930   2.678   3.760  11.066 -0.2380  0.0573 -0.2671
  184loPI    C3 2931   2.349   3.641  11.260  0.0382  0.1117  0.2522
  184loPI   PO4 2932   2.300   4.237  10.782  0.1389 -0.0429 -0.1957
  184loPI   GL1 2933   2.399   4.040  10.390  0.0441  0.4119  0.0594
  184loPI   GL2 2934   2.559   4.326  10.312 -0.2555  0.2016 -0.0691
  184loPI   C1A 2935   2.829   3.913  10.140  0.0746 -0.2093 -0.4585
  184loPI   C2A 2936   2.950   3.865   9.760  0.0635  0.0882  0.0880
  184loPI   C3A 2937   3.027   3.891   9.401 -0.1283 -0.0092  0.1276
  184loPI   C4A 2938   3.136   3.982   9.036 -0.1820 -0.0036  0.0447
  184loPI   C5A 2939   3.419   4.185   8.708  0.1845  0.0979 -0.1473
  184loPI   C6A 2940   3.356   4.332   8.286 -0.0692 -0.0161  0.0313
  184loPI   C1B 2941   2.463   4.249   9.904 -0.1101  0.2271  0.1198
  184loPI   C2B 2942   2.593   4.182   9.497 -0.1708  0.1959  0.3533
  184loPI   C3B 2943   2.652   4.196   9.094 -0.0455 -0.3635  0.1012
  184loPI   C4B 2944   2.703   3.892   8.711 -0.1945  0.1978  0.3615
  185loPI    C1 2945  13.326   1.560  10.868 -0.3638 -0.1199  0.1934
  185loPI    C2 2946  13.375   1.955  10.835 -0.1672 -0.1771 -0.2760
  185loPI    C3 2947  13.008   1.797  10.816 -0.2974  0.0154  0.3953
  185loPI   PO4 2948  13.440   1.386  10.713 -0.2581 -0.0103 -0.0718
  185loPI   GL1 2949  13.759   1.335  10.410 -0.2583 -0.0414  0.0269
  185loPI   GL2 2950  13.602   0.950  10.464 -0.1171 -0.0741  0.1129
  185loPI   C1A 2951  13.759   1.521  10.077 -0.1319  0.1301  0.2427
  185loPI   C2A 2952  13.693   1.523   9.692  0.3543  0.4349  0.0620
  185loPI   C3A 2953  13.384   1.733   9.381 -0.1529 -0.1584 -0.1222
  185loPI   C4A 2954  13.200   1.995   8.998 -0.2340 -0.1169 -0.1691
  185loPI   C5A 2955  13.057   1.924   8.604  0.0895 -0.0538  0.0591
  185loPI   C6A 2956  12.818   1.933   8.222 -0.0052  0.0525 -0.5646
  185loPI   C1B 2957  13.659   0.969  10.014  0.2318 -0.3606 -0.0235
  185loPI   C2B 2958  13.505   0.840   9.643 -0.1338  0.0589  0.1128
  185loPI   C3B 2959  13.343   0.701   9.063 -0.2037 -0.2062  0.2278
  185loPI   C4B 2960  13.440   0.724   8.634  0.0238  0.0985  0.2153
  186loPI    C1 2961  12.852  11.138  11.112  0.0377  0.0339 -0.0623
  186loPI    C2 2962  12.777  10.892  11.419 -0.1035  0.2825  0.1067
  186loPI    C3 2963  12.575  11.235  11.384  0.1415  0.4112 -0.0855
  186loPI   PO4 2964  12.888  11.029  10.943 -0.4578 -0.0792 -0.1952
  186loPI   GL1 2965  12.805  11.108  10.502  0.1149  0.1253  0.0185
  186loPI   GL2 2966  12.823  11.400  10.564  0.0069 -0.2759  0.2954
  186loPI   C1A 2967  13.120  11.014  10.096  0.3950 -0.2398 -0.0726
  186loPI   C2A 2968  13.058  11.183   9.707 -0.0143 -0.0297 -0.0614
  186loPI   C3A 2969  12.891  11.388   9.347  0.0582  0.1449 -0.0040
  186loPI   C4A 2970  12.904  11.371   8.914 -0.2443  0.1466 -0.0658
  186loPI   C5A 2971  13.180  11.137   8.722  0.1344  0.0807  0.0916
  186loPI   C6A 2972  13.596  11.025   8.713 -0.0878 -0.2751 -0.0893
  186loPI   C1B 2973  12.824  11.446  10.074 -0.1064  0.0923 -0.1127
  186loPI   C2B 2974  12.864  11.681   9.715 -0.0997 -0.2969  0.1046
  186loPI   C3B 2975  12.618  11.759   9.338  0.1278 -0.3870  0.3788
  186loPI   C4B 2976  12.436  11.733   8.944  0.1148 -0.1251  0.0860
  187loPI    C1 2977  12.513   0.206  11.078 -0.0407 -0.0261 -0.0852
  187loPI    C2 2978  12.153   0.227  11.250  0.0643  0.2045  0.1119
  187loPI    C3 2979  12.417  -0.048  11.371 -0.0076  0.1021  0.0377
  187loPI   PO4 2980  12.566   0.395  10.935  0.2774 -0.2410 -0.1658
  187loPI   GL1 2981  12.803   0.535  10.587  0.0992 -0.1311  0.0141
  187loPI   GL2 2982  12.524   0.448  10.410 -0.1619 -0.1077 -0.1174
  187loPI   C1A 2983  12.916   0.303  10.179 -0.3434  0.3146 -0.3219
  187loPI   C2A 2984  12.978   0.081   9.798  0.0639  0.1628  0.0959
  187loPI   C3A 2985  12.882  -0.145   9.437  0.1915 -0.0712  0.1899
  187loPI   C4A 2986  12.891  -0.241   9.041 -0.2002 -0.2207  0.5593
  187loPI   C5A 2987  13.094  -0.632   8.663  0.1818  0.2896 -0.1093
  187loPI   C6A 2988  13.376  -0.592   8.289  0.0127 -0.0358  0.0485
  187loPI   C1B 2989  12.404   0.281  10.011 -0.1462  0.2989 -0.2199
  187loPI   C2B 2990  12.569   0.292   9.614 -0.1470 -0.2613 -0.1926
  187loPI   C3B 2991  12.577   0.546   9.302  0.0242 -0.0887  0.1760
  187loPI   C4B 2992  12.448   0.751   8.975  0.1542 -0.0959  0.0961
  188loPI    C1 2993   8.523   7.600  10.779  0.1947  0.0492 -0.0452
  188loPI    C2 2994   8.703   7.303  10.581  0.0478  0.0251 -0.1445
  188loPI    C3 2995   8.625   7.265  10.971 -0.1421 -0.1461 -0.1976
  188loPI   PO4 2996   8.417   7.666  10.466 -0.0117  0.0206 -0.1987
  188loPI   GL1 2997   8.445   7.418  10.176  0.1413  0.0491  0.1775
  188loPI   GL2 2998   8.416   7.081  10.137  0.0771 -0.4140 -0.0562
  188loPI   C1A 2999   8.371   7.464   9.696  0.2122 -0.1462 -0.2289
  188loPI   C2A 3000   8.117   7.676   9.388  0.0356 -0.0229  0.1577
  188loPI   C3A 3001   7.923   7.774   9.119 -0.0893 -0.4833 -0.1154
  188loPI   C4A 3002   7.750   7.964   8.760 -0.0162  0.1666  0.0142
  188loPI   C5A 3003   7.666   7.729   8.299 -0.0788 -0.0889  0.0339
  188loPI   C6A 3004   7.585   7.993   7.959  0.1702  0.2344 -0.1462
  188loPI   C1B 3005   8.403   6.848   9.802  0.3411  0.1360 -0.0673
  188loPI   C2B 3006   8.569   6.572   9.497 -0.3250 -0.2941  0.1567
  188loPI   C3B 3007   8.577   6.672   9.142 -0.2009  0.4697 -0.0484
  188loPI   C4B 3008   8.658   6.916   8.806 -0.2287 -0.2560 -0.2374
  189loPI    C1 3009   8.531  15.821  11.031 -0.0033 -0.2008 -0.1346
  189loPI    C2 3010   8.807  15.656  11.269  0.0306 -0.0578 -0.0737
  189loPI    C3 3011   8.723  16.046  11.301 -0.0014 -0.0482 -0.2614
  189loPI   PO4 3012   8.579  15.739  10.827  0.2857  0.2694 -0.1556
  189loPI   GL1 3013   8.663  15.872  10.511  0.1765  0.1234  0.2117
  189loPI   GL2 3014   8.559  16.205  10.455  0.0878  0.2355  0.0720
  189loPI   C1A 3015   8.850  15.785  10.171  0.0925 -0.0690  0.1111
  189loPI   C2A 3016   8.884  15.993   9.687 -0.3609 -0.0912  0.0725
  189loPI   C3A 3017   8.822  15.949   9.368  0.1899  0.2001 -0.0355
  189loPI   C4A 3018   8.755  15.996   8.939 -0.1390 -0.4424 -0.1067
  189loPI   C5A 3019   8.672  15.793   8.506  0.1878  0.1594  0.1407
  189loPI   C6A 3020   8.275  15.546   8.474 -0.0995 -0.0895 -0.0467
  189loPI   C1B 3021   8.529  16.097  10.001  0.1640  0.0744 -0.0405
  189loPI   C2B 3022   8.367  16.210   9.580 -0.2301 -0.0675  0.2959
  189loPI   C3B 3023   8.259  16.084   9.174  0.1801 -0.0782  0.0083
  189loPI   C4B 3024   8.262  15.794   8.918 -0.0434  0.1898  0.0100
  190loPI    C1 3025  12.385   5.896  11.072 -0.0958 -0.0617 -0.0255
  190loPI    C2 3026  12.334   5.723  11.429  0.1092 -0.2329 -0.0771
  190loPI    C3 3027  12.440   6.108  11.407  0.1367 -0.2330  0.0469
  190loPI   PO4 3028  12.482   5.752  10.933 -0.2044  0.2057  0.1019
  190loPI   GL1 3029  12.577   5.557  10.560 -0.0041 -0.4152 -0.1685
  190loPI   GL2 3030  12.908   5.384  10.481  0.0477  0.1709 -0.1107
  190loPI   C1A 3031  12.547   5.565  10.145 -0.1041 -0.0142 -0.0851
  190loPI   C2A 3032  12.348   5.598   9.794  0.2300 -0.2381  0.2292
  190loPI   C3A 3033  12.191   5.644   9.452  0.2510 -0.2902  0.2855
  190loPI   C4A 3034  12.139   5.583   8.941  0.1908 -0.0786  0.1775
  190loPI   C5A 3035  11.967   5.665   8.441  0.1835 -0.3066  0.0125
  190loPI   C6A 3036  12.097   5.918   8.115 -0.1847 -0.5292  0.1727
  190loPI   C1B 3037  13.079   5.530  10.090  0.3916 -0.0809  0.1001
  190loPI   C2B 3038  13.274   5.516   9.684  0.1389 -0.1357  0.0446
  190loPI   C3B 3039  13.107   5.641   9.283 -0.2278  0.1183 -0.2760
  190loPI   C4B 3040  13.203   5.830   8.904 -0.0253  0.0017 -0.1694
  191loPI    C1 3041   7.679   7.992  10.899  0.1446 -0.0867 -0.1767
  191loPI    C2 3042   7.284   8.044  10.861  0.1701  0.2411 -0.0288
  191loPI    C3 3043   7.485   8.242  11.144  0.3541 -0.3487  0.2694
  191loPI   PO4 3044   7.756   8.023  10.687  0.1038 -0.1933 -0.0398
  191loPI   GL1 3045   7.818   8.395  10.376 -0.2298 -0.1459  0.0659
  191loPI   GL2 3046   7.694   8.753  10.439  0.1809  0.1751  0.0315
  191loPI   C1A 3047   7.933   8.291   9.919 -0.3857 -0.1817  0.0732
  191loPI   C2A 3048   7.875   8.140   9.535  0.0155 -0.1669 -0.1643
  191loPI   C3A 3049   7.769   8.263   9.133  0.0285  0.0294  0.0925
  191loPI   C4A 3050   7.562   8.493   8.860  0.0124 -0.3649  0.3250
  191loPI   C5A 3051   7.482   8.703   8.421 -0.2901 -0.0089  0.0364
  191loPI   C6A 3052   7.764   9.072   8.279 -0.0164  0.0938  0.0732
  191loPI   C1B 3053   7.831   8.719  10.026  0.0628 -0.0906 -0.2240
  191loPI   C2B 3054   7.890   8.715   9.625  0.0311  0.0048 -0.1189
  191loPI   C3B 3055   7.931   8.812   9.191  0.1166  0.1005  0.2986
  191loPI   C4B 3056   7.897   8.931   8.696 -0.1011  0.1512  0.0425
  192loPI    C1 3057   8.825   0.389  10.824 -0.0135 -0.0081 -0.0790
  192loPI    C2 3058   8.947   0.752  10.942 -0.0042  0.0372 -0.2261
  192loPI    C3 3059   8.828   0.483  11.213 -0.1331  0.1942 -0.1253
  192loPI   PO4 3060   8.692   0.433  10.664  0.0685 -0.1868 -0.1198
  192loPI   GL1 3061   8.798   0.704  10.382  0.0971  0.0574 -0.0281
  192loPI   GL2 3062   8.987   0.395  10.252 -0.4566 -0.4177  0.1707
  192loPI   C1A 3063   8.941   0.958  10.123 -0.0381  0.1166 -0.2506
  192loPI   C2A 3064   8.985   1.029   9.684 -0.0095 -0.1059  0.1579
  192loPI   C3A 3065   9.004   0.954   9.286 -0.3329  0.0497 -0.0259
  192loPI   C4A 3066   9.130   0.814   8.932  0.0254 -0.1532  0.0456
  192loPI   C5A 3067   9.169   0.772   8.501 -0.0184  0.1631  0.0124
  192loPI   C6A 3068   8.764   0.751   8.238  0.0921  0.2232  0.0056
  192loPI   C1B 3069   9.096   0.407   9.766  0.1743 -0.2210 -0.2325
  192loPI   C2B 3070   9.097   0.401   9.366  0.2078 -0.0719  0.2469
  192loPI   C3B 3071   9.128   0.346   8.951  0.1024 -0.0635  0.1617
  192loPI   C4B 3072   9.022   0.265   8.494  0.1693 -0.4125 -0.1501
  193loPI    C1 3073   0.415   4.027  10.928 -0.1728 -0.0431  0.2819
  193loPI    C2 3074   0.269   4.372  11.069 -0.1270  0.0513  0.1009
  193loPI    C3 3075   0.642   4.260  11.161 -0.1166  0.0857  0.1007
  193loPI   PO4 3076   0.287   3.931  10.756  0.2307  0.3075  0.3062
  193loPI   GL1 3077   0.261   3.820  10.415  0.0112 -0.1156  0.0434
  193loPI   GL2 3078   0.171   3.645  10.243 -0.1573 -0.0417 -0.3358
  193loPI   C1A 3079   0.419   4.023  10.030  0.1450  0.0476 -0.0326
  193loPI   C2A 3080   0.306   4.123   9.591  0.0350 -0.1419 -0.0757
  193loPI   C3A 3081   0.275   4.152   9.097  0.1981 -0.1932 -0.0574
  193loPI   C4A 3082   0.573   4.012   8.772  0.0737  0.2453 -0.0826
  193loPI   C5A 3083   0.739   3.948   8.438 -0.0200  0.0539  0.0028
  193loPI   C6A 3084   0.978   3.864   8.136  0.2123 -0.0669  0.2352
  193loPI   C1B 3085   0.224   3.636   9.840  0.0284  0.1146 -0.1531
  193loPI   C2B 3086   0.153   3.596   9.474  0.2761 -0.0618 -0.2377
  193loPI   C3B 3087   0.039   3.681   9.007 -0.2769  0.2467 -0.0273
  193loPI   C4B 3088   0.080   3.855   8.668 -0.2647 -0.2440  0.1147
  194loPI    C1 3089   1.049  15.140  10.931  0.0324 -0.0062 -0.0816
  194loPI    C2 3090   1.100  15.284  11.300  0.3019  0.0418 -0.1354
  194loPI    C3 3091   0.854  15.470  11.045  0.0215 -0.0599  0.0560
  194loPI   PO4 3092   1.274  15.100  10.758  0.1643  0.0185  0.1257
  194loPI   GL1 3093   1.315  15.247  10.293 -0.0586 -0.1706 -0.0546
  194loPI   GL2 3094   1.201  15.394  10.033  0.1691  0.1050 -0.2334
  194loPI   C1A 3095   1.564  15.063   9.884 -0.2167 -0.0065  0.0847
  194loPI   C2A 3096   1.607  14.900   9.584  0.1424 -0.0424  0.1294
  194loPI   C3A 3097   1.695  14.887   9.161  0.1788 -0.4178  0.0865
  194loPI   C4A 3098   1.724  14.918   8.665  0.1115 -0.2644 -0.2845
  194loPI   C5A 3099   1.723  15.225   8.444 -0.0427 -0.0705  0.1888
  194loPI   C6A 3100   1.997  15.437   8.187 -0.1176 -0.0136 -0.1011
  194loPI   C1B 3101   1.253  15.273   9.617  0.0121 -0.2493 -0.3509
  194loPI   C2B 3102   1.322  15.216   9.232  0.1160 -0.1254  0.3129
  194loPI   C3B 3103   1.405  15.307   8.884  0.1056 -0.0833 -0.1331
  194loPI   C4B 3104   1.340  15.570   8.531  0.0073 -0.0079 -0.0017
  195loPI    C1 3105  13.027   4.084  11.095 -0.1784 -0.0526  0.0472
  195loPI    C2 3106  12.692   3.929  11.250 -0.1416 -0.0621  0.1178
  195loPI    C3 3107  13.048   3.775  11.347 -0.1173 -0.0599  0.0332
  195loPI   PO4 3108  13.027   4.045  10.800 -0.2728 -0.0072  0.0641
  195loPI   GL1 3109  12.953   3.667  10.529  0.2819 -0.2194  0.3372
  195loPI   GL2 3110  12.691   3.787  10.443  0.2406  0.0675  0.1115
  195loPI   C1A 3111  13.102   3.743  10.109  0.1677  0.2102  0.4191
  195loPI   C2A 3112  13.145   3.875   9.633 -0.2861 -0.0323 -0.1712
  195loPI   C3A 3113  13.000   4.046   9.207  0.3149  0.3401  0.2540
  195loPI   C4A 3114  12.842   3.988   8.837 -0.3426 -0.0835 -0.1550
  195loPI   C5A 3115  12.542   3.965   8.574  0.2883  0.1766  0.2857
  195loPI   C6A 3116  12.289   3.664   8.308  0.2126 -0.1551 -0.1782
  195loPI   C1B 3117  12.511   4.066  10.081 -0.1043 -0.0121  0.0273
  195loPI   C2B 3118  12.499   4.413   9.891  0.1056  0.2127 -0.0266
  195loPI   C3B 3119  12.526   4.747   9.637  0.0668 -0.2545 -0.1011
  195loPI   C4B 3120  12.670   4.914   9.332 -0.1273  0.0769  0.4691
  196loPI    C1 3121   1.963   8.339  10.556  0.0858 -0.1804 -0.0553
  196loPI    C2 3122   1.978   8.018  10.794  0.0724  0.0037  0.1986
  196loPI    C3 3123   2.101   8.373  10.930 -0.0040  0.1266 -0.0475
  196loPI   PO4 3124   1.864   8.152  10.336  0.3387  0.1261  0.3389
  196loPI   GL1 3125   2.153   8.043  10.030  0.1426 -0.1964 -0.2442
  196loPI   GL2 3126   2.252   7.786  10.174 -0.2455 -0.1479 -0.1700
  196loPI   C1A 3127   2.027   8.033   9.536  0.1457 -0.1545 -0.1389
  196loPI   C2A 3128   1.911   8.107   9.137  0.0695 -0.0063  0.0970
  196loPI   C3A 3129   1.805   8.063   8.697 -0.1529 -0.0727 -0.2030
  196loPI   C4A 3130   1.773   8.028   8.199 -0.2432 -0.1695 -0.2171
  196loPI   C5A 3131   1.965   8.310   7.806 -0.3012 -0.2236 -0.0329
  196loPI   C6A 3132   1.884   8.628   7.587 -0.0665 -0.1300  0.1193
  196loPI   C1B 3133   2.030   7.596   9.780 -0.0832 -0.1582  0.0343
  196loPI   C2B 3134   2.305   7.420   9.393  0.0182  0.2655  0.1804
  196loPI   C3B 3135   2.610   7.429   8.968  0.2200  0.1150 -0.4395
  196loPI   C4B 3136   2.664   7.462   8.524 -0.1530  0.0472  0.0613
  197loPI    C1 3137   9.835  13.961  10.874  0.0480  0.0622 -0.0109
  197loPI    C2 3138   9.633  13.954  11.219  0.1166 -0.0208  0.0280
  197loPI    C3 3139  10.019  14.058  11.216  0.1155 -0.0184 -0.0241
  197loPI   PO4 3140   9.860  13.670  10.823  0.1540  0.5177  0.2581
  197loPI   GL1 3141   9.743  13.323  10.517 -0.0215 -0.2183 -0.2073
  197loPI   GL2 3142   9.477  13.621  10.455 -0.0361  0.0268  0.1664
  197loPI   C1A 3143   9.715  13.274  10.152  0.0332  0.1583  0.1476
  197loPI   C2A 3144   9.737  13.417   9.783  0.0674  0.1413  0.1800
  197loPI   C3A 3145   9.825  13.346   9.275 -0.1848  0.0341  0.0327
  197loPI   C4A 3146   9.879  13.517   8.943 -0.0179 -0.1137 -0.1159
  197loPI   C5A 3147  10.051  13.493   8.471  0.0959 -0.1180 -0.3031
  197loPI   C6A 3148   9.955  13.702   8.086 -0.1450  0.2617 -0.3257
  197loPI   C1B 3149   9.374  13.697  10.019  0.2259  0.0723 -0.2143
  197loPI   C2B 3150   9.397  13.875   9.686  0.2357 -0.0330  0.0684
  197loPI   C3B 3151   9.209  14.126   9.321 -0.0305 -0.2451 -0.1269
  197loPI   C4B 3152   9.170  14.488   9.021 -0.4308 -0.0987 -0.1156
  198loPI    C1 3153   6.216  13.084  11.265  0.0369 -0.0571  0.1337
  198loPI    C2 3154   6.136  13.457  11.384 -0.0704 -0.1165  0.2494
  198loPI    C3 3155   5.988  13.146  11.587 -0.2525 -0.2203 -0.0358
  198loPI   PO4 3156   6.126  13.050  10.988 -0.1948 -0.0278 -0.1834
  198loPI   GL1 3157   5.806  12.999  10.795  0.1204  0.3118 -0.0806
  198loPI   GL2 3158   5.564  13.040  10.669  0.1871 -0.0240 -0.1045
  198loPI   C1A 3159   5.714  12.760  10.290  0.2652  0.3466  0.0738
  198loPI   C2A 3160   5.708  12.828   9.828  0.1994 -0.0708  0.2296
  198loPI   C3A 3161   5.738  12.769   9.388  0.0978  0.2361 -0.0282
  198loPI   C4A 3162   5.840  12.860   8.917  0.2111 -0.0767  0.1851
  198loPI   C5A 3163   5.793  13.022   8.492  0.0393 -0.1868 -0.3400
  198loPI   C6A 3164   5.868  13.446   8.357  0.1759 -0.0303 -0.0366
  198loPI   C1B 3165   5.261  12.983  10.420  0.0577 -0.0196  0.1285
  198loPI   C2B 3166   5.203  12.963   9.993  0.1767  0.1242  0.1949
  198loPI   C3B 3167   5.028  12.963   9.547  0.2396  0.1924  0.2580
  198loPI   C4B 3168   4.872  12.823   9.195  0.0541 -0.0159 -0.0822
  199loPI    C1 3169   6.536   9.573  10.692 -0.1147  0.2759  0.1403
  199loPI    C2 3170   6.904   9.712  10.619  0.0120  0.0464  0.3311
  199loPI    C3 3171   6.701   9.841  10.939 -0.1516  0.3150  0.1225
  199loPI   PO4 3172   6.361   9.547  10.379  0.2273 -0.2432 -0.0160
  199loPI   GL1 3173   6.115   9.238  10.200  0.1401  0.0120  0.2335
  199loPI   GL2 3174   5.858   9.485  10.218  0.3059  0.1141 -0.0733
  199loPI   C1A 3175   6.124   9.289   9.730 -0.1466 -0.0138  0.2496
  199loPI   C2A 3176   6.186   9.552   9.364 -0.0909  0.2095 -0.1440
  199loPI   C3A 3177   6.160   9.593   8.868  0.2322 -0.2348  0.1182
  199loPI   C4A 3178   6.180   9.668   8.430  0.1238  0.1879 -0.0928
  199loPI   C5A 3179   6.001   9.859   8.118  0.0206  0.1566  0.0414
  199loPI   C6A 3180   5.926   9.971   7.753  0.0469  0.2452 -0.1729
  199loPI   C1B 3181   5.931   9.749   9.870 -0.2926 -0.1779  0.2294
  199loPI   C2B 3182   6.296   9.937   9.832  0.0818 -0.2516  0.1758
  199loPI   C3B 3183   6.528  10.031   9.496 -0.0278  0.0824  0.0451
  199loPI   C4B 3184   6.583  10.067   9.159  0.1419  0.0928  0.2863
  200loPI    C1 3185   3.453  17.587  11.349 -0.0170  0.1558  0.1510
  200loPI    C2 3186   3.280  17.289  11.553 -0.0339  0.2045  0.2081
  200loPI    C3 3187   3.555  17.519  11.730  0.2546 -0.0131  0.0507
  200loPI   PO4 3188   3.490  17.496  11.072 -0.3010  0.0106  0.1137
  200loPI   GL1 3189   3.520  17.697  10.597 -0.1186  0.0019  0.0129
  200loPI   GL2 3190   3.331  17.523  10.336  0.0769 -0.1383  0.1678
  200loPI   C1A 3191   3.616  17.896  10.202 -0.1160  0.0666 -0.3224
  200loPI   C2A 3192   3.297  17.991   9.823  0.0949 -0.4549 -0.4536
  200loPI   C3A 3193   3.318  17.721   9.485 -0.1885 -0.2536  0.3259
  200loPI   C4A 3194   3.240  17.811   9.113 -0.1265  0.0711 -0.2160
  200loPI   C5A 3195   3.398  17.896   8.705  0.0603 -0.0735  0.0663
  200loPI   C6A 3196   3.518  17.733   8.337  0.0385 -0.3387  0.1500
  200loPI   C1B 3197   3.253  17.292  10.050  0.2074 -0.1295 -0.1065
  200loPI   C2B 3198   3.256  17.230   9.613  0.1547 -0.0109 -0.3552
  200loPI   C3B 3199   3.080  17.323   9.305  0.3075  0.2293  0.2869
  200loPI   C4B 3200   3.027  17.323   8.956 -0.2499  0.0397 -0.1115
  201loPI    C1 3201  17.488   8.576  10.425  0.1210 -0.1449  0.0512
  201loPI    C2 3202  17.671   8.281  10.625  0.0320 -0.1017  0.1980
  201loPI    C3 3203  17.360   8.472  10.789 -0.1677 -0.1966 -0.0630
  201loPI   PO4 3204  17.540   8.499  10.184  0.0465 -0.1953  0.0191
  201loPI   GL1 3205  17.572   8.540   9.712  0.4451  0.0353  0.0134
  201loPI   GL2 3206  17.751   8.770   9.795 -0.1224 -0.1226  0.1595
  201loPI   C1A 3207  17.455   8.781   9.370  0.0445 -0.3409 -0.2455
  201loPI   C2A 3208  17.452   8.976   9.125 -0.2092  0.1457  0.0635
  201loPI   C3A 3209  17.342   9.039   8.694 -0.1925 -0.1213  0.0313
  201loPI   C4A 3210  17.542   9.210   8.377  0.2807 -0.2592  0.1831
  201loPI   C5A 3211  17.421   9.368   8.022 -0.0058 -0.0627  0.2172
  201loPI   C6A 3212  17.073   9.521   7.826 -0.1982 -0.1826 -0.0907
  201loPI   C1B 3213  17.960   8.857   9.481 -0.3170  0.1249 -0.2186
  201loPI   C2B 3214  17.977   9.092   9.223  0.2840 -0.2059 -0.0121
  201loPI   C3B 3215  17.827   9.291   9.007 -0.1640 -0.3113 -0.0573
  201loPI   C4B 3216  17.558   9.538   8.760 -0.1987  0.2473 -0.2208
  202loPI    C1 3217  14.801  10.804  10.726 -0.0185  0.0843 -0.0801
  202loPI    C2 3218  15.135  11.017  10.783 -0.1288  0.2356  0.0061
  202loPI    C3 3219  14.953  10.843  11.094 -0.0550  0.0370 -0.0599
  202loPI   PO4 3220  14.930  10.647  10.391  0.0561  0.2566 -0.1150
  202loPI   GL1 3221  14.770  10.816   9.993  0.0202  0.0986 -0.1214
  202loPI   GL2 3222  15.195  10.827   9.803  0.0420 -0.0670  0.1487
  202loPI   C1A 3223  14.654  10.921   9.602  0.1640  0.3015  0.0780
  202loPI   C2A 3224  14.608  10.975   9.192 -0.0932 -0.2551 -0.0831
  202loPI   C3A 3225  14.612  11.045   8.780  0.0536 -0.3252  0.1194
  202loPI   C4A 3226  14.615  11.048   8.423 -0.1287  0.2337 -0.2293
  202loPI   C5A 3227  14.659  10.788   8.104  0.3678  0.0363 -0.2415
  202loPI   C6A 3228  14.641  10.906   7.711 -0.0428  0.2948  0.0559
  202loPI   C1B 3229  15.106  11.006   9.339 -0.3059 -0.1100 -0.0654
  202loPI   C2B 3230  15.110  11.025   8.947 -0.0261  0.1235 -0.2230
  202loPI   C3B 3231  15.079  10.910   8.440 -0.1028  0.2652  0.0609
  202loPI   C4B 3232  15.144  10.734   8.137 -0.1660  0.0726  0.0954
  203loPI    C1 3233   7.733   0.673  10.664  0.0107 -0.0231  0.0552
  203loPI    C2 3234   7.393   0.712  10.872 -0.0043  0.2566 -0.0176
  203loPI    C3 3235   7.744   0.804  11.042  0.0357 -0.0172  0.0525
  203loPI   PO4 3236   7.608   0.753  10.389  0.1065 -0.1594  0.0429
  203loPI   GL1 3237   7.764   0.878  10.061  0.0679  0.0065 -0.0127
  203loPI   GL2 3238   7.611   1.037   9.818 -0.2552 -0.0054  0.2975
  203loPI   C1A 3239   8.073   0.871   9.733 -0.2264 -0.3561 -0.0917
  203loPI   C2A 3240   8.102   0.794   9.308 -0.2857  0.0307  0.0254
  203loPI   C3A 3241   8.168   0.748   8.882 -0.0814  0.0318 -0.1455
  203loPI   C4A 3242   8.167   0.731   8.518 -0.1074  0.0914  0.1168
  203loPI   C5A 3243   7.909   0.651   8.042  0.1466 -0.0175  0.1372
  203loPI   C6A 3244   7.622   0.277   8.024  0.2202 -0.0553  0.2022
  203loPI   C1B 3245   7.603   0.981   9.459  0.0872 -0.0593 -0.1123
  203loPI   C2B 3246   7.690   1.014   9.106 -0.0478  0.2138 -0.0762
  203loPI   C3B 3247   7.678   0.819   8.698 -0.2327 -0.0447 -0.1137
  203loPI   C4B 3248   7.472   0.655   8.398 -0.1006 -0.0755  0.0307
  204loPI    C1 3249  13.549  10.457  10.869 -0.0831  0.1875  0.3668
  204loPI    C2 3250  13.570  10.117  11.078  0.0485  0.1103  0.2297
  204loPI    C3 3251  13.851  10.398  11.123  0.0744  0.0957  0.1614
  204loPI   PO4 3252  13.523  10.378  10.570 -0.1778 -0.2434 -0.2350
  204loPI   GL1 3253  13.434  10.600  10.187 -0.0639  0.2383 -0.0666
  204loPI   GL2 3254  13.783  10.518  10.074  0.2868  0.1255  0.3549
  204loPI   C1A 3255  13.371  10.704   9.837 -0.1765 -0.3988 -0.1722
  204loPI   C2A 3256  13.228  10.806   9.413  0.2567  0.1404  0.2866
  204loPI   C3A 3257  13.240  10.666   8.957 -0.0488  0.0494 -0.0949
  204loPI   C4A 3258  13.106  10.648   8.595  0.0525  0.1019 -0.1564
  204loPI   C5A 3259  13.072  10.325   8.269 -0.1700 -0.0472 -0.2938
  204loPI   C6A 3260  13.495  10.166   8.033 -0.1250  0.1192  0.1320
  204loPI   C1B 3261  13.847  10.601   9.669 -0.2110  0.1879  0.0001
  204loPI   C2B 3262  13.757  10.631   9.207 -0.1517 -0.1984  0.2020
  204loPI   C3B 3263  13.886  10.526   8.807  0.1721  0.1454 -0.2022
  204loPI   C4B 3264  13.796  10.593   8.438  0.0387 -0.1316 -0.0056
  205loPI    C1 3265  17.645  15.896  11.100  0.2410 -0.0274 -0.0590
  205loPI    C2 3266  17.433  15.635  11.317  0.0870  0.1223 -0.0267
  205loPI    C3 3267  17.543  15.985  11.476  0.0869  0.1779 -0.1475
  205loPI   PO4 3268  17.514  15.855  10.847 -0.0325  0.2075 -0.2955
  205loPI   GL1 3269  17.601  15.767  10.508  0.2520 -0.3095  0.1617
  205loPI   GL2 3270  17.711  16.090  10.380 -0.1510  0.0888  0.0873
  205loPI   C1A 3271  17.503  15.758  10.060  0.1080  0.0862 -0.0520
  205loPI   C2A 3272  17.530  15.741   9.657 -0.2716  0.1978  0.0673
  205loPI   C3A 3273  17.624  15.776   9.145 -0.0700  0.0801  0.1509
  205loPI   C4A 3274  17.663  15.874   8.710  0.1356  0.0203 -0.0810
  205loPI   C5A 3275  17.745  16.009   8.284  0.1480  0.1505  0.1550
  205loPI   C6A 3276  17.802  16.402   7.958 -0.0726  0.3961  0.0290
  205loPI   C1B 3277  17.643  16.235  10.000 -0.2085 -0.0063 -0.0962
  205loPI   C2B 3278  17.749  16.242   9.552 -0.1938  0.3116  0.1884
  205loPI   C3B 3279  17.585  16.260   9.023 -0.1576  0.1271 -0.0176
  205loPI   C4B 3280  17.777  16.405   8.705  0.0442 -0.0775 -0.2974
  206loPI    C1 3281  15.256  16.000  11.114 -0.0167  0.4188  0.0301
  206loPI    C2 3282  14.956  15.748  11.195  0.3194 -0.0219 -0.0587
  206loPI    C3 3283  14.890  16.072  10.970 -0.0825 -0.1270 -0.0990
  206loPI   PO4 3284  15.526  15.895  10.979  0.4024  0.1164 -0.0264
  206loPI   GL1 3285  15.739  15.877  10.631 -0.0221 -0.1464 -0.2694
  206loPI   GL2 3286  15.874  16.188  10.552  0.1111 -0.2029 -0.2862
  206loPI   C1A 3287  15.660  15.680  10.212  0.0795 -0.1926  0.0567
  206loPI   C2A 3288  15.664  15.604   9.809  0.1847  0.3104  0.1434
  206loPI   C3A 3289  15.566  15.681   9.357 -0.0630 -0.1032  0.1965
  206loPI   C4A 3290  15.660  15.562   8.912  0.3560 -0.4257 -0.0523
  206loPI   C5A 3291  15.694  15.537   8.520 -0.0944  0.5602  0.0827
  206loPI   C6A 3292  15.828  15.322   8.065 -0.0753  0.1008  0.1634
  206loPI   C1B 3293  15.758  16.160  10.110  0.0515  0.1199  0.1417
  206loPI   C2B 3294  15.834  16.210   9.640  0.0852 -0.0715  0.0161
  206loPI   C3B 3295  15.716  16.214   9.201  0.1428  0.0454  0.3445
  206loPI   C4B 3296  15.746  16.070   8.764 -0.1489 -0.0114  0.1164
  207loPI    C1 3297   6.441  16.144  10.901  0.3078 -0.1435  0.0147
  207loPI    C2 3298   6.219  16.028  11.213  0.1610 -0.0974 -0.0719
  207loPI    C3 3299   6.393  16.388  11.214 -0.1209  0.0421 -0.1890
  207loPI   PO4 3300   6.327  16.125  10.720  0.0859  0.0934  0.3026
  207loPI   GL1 3301   6.368  15.911  10.370 -0.1146 -0.1504  0.0414
  207loPI   GL2 3302   6.101  15.717  10.346  0.2292 -0.0029  0.0286
  207loPI   C1A 3303   6.598  15.956   9.975  0.0630 -0.3079 -0.1775
  207loPI   C2A 3304   6.727  15.927   9.593 -0.1103  0.0385 -0.1168
  207loPI   C3A 3305   6.965  16.123   9.244  0.1610 -0.1316  0.0145
  207loPI   C4A 3306   7.270  15.960   8.982 -0.4064  0.1729  0.2131
  207loPI   C5A 3307   7.422  15.794   8.647 -0.1326  0.1004  0.1576
  207loPI   C6A 3308   7.538  16.078   8.246 -0.1847  0.1385 -0.2810
  207loPI   C1B 3309   6.096  15.938   9.894  0.2292  0.1862 -0.1949
  207loPI   C2B 3310   6.089  15.982   9.473 -0.2841  0.1578 -0.2076
  207loPI   C3B 3311   6.014  16.110   9.027 -0.5501 -0.0382 -0.0029
  207loPI   C4B 3312   6.172  16.110   8.552  0.0918  0.4831  0.6015
  208loPI    C1 3313   7.553  16.997  11.121  0.0083  0.1751 -0.0848
  208loPI    C2 3314   7.942  16.987  11.217 -0.0087  0.0258 -0.0282
  208loPI    C3 3315   7.673  17.107  11.487 -0.0115  0.0400 -0.0372
  208loPI   PO4 3316   7.598  16.907  10.843 -0.4443 -0.0776 -0.2296
  208loPI   GL1 3317   7.913  17.009  10.525  0.1031  0.0322 -0.2409
  208loPI   GL2 3318   7.658  16.766  10.393  0.0624 -0.4389  0.0013
  208loPI   C1A 3319   7.931  17.254  10.112  0.0128 -0.0204  0.2047
  208loPI   C2A 3320   7.854  17.309   9.715  0.1736 -0.1386  0.1602
  208loPI   C3A 3321   7.784  17.513   9.336 -0.1218 -0.0562  0.0510
  208loPI   C4A 3322   7.830  17.531   8.931 -0.3231 -0.1460 -0.3769
  208loPI   C5A 3323   7.705  17.785   8.522 -0.1688 -0.2450  0.0459
  208loPI   C6A 3324   7.399  18.103   8.431 -0.2914  0.0768 -0.2410
  208loPI   C1B 3325   7.567  16.972   9.957 -0.1539 -0.0885 -0.1378
  208loPI   C2B 3326   7.460  16.971   9.520  0.2190 -0.0110  0.0112
  208loPI   C3B 3327   7.414  16.962   9.044 -0.3333  0.1667  0.0033
  208loPI   C4B 3328   7.315  16.854   8.713  0.2570 -0.0286 -0.0224
  209loPI    C1 3329  13.649  16.742  11.292  0.0368 -0.0349 -0.2107
  209loPI    C2 3330  13.268  16.833  11.372  0.0263 -0.0941 -0.1931
  209loPI    C3 3331  13.421  16.486  11.498  0.1739  0.0618  0.0659
  209loPI   PO4 3332  13.670  16.893  11.070  0.1210 -0.0584 -0.1226
  209loPI   GL1 3333  13.589  16.979  10.686 -0.1155 -0.0697  0.0111
  209loPI   GL2 3334  13.877  16.808  10.596 -0.1328  0.0626 -0.2914
  209loPI   C1A 3335  13.561  17.006  10.245 -0.2076  0.1915 -0.2627
  209loPI   C2A 3336  13.715  16.963   9.842 -0.1649 -0.3550  0.0706
  209loPI   C3A 3337  13.648  16.942   9.461  0.1735 -0.3872 -0.3182
  209loPI   C4A 3338  13.541  16.974   9.022 -0.1788  0.1352  0.1743
  209loPI   C5A 3339  13.681  17.168   8.711  0.0922 -0.1248  0.1733
  209loPI   C6A 3340  13.796  17.578   8.556 -0.0979  0.1596 -0.2226
  209loPI   C1B 3341  14.075  17.014  10.355  0.0968 -0.0324 -0.0253
  209loPI   C2B 3342  14.137  17.075  10.010  0.1057  0.0547  0.2822
  209loPI   C3B 3343  14.121  17.132   9.477  0.0735  0.0527 -0.1496
  209loPI   C4B 3344  14.113  17.140   9.010  0.2100  0.3376  0.2045
  210loPI    C1 3345   8.523  13.582  10.830  0.0520  0.4710  0.0140
  210loPI    C2 3346   8.879  13.574  10.650  0.0389  0.1207 -0.0033
  210loPI    C3 3347   8.845  13.726  11.018  0.2533 -0.0573  0.0932
  210loPI   PO4 3348   8.418  13.408  10.808 -0.0765  0.0034 -0.1309
  210loPI   GL1 3349   8.331  13.224  10.414 -0.0856 -0.0124 -0.1269
  210loPI   GL2 3350   8.157  13.578  10.429 -0.0939  0.0867  0.1626
  210loPI   C1A 3351   8.250  13.214  10.048  0.0911 -0.0638 -0.0098
  210loPI   C2A 3352   8.165  13.334   9.597 -0.2165 -0.0113 -0.2004
  210loPI   C3A 3353   8.043  13.411   9.187 -0.3376  0.1744  0.3512
  210loPI   C4A 3354   8.196  13.427   8.805  0.0574  0.2433 -0.0291
  210loPI   C5A 3355   8.551  13.558   8.565  0.0631 -0.5583  0.0087
  210loPI   C6A 3356   8.922  13.430   8.592  0.0846 -0.3982  0.1471
  210loPI   C1B 3357   8.258  13.710   9.953  0.1352 -0.1353 -0.3212
  210loPI   C2B 3358   8.297  13.826   9.554 -0.3150  0.2978 -0.0090
  210loPI   C3B 3359   8.339  13.852   9.036 -0.2338 -0.0715  0.1513
  210loPI   C4B 3360   8.090  13.866   8.574 -0.2364  0.1145  0.2303
  211loPI    C1 3361  15.957   7.895  10.680  0.1832  0.1006  0.2280
  211loPI    C2 3362  15.745   7.726  10.974 -0.1099  0.0279 -0.0204
  211loPI    C3 3363  16.062   7.953  11.062 -0.2958  0.1502  0.3591
  211loPI   PO4 3364  15.858   7.838  10.518 -0.2935 -0.1806  0.3322
  211loPI   GL1 3365  15.928   7.694  10.011 -0.0545  0.2438  0.3681
  211loPI   GL2 3366  15.772   7.450  10.106 -0.0814 -0.0340  0.0933
  211loPI   C1A 3367  15.919   7.818   9.515 -0.0689 -0.1064  0.1396
  211loPI   C2A 3368  15.863   7.861   9.130  0.1572 -0.1433 -0.1563
  211loPI   C3A 3369  15.866   7.847   8.680  0.1354 -0.2071  0.1358
  211loPI   C4A 3370  16.067   8.070   8.316  0.1695  0.1524 -0.2519
  211loPI   C5A 3371  16.144   8.049   7.908  0.3252  0.1677 -0.1455
  211loPI   C6A 3372  16.259   8.054   7.551 -0.1473 -0.2241 -0.1395
  211loPI   C1B 3373  15.653   7.360   9.696  0.0822 -0.0332  0.0933
  211loPI   C2B 3374  15.649   7.407   9.287 -0.0261 -0.1364 -0.0305
  211loPI   C3B 3375  15.588   7.407   8.958 -0.0095 -0.0325 -0.0542
  211loPI   C4B 3376  15.421   7.355   8.514  0.1703  0.0240  0.1207
  212loPI    C1 3377  12.662  11.960  11.336 -0.0099  0.0698  0.0329
  212loPI    C2 3378  12.327  12.117  11.488  0.1100  0.2837  0.0803
  212loPI    C3 3379  12.671  12.144  11.691  0.1742  0.1420 -0.0081
  212loPI   PO4 3380  12.688  12.116  10.952  0.2467  0.5022 -0.0109
  212loPI   GL1 3381  12.496  11.777  10.556  0.0161 -0.0991 -0.0806
  212loPI   GL2 3382  12.343  11.545  10.638  0.1473  0.2506 -0.2837
  212loPI   C1A 3383  12.492  11.959  10.185  0.0113 -0.1260  0.0253
  212loPI   C2A 3384  12.392  11.888   9.779 -0.1951 -0.2002 -0.0133
  212loPI   C3A 3385  12.219  11.997   9.340 -0.0173  0.0564 -0.2227
  212loPI   C4A 3386  12.166  12.128   8.862  0.3610  0.2089 -0.1723
  212loPI   C5A 3387  12.497  12.114   8.585  0.2725  0.2302 -0.2610
  212loPI   C6A 3388  12.379  11.688   8.317 -0.2280  0.3350  0.2775
  212loPI   C1B 3389  12.077  11.619  10.335  0.1459 -0.2964  0.0830
  212loPI   C2B 3390  11.998  11.602   9.869  0.1174  0.3887  0.0346
  212loPI   C3B 3391  12.017  11.594   9.482  0.1010  0.0585  0.0876
  212loPI   C4B 3392  11.945  11.661   9.037  0.0281 -0.0654 -0.5547
  213loPI    C1 3393  10.269   8.816  10.973 -0.0181  0.1123  0.0921
  213loPI    C2 3394  10.080   8.919  11.310  0.0303 -0.0344  0.1652
  213loPI    C3 3395  10.477   8.872  11.310  0.0498  0.1235  0.0483
  213loPI   PO4 3396  10.109   8.937  10.787 -0.0207 -0.2267  0.1633
  213loPI   GL1 3397  10.283   9.339  10.544 -0.0224 -0.2416 -0.1381
  213loPI   GL2 3398  10.048   9.245  10.417 -0.0704 -0.0671 -0.0084
  213loPI   C1A 3399  10.739   9.277  10.333  0.1027  0.0436 -0.1384
  213loPI   C2A 3400  11.147   9.116  10.192 -0.1044 -0.1208 -0.2570
  213loPI   C3A 3401  11.392   8.869   9.949  0.1170  0.1667  0.1297
  213loPI   C4A 3402  11.449   8.619   9.591  0.3070 -0.2153  0.1360
  213loPI   C5A 3403  11.386   8.602   9.080 -0.2487  0.4835  0.0824
  213loPI   C6A 3404  11.174   8.541   8.739  0.0283 -0.2044  0.1622
  213loPI   C1B 3405   9.848   9.369  10.087 -0.4248  0.2224 -0.3737
  213loPI   C2B 3406   9.885   9.579   9.689  0.1479  0.0090 -0.2325
  213loPI   C3B 3407   9.911   9.514   9.249 -0.0155 -0.2483  0.1891
  213loPI   C4B 3408  10.118   9.124   9.147  0.2295  0.1442 -0.0260
  214loPI    C1 3409   8.380  14.946  10.979 -0.0476 -0.0177 -0.0179
  214loPI    C2 3410   8.580  15.288  11.031  0.0136 -0.0475 -0.0548
  214loPI    C3 3411   8.717  15.014  10.774 -0.1436 -0.0134 -0.1762
  214loPI   PO4 3412   8.131  15.028  10.985 -0.0975  0.2226  0.0929
  214loPI   GL1 3413   8.011  14.918  10.540 -0.0049 -0.1954  0.0739
  214loPI   GL2 3414   7.847  15.068  10.283 -0.3173 -0.2576  0.1874
  214loPI   C1A 3415   8.331  14.883  10.198 -0.0481 -0.3792 -0.1137
  214loPI   C2A 3416   8.407  14.928   9.673 -0.0591  0.0267  0.0935
  214loPI   C3A 3417   8.442  14.991   9.267  0.0713  0.0205 -0.0422
  214loPI   C4A 3418   8.734  14.858   8.893  0.2128 -0.0243 -0.2022
  214loPI   C5A 3419   8.777  14.565   8.617  0.4168 -0.0796 -0.0323
  214loPI   C6A 3420   9.066  14.432   8.332  0.2204 -0.0618 -0.1865
  214loPI   C1B 3421   7.921  14.784   9.868  0.0432 -0.2112  0.0440
  214loPI   C2B 3422   8.038  14.713   9.454 -0.1103  0.1748  0.3637
  214loPI   C3B 3423   8.034  14.823   8.927  0.0586 -0.1055 -0.0583
  214loPI   C4B 3424   8.317  14.902   8.603  0.1057  0.0393 -0.2758
  215loPI    C1 3425  16.303   1.168  10.973  0.0519  0.0656 -0.3315
  215loPI    C2 3426  16.672   1.048  11.070 -0.0560 -0.1368 -0.1647
  215loPI    C3 3427  16.422   0.797  10.883 -0.2667 -0.1616  0.1408
  215loPI   PO4 3428  16.299   1.369  10.881 -0.2057  0.3542 -0.0358
  215loPI   GL1 3429  16.089   1.554  10.481  0.0069  0.0980  0.3887
  215loPI   GL2 3430  15.933   1.269  10.334 -0.0843  0.0488 -0.0554
  215loPI   C1A 3431  16.213   1.747  10.067  0.1241 -0.1057  0.0773
  215loPI   C2A 3432  16.109   1.717   9.658  0.1068 -0.0832  0.0752
  215loPI   C3A 3433  16.234   1.582   9.195  0.1160 -0.3233 -0.0352
  215loPI   C4A 3434  16.557   1.531   8.873 -0.0727  0.2406  0.1284
  215loPI   C5A 3435  16.988   1.496   8.796 -0.2014  0.2341  0.2447
  215loPI   C6A 3436  17.484   1.456   8.912 -0.0842 -0.1932  0.1879
  215loPI   C1B 3437  16.005   1.174   9.873 -0.3849  0.1517 -0.1987
  215loPI   C2B 3438  16.105   1.120   9.434 -0.1297 -0.2304 -0.1171
  215loPI   C3B 3439  16.153   1.151   9.046  0.3903  0.1348 -0.0546
  215loPI   C4B 3440  16.008   1.237   8.707  0.1024 -0.0381  0.1683
  216loPI    C1 3441  12.497   6.401  10.987  0.0772  0.0210  0.2182
  216loPI    C2 3442  12.119   6.374  11.116 -0.0382  0.1187 -0.0898
  216loPI    C3 3443  12.318   6.719  11.150 -0.0670  0.1431 -0.1660
  216loPI   PO4 3444  12.529   6.311  10.724  0.2180 -0.0999 -0.1888
  216loPI   GL1 3445  12.503   6.022  10.347  0.0110  0.0468  0.0836
  216loPI   GL2 3446  12.858   5.886  10.322 -0.0855 -0.2779 -0.0754
  216loPI   C1A 3447  12.447   6.087   9.778 -0.1615 -0.2451 -0.2166
  216loPI   C2A 3448  12.228   6.217   9.413 -0.0593  0.1613 -0.0578
  216loPI   C3A 3449  12.159   6.080   8.973  0.1234 -0.1502 -0.1853
  216loPI   C4A 3450  11.773   5.939   8.799 -0.2914  0.1404 -0.3313
  216loPI   C5A 3451  11.536   5.903   8.303  0.1864 -0.3056  0.2336
  216loPI   C6A 3452  11.665   5.779   8.006  0.0348 -0.1500  0.0469
  216loPI   C1B 3453  12.857   5.817   9.783  0.1455  0.1181 -0.1815
  216loPI   C2B 3454  12.668   5.968   9.339  0.0521  0.0898  0.0987
  216loPI   C3B 3455  12.710   5.961   8.915 -0.4592  0.1525  0.0077
  216loPI   C4B 3456  12.937   6.032   8.493 -0.0669 -0.1052  0.2225
  217loPI    C1 3457   7.223  12.368  10.925 -0.0565  0.1861 -0.0259
  217loPI    C2 3458   6.840  12.471  10.980 -0.0604  0.1942 -0.0682
  217loPI    C3 3459   7.091  12.457  11.291 -0.0939  0.1941 -0.0413
  217loPI   PO4 3460   7.157  12.166  10.817  0.0032  0.0804 -0.1311
  217loPI   GL1 3461   6.940  12.253  10.426 -0.3435  0.2366  0.0585
  217loPI   GL2 3462   7.165  12.528  10.384 -0.6657 -0.1966 -0.1362
  217loPI   C1A 3463   6.808  11.920  10.109  0.1146  0.0264 -0.0494
  217loPI   C2A 3464   6.827  11.914   9.694  0.0883  0.3258 -0.0447
  217loPI   C3A 3465   6.833  11.909   9.266 -0.0174 -0.0588  0.1554
  217loPI   C4A 3466   6.843  11.866   8.838 -0.3360  0.1045 -0.0392
  217loPI   C5A 3467   7.145  11.693   8.565 -0.0406  0.0225  0.0949
  217loPI   C6A 3468   7.317  11.823   8.106  0.0661  0.0344  0.1291
  217loPI   C1B 3469   7.158  12.299   9.987  0.0601 -0.2882  0.3264
  217loPI   C2B 3470   6.950  12.361   9.528 -0.0429  0.2826  0.0674
  217loPI   C3B 3471   7.022  12.313   9.055 -0.2267  0.1486 -0.3010
  217loPI   C4B 3472   7.144  12.480   8.655  0.0842 -0.3090 -0.2378
  218loPI    C1 3473   1.857  14.477  10.796  0.3636 -0.1477  0.2226
  218loPI    C2 3474   1.719  14.782  11.015  0.0988  0.1304 -0.3122
  218loPI    C3 3475   1.600  14.409  11.094  0.1472  0.2019  0.1218
  218loPI   PO4 3476   1.772  14.422  10.489  0.1059  0.0700  0.1909
  218loPI   GL1 3477   1.617  14.635  10.161 -0.1165  0.1612 -0.0318
  218loPI   GL2 3478   1.287  14.764  10.252  0.0170  0.0113 -0.0239
  218loPI   C1A 3479   1.915  14.704   9.863 -0.3458 -0.2034 -0.2360
  218loPI   C2A 3480   2.041  14.565   9.532 -0.2882 -0.1326 -0.0178
  218loPI   C3A 3481   2.106  14.424   9.137  0.3108 -0.2200  0.4385
  218loPI   C4A 3482   2.147  14.539   8.835  0.0930  0.0877 -0.2062
  218loPI   C5A 3483   2.121  14.811   8.427 -0.1396  0.0412 -0.1212
  218loPI   C6A 3484   2.075  14.947   8.105  0.0711  0.1459  0.1353
  218loPI   C1B 3485   1.210  14.696   9.776  0.1466 -0.0180 -0.0667
  218loPI   C2B 3486   1.163  14.722   9.391 -0.3029 -0.2844  0.1497
  218loPI   C3B 3487   1.243  14.782   9.016  0.2272 -0.1501 -0.2047
  218loPI   C4B 3488   1.232  14.874   8.639 -0.1807 -0.1435  0.1116
  219loPI    C1 3489   7.368  11.784  11.023  0.2533 -0.1323  0.1670
  219loPI    C2 3490   7.474  11.681  11.394  0.2878 -0.0167  0.1897
  219loPI    C3 3491   7.452  12.067  11.293  0.0247 -0.0420  0.1456
  219loPI   PO4 3492   7.374  11.549  10.818 -0.1492  0.1874 -0.2279
  219loPI   GL1 3493   7.376  11.273  10.435  0.0946  0.0509  0.0055
  219loPI   GL2 3494   7.336  10.978  10.254  0.1879 -0.0941 -0.0860
  219loPI   C1A 3495   7.552  11.404  10.003 -0.2140  0.1814  0.3786
  219loPI   C2A 3496   7.603  11.387   9.628  0.1049 -0.1209 -0.1324
  219loPI   C3A 3497   7.586  11.467   9.247  0.3951  0.2637 -0.1062
  219loPI   C4A 3498   7.615  11.434   8.784 -0.0900  0.2435  0.5727
  219loPI   C5A 3499   7.635  11.700   8.518 -0.0287  0.0850  0.1583
  219loPI   C6A 3500   7.754  11.968   8.280 -0.2411 -0.2694  0.2939
  219loPI   C1B 3501   7.223  10.908   9.895  0.3926  0.0392 -0.1447
  219loPI   C2B 3502   7.291  11.043   9.439  0.0866  0.1442 -0.0342
  219loPI   C3B 3503   7.215  10.874   9.068  0.1152  0.0744  0.0911
  219loPI   C4B 3504   7.279  11.059   8.599 -0.1155 -0.0532 -0.1078
  220loPI    C1 3505   1.070   2.589  11.123 -0.0798  0.0767 -0.0931
  220loPI    C2 3506   0.760   2.821  11.221  0.0196  0.0978  0.1791
  220loPI    C3 3507   1.018   2.702  11.503  0.1462 -0.0853 -0.0113
  220loPI   PO4 3508   1.196   2.727  10.916  0.2273  0.1187 -0.0127
  220loPI   GL1 3509   1.052   2.840  10.496 -0.1895  0.0146  0.0234
  220loPI   GL2 3510   0.853   2.798  10.387 -0.0100  0.3046  0.2259
  220loPI   C1A 3511   1.299   2.745  10.090  0.2344  0.0123  0.1243
  220loPI   C2A 3512   1.267   2.710   9.711 -0.2391 -0.0749 -0.2477
  220loPI   C3A 3513   1.219   2.893   9.271 -0.1334 -0.0814 -0.1686
  220loPI   C4A 3514   1.660   2.892   9.005 -0.0715  0.1901 -0.1008
  220loPI   C5A 3515   2.093   2.955   8.990  0.0782  0.0096 -0.3934
  220loPI   C6A 3516   2.349   2.808   8.710 -0.3998 -0.0364  0.3611
  220loPI   C1B 3517   0.773   2.772  10.001  0.0996 -0.2715 -0.0903
  220loPI   C2B 3518   0.735   2.728   9.539 -0.2151 -0.1518 -0.0718
  220loPI   C3B 3519   0.681   2.854   9.184  0.1812 -0.1469 -0.0801
  220loPI   C4B 3520   0.930   2.852   8.826  0.0600 -0.3228 -0.1861
  221loPI    C1 3521  15.213   8.984  10.725 -0.1650  0.1450  0.0155
  221loPI    C2 3522  14.989   9.239  10.937 -0.1330  0.1471  0.0469
  221loPI    C3 3523  15.281   9.032  11.116 -0.1975  0.0440  0.0340
  221loPI   PO4 3524  14.946   8.869  10.573 -0.3743 -0.1846 -0.0461
  221loPI   GL1 3525  14.892   8.651  10.153 -0.0308  0.0631 -0.0995
  221loPI   GL2 3526  15.269   8.560  10.059 -0.2911 -0.1124 -0.2709
  221loPI   C1A 3527  14.654   8.365   9.930  0.2601  0.4041 -0.2190
  221loPI   C2A 3528  14.514   8.183   9.543 -0.1487  0.4150 -0.0090
  221loPI   C3A 3529  14.433   8.157   9.086 -0.5722  0.1135  0.0171
  221loPI   C4A 3530  14.314   8.296   8.682 -0.0400  0.3047 -0.0639
  221loPI   C5A 3531  14.273   8.536   8.406 -0.2248 -0.1524  0.0897
  221loPI   C6A 3532  14.373   8.879   8.078 -0.1037 -0.0424  0.1234
  221loPI   C1B 3533  15.115   8.683   9.731  0.1846  0.0519 -0.2767
  221loPI   C2B 3534  14.915   8.781   9.392  0.2471 -0.2433 -0.1984
  221loPI   C3B 3535  14.776   8.547   9.127  0.3016 -0.1357  0.1661
  221loPI   C4B 3536  14.627   8.657   8.753  0.3000 -0.3521  0.0424
  222loPI    C1 3537  16.575   2.461  11.080 -0.1154  0.3988 -0.3232
  222loPI    C2 3538  16.414   2.734  11.324 -0.1848  0.0872 -0.0112
  222loPI    C3 3539  16.794   2.621  11.375 -0.2807 -0.1775  0.1306
  222loPI   PO4 3540  16.426   2.476  10.855 -0.2039  0.1843  0.1320
  222loPI   GL1 3541  16.323   2.444  10.462  0.0188 -0.1371  0.2499
  222loPI   GL2 3542  16.249   2.798  10.473 -0.1213 -0.1254 -0.3644
  222loPI   C1A 3543  16.496   2.607  10.171 -0.4348 -0.0438  0.2064
  222loPI   C2A 3544  16.213   2.639   9.756  0.1677 -0.1189 -0.2567
  222loPI   C3A 3545  16.218   2.731   9.369 -0.0123  0.0653 -0.2229
  222loPI   C4A 3546  16.507   2.824   9.096 -0.3452 -0.1334 -0.1056
  222loPI   C5A 3547  16.625   2.719   8.696 -0.0318  0.0105 -0.0473
  222loPI   C6A 3548  16.600   2.970   8.405 -0.3764 -0.0737  0.0825
  222loPI   C1B 3549  16.222   2.993  10.113  0.3384 -0.2048 -0.0419
  222loPI   C2B 3550  16.302   3.129   9.590  0.1015  0.0691 -0.3250
  222loPI   C3B 3551  16.321   3.250   9.219 -0.2347 -0.0792  0.2681
  222loPI   C4B 3552  16.422   3.312   8.802  0.2179 -0.0991 -0.0941
  223loPI    C1 3553  15.356  12.587  10.950  0.1960 -0.0723  0.1880
  223loPI    C2 3554  15.711  12.683  11.109  0.1796 -0.0039  0.1836
  223loPI    C3 3555  15.382  12.691  11.336  0.1488  0.1429  0.1347
  223loPI   PO4 3556  15.329  12.479  10.793 -0.1161  0.3033 -0.1999
  223loPI   GL1 3557  15.450  12.432  10.365  0.0372 -0.1122  0.0523
  223loPI   GL2 3558  15.483  12.112  10.088  0.2500  0.1006 -0.1438
  223loPI   C1A 3559  15.545  12.723   9.894 -0.0196 -0.4524  0.0214
  223loPI   C2A 3560  15.534  12.731   9.387  0.3220 -0.1386 -0.0161
  223loPI   C3A 3561  15.389  12.782   9.030 -0.2196  0.0826  0.2806
  223loPI   C4A 3562  15.393  12.912   8.549 -0.1353 -0.1357  0.1202
  223loPI   C5A 3563  15.564  13.044   8.239 -0.2979 -0.3334  0.0207
  223loPI   C6A 3564  15.940  13.130   7.879  0.3914 -0.0649  0.0388
  223loPI   C1B 3565  15.512  12.233   9.648 -0.4048 -0.4738  0.1264
  223loPI   C2B 3566  15.354  12.308   9.207 -0.0532  0.1376  0.2608
  223loPI   C3B 3567  15.248  11.988   8.917  0.1531 -0.0971 -0.0806
  223loPI   C4B 3568  15.146  11.960   8.458 -0.0503  0.2885 -0.2558
  224loPI    C1 3569   9.951   0.526  10.960 -0.0070  0.1871  0.0574
  224loPI    C2 3570   9.721   0.199  10.958  0.1074  0.1058 -0.0636
  224loPI    C3 3571  10.039   0.218  11.200 -0.0459  0.2334  0.1313
  224loPI   PO4 3572   9.849   0.635  10.727  0.1286 -0.1019  0.0073
  224loPI   GL1 3573   9.716   0.388  10.350 -0.3266 -0.3376  0.1582
  224loPI   GL2 3574   9.459   0.210  10.091  0.1902  0.4418 -0.1455
  224loPI   C1A 3575   9.929   0.388   9.898  0.0086  0.0246  0.0696
  224loPI   C2A 3576   9.940   0.405   9.407  0.0651 -0.2361 -0.2592
  224loPI   C3A 3577   9.992   0.389   9.013  0.0368  0.3756 -0.0640
  224loPI   C4A 3578  10.046   0.480   8.635 -0.2836 -0.3192 -0.3939
  224loPI   C5A 3579  10.142   0.731   8.180 -0.0480 -0.0891  0.0734
  224loPI   C6A 3580  10.339   0.684   7.857  0.0587  0.1224  0.2266
  224loPI   C1B 3581   9.545   0.166   9.590 -0.3384 -0.2413 -0.2993
  224loPI   C2B 3582   9.560   0.019   9.149  0.0870  0.0402  0.0513
  224loPI   C3B 3583   9.716   0.096   8.635 -0.0508 -0.1323 -0.2478
  224loPI   C4B 3584   9.602   0.246   8.272 -0.1127 -0.1492 -0.1930
  225loPI    C1 3585   0.981   8.340  10.864 -0.0025  0.0186  0.0097
  225loPI    C2 3586   1.056   8.172  11.220  0.0435  0.2367  0.1050
  225loPI    C3 3587   0.895   8.538  11.201 -0.2006  0.1227 -0.1002
  225loPI   PO4 3588   1.173   8.215  10.665  0.0356 -0.0658 -0.1087
  225loPI   GL1 3589   1.261   8.193  10.151 -0.1041 -0.2350 -0.0815
  225loPI   GL2 3590   1.361   8.444   9.989 -0.0533  0.2210  0.2098
  225loPI   C1A 3591   1.036   7.953   9.790 -0.2480  0.2538 -0.1375
  225loPI   C2A 3592   1.030   7.978   9.306 -0.1123  0.0629  0.0044
  225loPI   C3A 3593   0.809   8.139   8.833 -0.0409  0.0521 -0.0844
  225loPI   C4A 3594   0.752   8.239   8.419  0.0137  0.1214  0.1024
  225loPI   C5A 3595   1.028   7.962   8.121  0.2077 -0.0499  0.0984
  225loPI   C6A 3596   1.352   7.769   8.197 -0.1851  0.1406 -0.0176
  225loPI   C1B 3597   1.310   8.477   9.565 -0.0728 -0.1103  0.0918
  225loPI   C2B 3598   1.477   8.436   9.219  0.0539 -0.1444 -0.0546
  225loPI   C3B 3599   1.289   8.226   8.905 -0.1502  0.0064 -0.0935
  225loPI   C4B 3600   1.182   7.845   8.728 -0.3774 -0.0721 -0.3723
  226loPI    C1 3601  13.478   4.685  10.959  0.0103 -0.2740  0.0866
  226loPI    C2 3602  13.796   4.908  11.052 -0.0566 -0.1471  0.0142
  226loPI    C3 3603  13.492   4.877  11.309 -0.2250  0.1740 -0.1409
  226loPI   PO4 3604  13.465   4.691  10.624 -0.2906 -0.1574  0.0250
  226loPI   GL1 3605  13.467   4.434  10.287 -0.0483 -0.2001  0.0987
  226loPI   GL2 3606  13.285   4.159  10.357 -0.1752 -0.0984  0.1604
  226loPI   C1A 3607  13.453   4.487   9.912  0.4080  0.0218  0.2384
  226loPI   C2A 3608  13.394   4.297   9.503  0.3678 -0.2639 -0.2482
  226loPI   C3A 3609  13.478   4.369   9.044 -0.2363  0.4059 -0.0993
  226loPI   C4A 3610  13.725   4.364   8.612 -0.0410 -0.0220 -0.1712
  226loPI   C5A 3611  13.965   4.728   8.491 -0.0144 -0.3312 -0.1488
  226loPI   C6A 3612  14.421   4.959   8.305 -0.0158 -0.2130 -0.1638
  226loPI   C1B 3613  12.994   4.249   9.954  0.1083  0.3340  0.0064
  226loPI   C2B 3614  12.936   4.475   9.616 -0.2167 -0.0820  0.1627
  226loPI   C3B 3615  13.053   4.589   9.146 -0.1976 -0.3581 -0.0289
  226loPI   C4B 3616  13.152   4.537   8.743 -0.1274  0.2669  0.1175
  227loPI    C1 3617   3.133  13.861  11.133 -0.0445 -0.3510  0.1076
  227loPI    C2 3618   2.782  13.980  10.982  0.1349  0.2457  0.1367
  227loPI    C3 3619   2.798  13.662  11.223 -0.3198 -0.0344 -0.1880
  227loPI   PO4 3620   3.306  13.803  10.976 -0.0791  0.0742  0.0141
  227loPI   GL1 3621   3.148  13.670  10.603  0.1125 -0.1150  0.4848
  227loPI   GL2 3622   3.329  13.887  10.467 -0.0082 -0.2910 -0.0927
  227loPI   C1A 3623   2.867  13.708  10.184  0.0882 -0.0944 -0.0028
  227loPI   C2A 3624   2.919  13.760   9.673 -0.0855 -0.0966  0.2242
  227loPI   C3A 3625   2.764  13.727   9.264 -0.1707  0.5163  0.2278
  227loPI   C4A 3626   2.819  13.747   8.884  0.3236  0.1931  0.4023
  227loPI   C5A 3627   3.043  13.839   8.538 -0.1492 -0.2266  0.1005
  227loPI   C6A 3628   3.385  13.969   8.434  0.1438 -0.0474  0.0095
  227loPI   C1B 3629   3.403  13.842  10.080  0.0790  0.0410  0.0228
  227loPI   C2B 3630   3.436  13.866   9.690 -0.2360 -0.1033  0.0038
  227loPI   C3B 3631   3.394  13.952   9.183 -0.2394  0.1535  0.1959
  227loPI   C4B 3632   3.432  13.712   8.848 -0.3145 -0.2116  0.1108
  228loPI    C1 3633   3.433   2.980  10.849  0.1354 -0.1901 -0.0372
  228loPI    C2 3634   3.046   3.058  10.785  0.1559 -0.2300 -0.2162
  228loPI    C3 3635   3.152   2.752  11.020  0.0791 -0.1183 -0.0338
  228loPI   PO4 3636   3.552   2.878  10.610  0.0368 -0.2476  0.0997
  228loPI   GL1 3637   3.609   2.909  10.222  0.0741 -0.0538 -0.0893
  228loPI   GL2 3638   3.473   2.565  10.209  0.1186  0.2075  0.2221
  228loPI   C1A 3639   3.585   3.190   9.905  0.0633 -0.0101  0.0382
  228loPI   C2A 3640   3.545   3.192   9.497 -0.6918  0.0900 -0.0704
  228loPI   C3A 3641   3.430   3.137   9.047 -0.1167  0.1491 -0.0659
  228loPI   C4A 3642   3.461   3.054   8.654  0.0136 -0.0670 -0.4140
  228loPI   C5A 3643   3.458   3.236   8.308 -0.0821  0.0775  0.3505
  228loPI   C6A 3644   3.407   3.561   8.033  0.0013  0.1246  0.0779
  228loPI   C1B 3645   3.508   2.670   9.790  0.1353 -0.0309  0.2355
  228loPI   C2B 3646   3.533   2.709   9.315  0.1222  0.1581  0.0782
  228loPI   C3B 3647   3.349   2.563   8.932  0.1422 -0.0344  0.1598
  228loPI   C4B 3648   2.957   2.281   8.833  0.0882 -0.1165  0.0456
  229loPI    C1 3649  14.574   1.190  11.013  0.0324 -0.0694  0.0615
  229loPI    C2 3650  14.706   1.416  11.315  0.1793  0.0856 -0.1161
  229loPI    C3 3651  14.959   1.298  11.029  0.0947 -0.2705 -0.0484
  229loPI   PO4 3652  14.419   1.171  10.921 -0.0899 -0.0699 -0.1431
  229loPI   GL1 3653  14.069   0.832  10.639 -0.2566 -0.1124 -0.1755
  229loPI   GL2 3654  14.456   0.878  10.484  0.1205  0.2495  0.0132
  229loPI   C1A 3655  14.056   0.984  10.230  0.0192  0.1886  0.0827
  229loPI   C2A 3656  14.241   1.294  10.063 -0.0322 -0.0252 -0.2188
  229loPI   C3A 3657  14.332   1.478   9.587 -0.2917 -0.1079  0.1403
  229loPI   C4A 3658  14.374   1.802   9.321  0.2699  0.0817 -0.0853
  229loPI   C5A 3659  14.507   1.626   8.886  0.1598  0.0838  0.0215
  229loPI   C6A 3660  14.507   1.687   8.442 -0.4042  0.3265  0.0900
  229loPI   C1B 3661  14.800   0.830  10.149  0.0080  0.2521  0.2533
  229loPI   C2B 3662  14.971   0.813   9.717 -0.1284 -0.2321  0.1099
  229loPI   C3B 3663  14.949   0.881   9.255 -0.0155  0.2489 -0.0081
  229loPI   C4B 3664  15.148   0.887   8.857  0.0281 -0.2406 -0.0368
  230loPI    C1 3665   7.369   4.530  10.502  0.1201  0.1925 -0.1814
  230loPI    C2 3666   7.536   4.259  10.743  0.0013  0.1299 -0.1691
  230loPI    C3 3667   7.331   4.566  10.898 -0.0358  0.1150 -0.1884
  230loPI   PO4 3668   7.598   4.540  10.308 -0.1554 -0.0454 -0.0265
  230loPI   GL1 3669   7.682   4.648   9.954 -0.0883  0.0182 -0.1977
  230loPI   GL2 3670   7.834   4.924   9.954 -0.3228  0.0438 -0.0465
  230loPI   C1A 3671   8.007   4.524   9.681  0.0684  0.1272 -0.1352
  230loPI   C2A 3672   8.207   4.700   9.356 -0.1083  0.3495  0.3466
  230loPI   C3A 3673   8.437   4.746   8.986 -0.1414  0.1280  0.2361
  230loPI   C4A 3674   8.499   5.004   8.593 -0.1808 -0.0066 -0.2045
  230loPI   C5A 3675   8.618   5.230   8.306  0.3126 -0.0458 -0.0928
  230loPI   C6A 3676   9.024   5.103   8.075  0.3363 -0.4155 -0.0975
  230loPI   C1B 3677   8.058   5.034   9.664 -0.1328 -0.0937  0.1622
  230loPI   C2B 3678   8.262   5.218   9.328  0.0453  0.2419 -0.3140
  230loPI   C3B 3679   8.548   5.275   8.960  0.1124 -0.3215  0.1203
  230loPI   C4B 3680   8.978   5.283   8.756 -0.0073 -0.0262 -0.0513
  231loPI    C1 3681   0.871   9.646  10.540  0.1253 -0.0881 -0.0184
  231loPI    C2 3682   0.784   9.343  10.785  0.0908  0.0223  0.1074
  231loPI    C3 3683   0.778   9.718  10.922  0.0040  0.0905 -0.0803
  231loPI   PO4 3684   0.821   9.533  10.316 -0.0385 -0.1120  0.0641
  231loPI   GL1 3685   0.780   9.747   9.917  0.1218 -0.2440 -0.0216
  231loPI   GL2 3686   0.585   9.703   9.826  0.0515  0.0707  0.1153
  231loPI   C1A 3687   1.122  10.005   9.794 -0.3159  0.2781  0.1440
  231loPI   C2A 3688   1.278   9.981   9.457 -0.0725 -0.1482  0.2195
  231loPI   C3A 3689   1.318  10.074   8.982  0.2854  0.2281 -0.3542
  231loPI   C4A 3690   1.270  10.230   8.589 -0.2718  0.0302  0.0673
  231loPI   C5A 3691   1.193  10.481   8.213  0.1508 -0.2396  0.0079
  231loPI   C6A 3692   0.885  10.792   8.045 -0.0231  0.0199  0.0573
  231loPI   C1B 3693   0.764   9.775   9.359 -0.1746 -0.1613  0.0988
  231loPI   C2B 3694   0.919   9.785   8.924 -0.1303 -0.2124 -0.2351
  231loPI   C3B 3695   1.031   9.731   8.544  0.1924  0.0499 -0.1870
  231loPI   C4B 3696   0.943   9.522   8.209  0.0448 -0.1177  0.2529
  232loPI    C1 3697  15.473  13.992  10.933 -0.0464 -0.0112  0.0181
  232loPI    C2 3698  15.789  13.911  11.164  0.0790  0.2375 -0.0616
  232loPI    C3 3699  15.552  13.614  11.038  0.2977  0.0446 -0.0270
  232loPI   PO4 3700  15.558  14.117  10.742  0.1113  0.0019 -0.1146
  232loPI   GL1 3701  15.767  14.436  10.396 -0.1182  0.0823  0.0243
  232loPI   GL2 3702  15.466  14.589  10.335  0.0474 -0.0496  0.3427
  232loPI   C1A 3703  15.765  14.272   9.980  0.1140  0.1104  0.1677
  232loPI   C2A 3704  15.778  14.263   9.615 -0.0796  0.2106 -0.1232
  232loPI   C3A 3705  15.694  14.310   9.151 -0.1536 -0.1619  0.2739
  232loPI   C4A 3706  15.711  14.398   8.646 -0.1854 -0.0085  0.1141
  232loPI   C5A 3707  15.486  14.358   8.261 -0.4840 -0.2815 -0.2622
  232loPI   C6A 3708  15.372  14.141   7.928 -0.2469  0.3029  0.2485
  232loPI   C1B 3709  15.389  14.557   9.906 -0.1254 -0.2978 -0.1516
  232loPI   C2B 3710  15.402  14.622   9.494  0.2131  0.0364  0.3563
  232loPI   C3B 3711  15.362  14.661   9.055  0.1114 -0.1696  0.1189
  232loPI   C4B 3712  15.266  14.667   8.641  0.3699  0.1282  0.1063
  233loPI    C1 3713  11.011   9.873  10.893 -0.2606 -0.1277  0.0211
  233loPI    C2 3714  10.869   9.795  11.258 -0.1226  0.0650  0.1182
  233loPI    C3 3715  11.259   9.866  11.206 -0.0917 -0.2497 -0.1130
  233loPI   PO4 3716  11.007   9.662  10.742 -0.1039 -0.0570  0.2141
  233loPI   GL1 3717  11.140   9.659  10.261 -0.3619 -0.1453  0.0478
  233loPI   GL2 3718  11.201   9.993  10.412  0.1068 -0.2182 -0.0646
  233loPI   C1A 3719  11.094   9.627   9.873 -0.2160 -0.0025  0.3474
  233loPI   C2A 3720  10.826   9.465   9.594  0.2182 -0.0188 -0.0086
  233loPI   C3A 3721  10.670   9.093   9.332 -0.0229 -0.0470  0.0441
  233loPI   C4A 3722  10.489   8.839   9.046  0.0298 -0.1416 -0.0975
  233loPI   C5A 3723  10.635   8.457   8.814  0.0709 -0.0521 -0.1599
  233loPI   C6A 3724  10.507   8.378   8.374  0.0827  0.3013 -0.2231
  233loPI   C1B 3725  11.020  10.091  10.074 -0.0686 -0.0212  0.0546
  233loPI   C2B 3726  10.921  10.108   9.659  0.1276 -0.0122  0.3055
  233loPI   C3B 3727  10.993   9.859   9.340  0.0581  0.1043 -0.0037
  233loPI   C4B 3728  11.105   9.808   8.902  0.4248 -0.0285  0.0473
  234loPI    C1 3729   5.589   1.490  10.956  0.1633 -0.0027  0.0169
  234loPI    C2 3730   5.951   1.565  10.803 -0.0441  0.4111 -0.2919
  234loPI    C3 3731   5.776   1.833  11.043  0.0158  0.0361  0.1864
  234loPI   PO4 3732   5.530   1.338  10.741  0.1083 -0.3366  0.0612
  234loPI   GL1 3733   5.492   1.344  10.291 -0.1605 -0.0200  0.1697
  234loPI   GL2 3734   5.753   1.521  10.257  0.0855 -0.2465  0.1605
  234loPI   C1A 3735   5.258   1.309   9.994 -0.1991 -0.2076 -0.1170
  234loPI   C2A 3736   5.172   1.129   9.523  0.2107 -0.1951  0.0172
  234loPI   C3A 3737   5.343   1.039   9.179 -0.1732  0.3710 -0.1021
  234loPI   C4A 3738   5.635   1.187   8.860  0.0853  0.0491 -0.0841
  234loPI   C5A 3739   5.673   1.252   8.358  0.0944 -0.0753 -0.0259
  234loPI   C6A 3740   5.548   1.178   7.909 -0.0783 -0.0150  0.2233
  234loPI   C1B 3741   6.066   1.442   9.911  0.0787 -0.4462  0.0282
  234loPI   C2B 3742   6.272   1.419   9.478 -0.0294  0.1427  0.1113
  234loPI   C3B 3743   6.569   1.359   9.220 -0.0345  0.1479  0.1101
  234loPI   C4B 3744   6.649   1.144   8.848 -0.0807  0.1705  0.1625
  235loPI    C1 3745   5.718   6.482  10.916  0.1521 -0.0550 -0.0254
  235loPI    C2 3746   5.350   6.564  11.048  0.0953 -0.2266 -0.0755
  235loPI    C3 3747   5.660   6.579  11.300  0.0467 -0.1360 -0.0205
  235loPI   PO4 3748   5.657   6.354  10.700  0.1961  0.1317 -0.0907
  235loPI   GL1 3749   5.549   6.233  10.319 -0.2209  0.0793  0.0582
  235loPI   GL2 3750   5.580   6.546  10.121 -0.2152 -0.0549 -0.2667
  235loPI   C1A 3751   5.305   6.250   9.829  0.0785  0.1692 -0.2362
  235loPI   C2A 3752   5.197   6.196   9.525 -0.0484  0.0406  0.0521
  235loPI   C3A 3753   4.822   6.182   9.347  0.0906  0.1238 -0.2847
  235loPI   C4A 3754   4.493   6.139   9.043 -0.0534  0.0659 -0.0660
  235loPI   C5A 3755   4.247   5.985   8.643  0.0702  0.0625 -0.0678
  235loPI   C6A 3756   4.129   5.919   8.227 -0.2014  0.2020  0.2683
  235loPI   C1B 3757   5.939   6.570   9.882 -0.1017  0.1205 -0.2115
  235loPI   C2B 3758   6.008   6.576   9.463 -0.0120  0.0687 -0.0191
  235loPI   C3B 3759   5.888   6.685   8.924  0.1483 -0.0777 -0.0143
  235loPI   C4B 3760   5.731   6.920   8.593  0.1690  0.1986  0.1830
  236loPI    C1 3761   2.964  12.478  10.806  0.0640 -0.1348 -0.0302
  236loPI    C2 3762   2.864  12.256  11.123 -0.1192  0.1445  0.1125
  236loPI    C3 3763   3.198  12.475  11.130  0.1236 -0.2088 -0.0735
  236loPI   PO4 3764   2.849  12.402  10.648  0.3490 -0.0265  0.0302
  236loPI   GL1 3765   2.893  12.252  10.255  0.0416 -0.3719  0.1327
  236loPI   GL2 3766   2.543  12.072  10.261  0.2522  0.2165  0.0082
  236loPI   C1A 3767   2.931  12.247   9.807  0.0664  0.0793 -0.0519
  236loPI   C2A 3768   3.042  12.205   9.478  0.3198  0.0357  0.1291
  236loPI   C3A 3769   2.940  12.373   9.025  0.3966 -0.1057  0.3138
  236loPI   C4A 3770   2.904  12.413   8.596 -0.0130 -0.1456 -0.2516
  236loPI   C5A 3771   3.247  12.483   8.296  0.1272  0.0822  0.1414
  236loPI   C6A 3772   3.516  12.179   8.292 -0.3491  0.0707 -0.1515
  236loPI   C1B 3773   2.462  12.182   9.866  0.0731  0.5685  0.3336
  236loPI   C2B 3774   2.388  12.149   9.381  0.3064  0.1156 -0.3000
  236loPI   C3B 3775   2.305  12.277   8.973  0.0153  0.0449 -0.1833
  236loPI   C4B 3776   2.161  11.988   8.639 -0.0569 -0.0850  0.0344
  237loPI    C1 3777  13.600  15.585  11.303 -0.0183  0.1122 -0.0966
  237loPI    C2 3778  13.953  15.770  11.336  0.0341  0.0108 -0.0849
  237loPI    C3 3779  13.695  15.774  11.642 -0.0172  0.1700 -0.1289
  237loPI   PO4 3780  13.612  15.564  10.993  0.1755 -0.0176  0.0245
  237loPI   GL1 3781  13.772  15.517  10.537 -0.2405  0.1333 -0.0644
  237loPI   GL2 3782  14.056  15.279  10.417  0.0888  0.1701 -0.0249
  237loPI   C1A 3783  13.754  15.584  10.095  0.0133 -0.0228 -0.0972
  237loPI   C2A 3784  13.694  15.602   9.675 -0.1347 -0.0592  0.0418
  237loPI   C3A 3785  13.676  15.597   9.286 -0.1664  0.1419 -0.0044
  237loPI   C4A 3786  13.779  15.767   8.893  0.0788 -0.2433  0.1322
  237loPI   C5A 3787  14.017  15.715   8.558 -0.3062 -0.0775  0.0145
  237loPI   C6A 3788  14.478  15.905   8.600 -0.1914 -0.2601  0.4687
  237loPI   C1B 3789  14.195  15.101  10.049 -0.1422  0.0951  0.3497
  237loPI   C2B 3790  14.212  15.067   9.573 -0.1442  0.1082 -0.0222
  237loPI   C3B 3791  14.165  15.286   9.156  0.1039 -0.0340 -0.0414
  237loPI   C4B 3792  14.204  15.190   8.646  0.0989  0.1557  0.1492
  238loPI    C1 3793  12.880  15.104  11.157  0.1668  0.1009  0.2282
  238loPI    C2 3794  13.161  15.377  11.237 -0.1055  0.4695 -0.0321
  238loPI    C3 3795  12.862  15.317  11.495  0.1138  0.1963  0.1658
  238loPI   PO4 3796  12.856  15.131  10.854 -0.3052  0.1225 -0.1317
  238loPI   GL1 3797  12.969  15.029  10.445 -0.3056  0.0754  0.1821
  238loPI   GL2 3798  12.715  14.813  10.432 -0.1232  0.0583  0.0635
  238loPI   C1A 3799  12.861  15.075   9.930  0.0916 -0.0200  0.2875
  238loPI   C2A 3800  12.847  15.026   9.469  0.0394  0.3321  0.2330
  238loPI   C3A 3801  12.617  15.056   9.173  0.1532 -0.3741 -0.1230
  238loPI   C4A 3802  12.549  15.284   8.853 -0.3343 -0.1707  0.0317
  238loPI   C5A 3803  12.434  15.690   8.722  0.0116 -0.0124 -0.1844
  238loPI   C6A 3804  12.521  15.846   8.313  0.1422 -0.1195  0.0420
  238loPI   C1B 3805  12.487  14.766  10.065  0.1686  0.0114  0.3149
  238loPI   C2B 3806  12.391  14.849   9.587 -0.0307 -0.1464 -0.0550
  238loPI   C3B 3807  12.180  14.808   9.137 -0.0232  0.0452 -0.2551
  238loPI   C4B 3808  12.365  14.876   8.780 -0.1538 -0.1362 -0.2740
  239loPI    C1 3809  11.825   9.325  11.209 -0.0063 -0.4252 -0.1643
  239loPI    C2 3810  11.458   9.407  11.073 -0.0177 -0.3570 -0.0927
  239loPI    C3 3811  11.505   9.158  11.382 -0.0120 -0.2677 -0.0212
  239loPI   PO4 3812  11.946   9.358  10.920  0.0291  0.0411 -0.0271
  239loPI   GL1 3813  11.942   9.438  10.517 -0.0094  0.0312  0.3068
  239loPI   GL2 3814  12.251   9.169  10.432  0.1657  0.2181 -0.1959
  239loPI   C1A 3815  11.607   9.287  10.122 -0.0993  0.0245 -0.0828
  239loPI   C2A 3816  11.474   9.361   9.692  0.2671  0.2315 -0.0139
  239loPI   C3A 3817  11.280   9.484   9.345  0.1168 -0.0444 -0.0224
  239loPI   C4A 3818  11.009   9.371   9.137  0.1959  0.0653 -0.0539
  239loPI   C5A 3819  10.622   9.226   8.829  0.3671 -0.0913  0.0414
  239loPI   C6A 3820  10.302   8.999   8.578  0.2737  0.0222 -0.4517
  239loPI   C1B 3821  12.258   9.205   9.996 -0.1241  0.1410  0.1616
  239loPI   C2B 3822  12.422   9.419   9.595  0.0975 -0.3262 -0.0086
  239loPI   C3B 3823  12.405   9.474   9.210 -0.2500  0.2117  0.1864
  239loPI   C4B 3824  12.100   9.299   8.910  0.0205  0.1598 -0.2397
  240loPI    C1 3825   1.897   8.875  10.606 -0.4572 -0.0127 -0.0570
  240loPI    C2 3826   1.934   8.878  11.004  0.0739 -0.0166 -0.0981
  240loPI    C3 3827   1.794   9.200  10.814  0.1062  0.0972  0.0684
  240loPI   PO4 3828   2.173   8.762  10.538 -0.0693 -0.0888 -0.0372
  240loPI   GL1 3829   2.177   8.533  10.166 -0.1827  0.0155  0.0019
  240loPI   GL2 3830   1.887   8.509  10.032  0.3890 -0.2505  0.4100
  240loPI   C1A 3831   2.294   8.406   9.749  0.2757  0.0883 -0.2516
  240loPI   C2A 3832   2.363   8.374   9.287 -0.0934 -0.1170 -0.0868
  240loPI   C3A 3833   2.229   8.316   8.871 -0.1792 -0.0389  0.1901
  240loPI   C4A 3834   2.038   8.425   8.459 -0.1763 -0.2026 -0.0045
  240loPI   C5A 3835   1.795   8.657   8.123  0.2801 -0.0538  0.0845
  240loPI   C6A 3836   1.413   8.827   8.106  0.1742 -0.2658  0.2411
  240loPI   C1B 3837   1.826   8.526   9.590 -0.0192 -0.0537 -0.0889
  240loPI   C2B 3838   1.955   8.630   9.210 -0.4060  0.2827  0.2009
  240loPI   C3B 3839   1.693   8.643   8.792  0.2673  0.1479 -0.1723
  240loPI   C4B 3840   1.404   8.847   8.779  0.0300 -0.1267 -0.1626
  241loPI    C1 3841  12.668  10.604  11.066  0.0021  0.1061  0.0623
  241loPI    C2 3842  12.364  10.380  11.199 -0.0782  0.0561 -0.1993
  241loPI    C3 3843  12.706  10.395  11.405 -0.2236  0.0369  0.0472
  241loPI   PO4 3844  12.628  10.584  10.748  0.1000 -0.5468 -0.3256
  241loPI   GL1 3845  12.563  10.542  10.404  0.2056  0.2323  0.1873
  241loPI   GL2 3846  12.823  10.668  10.201 -0.2812  0.1765 -0.1058
  241loPI   C1A 3847  12.592  10.316   9.976 -0.2238  0.0656  0.1886
  241loPI   C2A 3848  12.840  10.087   9.675  0.0066  0.1635 -0.0212
  241loPI   C3A 3849  12.650   9.957   9.304 -0.3108  0.2164 -0.1651
  241loPI   C4A 3850  12.525   9.839   8.915 -0.1713 -0.0492  0.1162
  241loPI   C5A 3851  12.267   9.566   8.540 -0.2849  0.1180 -0.1389
  241loPI   C6A 3852  12.071   9.254   8.262  0.0305  0.2808  0.3116
  241loPI   C1B 3853  12.798  10.728   9.782  0.0548 -0.0037  0.2256
  241loPI   C2B 3854  12.680  10.762   9.327  0.3863 -0.0286 -0.0620
  241loPI   C3B 3855  12.829  10.884   9.053  0.1646 -0.1346 -0.0819
  241loPI   C4B 3856  12.630  10.912   8.720 -0.1523 -0.0671  0.2546
  242loPI    C1 3857   7.442   9.585  10.646 -0.1632 -0.0893 -0.1653
  242loPI    C2 3858   7.310   9.712  11.002 -0.0616  0.4196 -0.3005
  242loPI    C3 3859   7.694   9.609  10.956 -0.1320  0.1021 -0.2040
  242loPI   PO4 3860   7.315   9.420  10.558 -0.1678 -0.2708  0.1741
  242loPI   GL1 3861   7.225   9.537  10.176  0.1973 -0.1033 -0.0145
  242loPI   GL2 3862   7.270   9.803  10.133 -0.1188  0.1946 -0.0470
  242loPI   C1A 3863   7.052   9.425   9.834 -0.0220 -0.2649  0.0800
  242loPI   C2A 3864   6.923   9.155   9.450 -0.1441  0.1780 -0.0545
  242loPI   C3A 3865   6.986   8.852   9.194  0.0762 -0.0030 -0.4510
  242loPI   C4A 3866   7.094   8.448   9.053  0.0453 -0.1144 -0.0263
  242loPI   C5A 3867   7.196   8.081   8.835  0.0248 -0.1148 -0.1122
  242loPI   C6A 3868   7.124   7.828   8.472 -0.1295  0.2274  0.1746
  242loPI   C1B 3869   6.963   9.990   9.853 -0.0227  0.2130  0.1832
  242loPI   C2B 3870   7.090  10.065   9.397  0.3530  0.0108  0.2482
  242loPI   C3B 3871   7.034  10.027   8.929  0.1993 -0.1175  0.2250
  242loPI   C4B 3872   7.071  10.057   8.522 -0.1215 -0.2654 -0.0745
  243loPI    C1 3873   8.788   3.889  10.548 -0.0032 -0.2426 -0.0665
  243loPI    C2 3874   9.139   3.970  10.721 -0.1782 -0.0558  0.2089
  243loPI    C3 3875   8.922   4.266  10.561 -0.1507 -0.1890 -0.0798
  243loPI   PO4 3876   8.836   3.702  10.351  0.2157 -0.0717  0.0831
  243loPI   GL1 3877   8.787   3.532   9.945 -0.0447  0.0459  0.2967
  243loPI   GL2 3878   9.120   3.502   9.981  0.0552  0.2409  0.1065
  243loPI   C1A 3879   8.364   3.618   9.732 -0.4206  0.0185 -0.1601
  243loPI   C2A 3880   8.056   3.657   9.420  0.1099  0.1363  0.0474
  243loPI   C3A 3881   8.131   3.807   9.060 -0.2683 -0.2116 -0.4466
  243loPI   C4A 3882   7.780   4.002   8.778 -0.1492 -0.1577 -0.0075
  243loPI   C5A 3883   7.738   4.422   8.409 -0.2387 -0.1323 -0.1616
  243loPI   C6A 3884   7.817   5.028   8.334  0.0467  0.2010  0.1402
  243loPI   C1B 3885   9.136   3.528   9.494 -0.0674  0.0573 -0.0409
  243loPI   C2B 3886   9.220   3.577   9.108 -0.3053 -0.0647  0.3131
  243loPI   C3B 3887   9.146   3.594   8.734  0.0127 -0.3632 -0.0716
  243loPI   C4B 3888   8.998   3.697   8.374 -0.2408  0.2357  0.3162
  244loPI    C1 3889   9.379   4.492  10.349  0.1007 -0.2523  0.0269
  244loPI    C2 3890   9.387   4.422  10.743 -0.0941 -0.0915  0.0608
  244loPI    C3 3891   9.218   4.756  10.603  0.1646 -0.0448 -0.1462
  244loPI   PO4 3892   9.323   4.295  10.229  0.0954  0.0112 -0.0666
  244loPI   GL1 3893   9.041   4.019  10.061 -0.1742 -0.0770  0.1231
  244loPI   GL2 3894   9.178   3.965   9.847 -0.2349  0.1418 -0.0300
  244loPI   C1A 3895   8.971   4.367   9.750  0.3475 -0.3068 -0.0068
  244loPI   C2A 3896   9.229   4.460   9.300 -0.2660 -0.0613  0.0055
  244loPI   C3A 3897   9.406   4.497   8.784  0.1132  0.2422  0.2707
  244loPI   C4A 3898   9.489   4.511   8.317 -0.0690 -0.1136  0.2056
  244loPI   C5A 3899   9.476   4.112   8.026 -0.0013 -0.0106  0.0660
  244loPI   C6A 3900   9.231   3.840   7.760 -0.2823  0.2981  0.1744
  244loPI   C1B 3901   9.231   4.010   9.430 -0.1328 -0.0774 -0.0663
  244loPI   C2B 3902   9.311   4.078   9.020  0.1002  0.1406 -0.0556
  244loPI   C3B 3903   9.423   4.014   8.557  0.0011  0.1292  0.1315
  244loPI   C4B 3904   9.842   3.834   8.339 -0.1452  0.2788 -0.0923
  245loPI    C1 3905   6.958  14.088  10.928 -0.3037  0.0975  0.0042
  245loPI    C2 3906   6.652  14.343  10.896 -0.2515  0.1335 -0.2280
  245loPI    C3 3907   6.872  14.255  10.575 -0.1247 -0.0258 -0.0990
  245loPI   PO4 3908   6.875  13.805  10.963  0.2200 -0.1110 -0.0754
  245loPI   GL1 3909   6.764  13.453  10.658 -0.2254  0.1440  0.0885
  245loPI   GL2 3910   6.500  13.244  10.585  0.2312  0.1502  0.1387
  245loPI   C1A 3911   6.775  13.613  10.180  0.0690 -0.3583  0.2091
  245loPI   C2A 3912   6.744  13.676   9.734 -0.0546 -0.1288 -0.0454
  245loPI   C3A 3913   6.759  14.029   9.375  0.0982  0.1888 -0.2965
  245loPI   C4A 3914   6.730  14.172   8.872 -0.0238  0.0859  0.1114
  245loPI   C5A 3915   6.581  14.339   8.498  0.2007 -0.3652 -0.2086
  245loPI   C6A 3916   6.184  14.275   8.269 -0.0917  0.0801 -0.0278
  245loPI   C1B 3917   6.515  13.144  10.067  0.0792 -0.1254 -0.0113
  245loPI   C2B 3918   6.427  13.221   9.620 -0.0153  0.0592  0.0088
  245loPI   C3B 3919   6.425  13.406   9.268  0.0224  0.1901 -0.1062
  245loPI   C4B 3920   6.479  13.729   9.005 -0.0468 -0.0550 -0.4099
  246loPI    C1 3921  16.485  13.459  10.818  0.1333 -0.0091  0.2925
  246loPI    C2 3922  16.150  13.408  11.031 -0.0339 -0.3081 -0.0328
  246loPI    C3 3923  16.494  13.249  11.159 -0.0583 -0.1803  0.1946
  246loPI   PO4 3924  16.392  13.705  10.653  0.1917  0.3275 -0.1872
  246loPI   GL1 3925  16.515  13.738  10.213  0.0700  0.1548 -0.2144
  246loPI   GL2 3926  16.559  13.401  10.290  0.0482  0.0310 -0.1155
  246loPI   C1A 3927  16.242  13.793   9.915  0.1589 -0.1431 -0.1263
  246loPI   C2A 3928  16.133  13.885   9.501 -0.3284 -0.1003 -0.0151
  246loPI   C3A 3929  16.078  14.012   9.129  0.3249  0.0854 -0.1454
  246loPI   C4A 3930  16.056  14.043   8.703 -0.1501  0.3886  0.0180
  246loPI   C5A 3931  16.135  14.043   8.313  0.1873 -0.0646 -0.1465
  246loPI   C6A 3932  15.952  14.156   7.898 -0.1718 -0.2908 -0.0530
  246loPI   C1B 3933  16.724  13.408   9.788 -0.3616 -0.0293 -0.2542
  246loPI   C2B 3934  16.707  13.514   9.385 -0.2074 -0.3275 -0.1010
  246loPI   C3B 3935  16.462  13.589   8.995 -0.2316  0.0654  0.1120
  246loPI   C4B 3936  16.409  13.488   8.606 -0.1989  0.2227  0.1655
  247loPI    C1 3937  11.385  14.612  11.230 -0.2266 -0.1444  0.2113
  247loPI    C2 3938  11.196  14.956  11.307  0.1883  0.1074  0.1319
  247loPI    C3 3939  11.136  14.639  11.542 -0.5262  0.0967 -0.0406
  247loPI   PO4 3940  11.491  14.760  10.998  0.3618  0.2275 -0.0186
  247loPI   GL1 3941  11.505  14.697  10.572 -0.1541  0.0516  0.1921
  247loPI   GL2 3942  11.325  14.850  10.421  0.0230 -0.0106  0.1032
  247loPI   C1A 3943  11.699  14.722  10.177 -0.1771 -0.0451  0.0424
  247loPI   C2A 3944  11.978  14.555   9.939  0.2898  0.1594  0.2546
  247loPI   C3A 3945  11.930  14.473   9.467  0.0997 -0.2530  0.2016
  247loPI   C4A 3946  11.576  14.399   9.192  0.0910 -0.0664  0.1494
  247loPI   C5A 3947  11.133  14.636   8.977  0.1280 -0.0675 -0.2428
  247loPI   C6A 3948  10.869  14.421   8.678 -0.1387 -0.0173 -0.1000
  247loPI   C1B 3949  11.020  14.892   9.973 -0.4018 -0.0252 -0.0562
  247loPI   C2B 3950  11.045  14.948   9.598  0.0520  0.1577 -0.1171
  247loPI   C3B 3951  11.025  15.135   9.212 -0.0145  0.0285  0.1396
  247loPI   C4B 3952  10.913  15.064   8.792  0.2492  0.0805 -0.1260
  248loPI    C1 3953   2.938   0.317  10.768  0.1936 -0.3051 -0.2791
  248loPI    C2 3954   3.171   0.378  11.087 -0.0601  0.1659 -0.1746
  248loPI    C3 3955   3.336   0.314  10.728  0.2256 -0.0576 -0.0079
  248loPI   PO4 3956   2.705   0.121  10.901 -0.0899  0.1469  0.2478
  248loPI   GL1 3957   2.255   0.145  10.868  0.1433  0.3283  0.0917
  248loPI   GL2 3958   2.266  -0.148  10.732 -0.2092  0.0014  0.2269
  248loPI   C1A 3959   2.142   0.239  10.413  0.0225  0.1391 -0.0643
  248loPI   C2A 3960   2.058   0.327   9.904 -0.0298 -0.3004  0.0902
  248loPI   C3A 3961   2.029   0.417   9.432 -0.0512  0.1242  0.2001
  248loPI   C4A 3962   2.001   0.344   8.980 -0.0524 -0.1122  0.0764
  248loPI   C5A 3963   2.242   0.279   8.643 -0.1912 -0.0047 -0.0536
  248loPI   C6A 3964   2.629   0.032   8.550  0.2445 -0.2337 -0.0577
  248loPI   C1B 3965   1.958  -0.248  10.286  0.2677 -0.1698  0.0453
  248loPI   C2B 3966   1.873  -0.139   9.947 -0.0771  0.1344 -0.0299
  248loPI   C3B 3967   1.887  -0.103   9.559  0.0964 -0.4420  0.2249
  248loPI   C4B 3968   1.795  -0.158   9.146  0.1331 -0.1049  0.1710
  249loPI    C1 3969   9.299   1.802  10.718 -0.2319 -0.1570 -0.0317
  249loPI    C2 3970   9.140   2.114  10.912  0.0124  0.0244 -0.1199
  249loPI    C3 3971   9.438   1.906  11.078 -0.0229 -0.0454 -0.1435
  249loPI   PO4 3972   9.104   1.617  10.588 -0.2664  0.0347  0.0664
  249loPI   GL1 3973   9.143   1.749  10.158  0.2063  0.0351  0.4041
  249loPI   GL2 3974   9.340   1.910  10.032 -0.0730  0.0882 -0.1295
  249loPI   C1A 3975   8.905   1.453   9.968 -0.1222 -0.0605  0.0298
  249loPI   C2A 3976   8.909   1.487   9.493  0.1521  0.0330 -0.0753
  249loPI   C3A 3977   8.950   1.388   9.097  0.0551 -0.1777 -0.1736
  249loPI   C4A 3978   9.085   1.308   8.764  0.0810  0.0762 -0.1140
  249loPI   C5A 3979   9.191   1.210   8.277 -0.4609 -0.0309  0.1510
  249loPI   C6A 3980   9.316   1.403   7.831 -0.4673 -0.1078  0.0279
  249loPI   C1B 3981   9.370   1.753   9.588 -0.1877  0.0865  0.0186
  249loPI   C2B 3982   9.360   1.702   9.164 -0.2634 -0.1445 -0.1143
  249loPI   C3B 3983   9.414   1.634   8.623 -0.2462 -0.2335  0.2827
  249loPI   C4B 3984   9.422   1.685   8.272 -0.4411 -0.1566 -0.3111
  250loPI    C1 3985   8.225  11.551  10.741  0.3278  0.0046  0.0288
  250loPI    C2 3986   7.890  11.680  10.917  0.1570 -0.1466 -0.1803
  250loPI    C3 3987   8.109  11.393  11.090  0.0676 -0.1931 -0.1436
  250loPI   PO4 3988   8.137  11.580  10.519 -0.3432 -0.0740 -0.0166
  250loPI   GL1 3989   7.692  11.636  10.466 -0.0056 -0.2151 -0.3598
  250loPI   GL2 3990   7.396  11.863  10.453 -0.3725  0.1479  0.0600
  250loPI   C1A 3991   7.851  11.817   9.989  0.0908 -0.1162 -0.2105
  250loPI   C2A 3992   7.778  11.848   9.551 -0.0063  0.0818 -0.1616
  250loPI   C3A 3993   7.862  11.890   9.010 -0.0220 -0.2411 -0.2750
  250loPI   C4A 3994   8.019  12.083   8.665 -0.0405 -0.0092 -0.1134
  250loPI   C5A 3995   8.134  12.321   8.382 -0.0402 -0.2616  0.0154
  250loPI   C6A 3996   7.880  12.417   7.983 -0.0249 -0.2928  0.0230
  250loPI   C1B 3997   7.326  11.891   9.989  0.2396  0.1100 -0.0524
  250loPI   C2B 3998   7.274  11.919   9.555 -0.2005  0.2840  0.3490
  250loPI   C3B 3999   7.383  11.898   9.115  0.0874 -0.0429  0.3614
  250loPI   C4B 4000   7.491  12.141   8.737  0.1072  0.0205 -0.0405
  251loPI    C1 4001  16.772  10.177  10.390 -0.0241  0.1302  0.1513
  251loPI    C2 4002  17.055   9.907  10.476 -0.1278 -0.0127  0.0464
  251loPI    C3 4003  17.032  10.247  10.686  0.1227  0.0004  0.0545
  251loPI   PO4 4004  16.782  10.197  10.081  0.0041  0.0363  0.0659
  251loPI   GL1 4005  16.912  10.493   9.713  0.2410 -0.1981 -0.0018
  251loPI   GL2 4006  17.144  10.681   9.658 -0.0595  0.1086  0.0881
  251loPI   C1A 4007  17.045  10.220   9.307 -0.2655 -0.0251  0.3300
  251loPI   C2A 4008  17.042  10.140   8.872 -0.3251  0.1723 -0.1611
  251loPI   C3A 4009  16.842  10.005   8.538  0.4035 -0.0491  0.0566
  251loPI   C4A 4010  16.965  10.025   8.108 -0.1181  0.0677  0.3279
  251loPI   C5A 4011  16.775  10.177   7.799 -0.1722 -0.0609 -0.1832
  251loPI   C6A 4012  16.812  10.505   7.607 -0.1200 -0.2069 -0.2070
  251loPI   C1B 4013  16.997  10.711   9.210 -0.2086 -0.2106  0.0652
  251loPI   C2B 4014  17.012  10.745   8.811  0.4162 -0.0621  0.1159
  251loPI   C3B 4015  17.018  10.869   8.347 -0.0090 -0.0566 -0.0668
  251loPI   C4B 4016  17.126  10.576   7.995 -0.0633  0.2217  0.1175
  252loPI    C1 4017  15.386   1.682  11.048 -0.1663  0.1904 -0.1414
  252loPI    C2 4018  15.603   1.989  11.186  0.0568 -0.1192  0.2169
  252loPI    C3 4019  15.732   1.778  10.871 -0.0585  0.1016  0.0184
  252loPI   PO4 4020  15.121   1.779  10.946  0.1598 -0.0534  0.1485
  252loPI   GL1 4021  14.992   1.865  10.561  0.2160  0.1883 -0.1474
  252loPI   GL2 4022  14.916   2.150  10.386  0.3246 -0.3771  0.0191
  252loPI   C1A 4023  14.693   1.729  10.198  0.0814 -0.4087 -0.0175
  252loPI   C2A 4024  14.766   1.317   9.968 -0.0254 -0.3661  0.0191
  252loPI   C3A 4025  14.796   1.335   9.536  0.1014  0.3270  0.3941
  252loPI   C4A 4026  14.760   1.266   9.045  0.0029  0.0756 -0.0891
  252loPI   C5A 4027  14.872   1.347   8.632  0.0599  0.1550  0.1119
  252loPI   C6A 4028  15.250   1.198   8.305 -0.0034 -0.1868 -0.4690
  252loPI   C1B 4029  14.952   2.140   9.966 -0.2756 -0.1764 -0.0445
  252loPI   C2B 4030  14.704   1.975   9.610  0.3051  0.0742 -0.0069
  252loPI   C3B 4031  14.843   1.894   9.230 -0.0447  0.0497  0.0639
  252loPI   C4B 4032  15.054   1.742   8.916 -0.0117 -0.0952  0.3118
  253loPI    C1 4033  14.334  10.356  10.604  0.0204 -0.1470  0.0663
  253loPI    C2 4034  14.062  10.242  10.334  0.0494  0.0422 -0.0445
  253loPI    C3 4035  14.016  10.143  10.718  0.0459 -0.2927 -0.1286
  253loPI   PO4 4036  14.407  10.615  10.487 -0.3079 -0.4236 -0.0398
  253loPI   GL1 4037  14.207  10.767  10.100  0.1018 -0.1326 -0.1749
  253loPI   GL2 4038  14.137  11.081  10.243  0.1931  0.1532  0.0829
  253loPI   C1A 4039  14.358  10.583   9.804 -0.0360 -0.0980  0.5641
  253loPI   C2A 4040  14.504  10.526   9.373 -0.0837  0.1020  0.1263
  253loPI   C3A 4041  14.353  10.555   9.017  0.0299  0.2182 -0.0668
  253loPI   C4A 4042  14.287  10.611   8.549  0.1583 -0.2448 -0.2831
  253loPI   C5A 4043  14.143  10.700   8.137  0.1883 -0.0643 -0.1524
  253loPI   C6A 4044  13.839  10.827   7.962 -0.0321 -0.1475  0.0956
  253loPI   C1B 4045  14.096  11.046   9.740  0.0688 -0.1489 -0.0560
  253loPI   C2B 4046  14.086  11.026   9.292 -0.0612 -0.1324  0.2237
  253loPI   C3B 4047  14.127  11.009   8.810  0.2142  0.1057 -0.2925
  253loPI   C4B 4048  14.041  11.071   8.505  0.1599 -0.1709  0.1036
  254loPI    C1 4049  15.646   4.663  10.740 -0.1272  0.1145 -0.1395
  254loPI    C2 4050  15.319   4.443  10.673 -0.2712  0.2586  0.0765
  254loPI    C3 4051  15.462   4.480  11.044  0.1006  0.0466 -0.0402
  254loPI   PO4 4052  15.730   4.826  10.666 -0.1610  0.0067 -0.0170
  254loPI   GL1 4053  15.521   4.924  10.337  0.1473  0.0861  0.2567
  254loPI   GL2 4054  15.438   5.220  10.225  0.1162  0.1254  0.0633
  254loPI   C1A 4055  15.544   4.726  10.012  0.1969  0.2042  0.0358
  254loPI   C2A 4056  15.630   4.592   9.622  0.1419  0.4642 -0.4077
  254loPI   C3A 4057  15.489   4.641   9.316 -0.0873  0.2491  0.0351
  254loPI   C4A 4058  15.605   4.734   8.932  0.4212  0.1448  0.4304
  254loPI   C5A 4059  15.469   4.586   8.513 -0.2263  0.0274 -0.0156
  254loPI   C6A 4060  15.167   4.443   8.289  0.2523  0.0599  0.2647
  254loPI   C1B 4061  15.414   5.158   9.739  0.2304 -0.2454 -0.1911
  254loPI   C2B 4062  15.257   5.224   9.328  0.0595  0.3448  0.0655
  254loPI   C3B 4063  15.272   5.203   8.983 -0.1579 -0.3235  0.1172
  254loPI   C4B 4064  15.166   5.337   8.627  0.1565  0.0144 -0.0458
  255loPI    C1 4065  14.898  16.982  11.208  0.0391 -0.0351  0.0099
  255loPI    C2 4066  15.276  17.085  11.287  0.0991 -0.2572  0.0191
  255loPI    C3 4067  14.975  17.295  11.446  0.2169 -0.0512 -0.0253
  255loPI   PO4 4068  14.956  16.958  10.919  0.1023 -0.1534  0.3222
  255loPI   GL1 4069  14.566  16.887  10.623 -0.1899 -0.0418 -0.1446
  255loPI   GL2 4070  14.790  17.223  10.542  0.1220 -0.0316  0.1630
  255loPI   C1A 4071  14.566  16.746  10.201 -0.4370 -0.0591 -0.1140
  255loPI   C2A 4072  14.491  16.677   9.788 -0.1213  0.2686 -0.3396
  255loPI   C3A 4073  14.479  16.814   9.423  0.4177  0.1278 -0.0197
  255loPI   C4A 4074  14.482  16.794   9.045 -0.1634  0.0909  0.1466
  255loPI   C5A 4075  14.599  16.847   8.636  0.1679 -0.0501  0.0382
  255loPI   C6A 4076  15.010  17.016   8.450 -0.0213  0.2006 -0.1296
  255loPI   C1B 4077  14.645  17.225  10.160 -0.0186  0.0005  0.1819
  255loPI   C2B 4078  14.618  17.136   9.752 -0.1457 -0.1054 -0.2641
  255loPI   C3B 4079  14.546  17.333   9.308  0.2188 -0.0819 -0.0693
  255loPI   C4B 4080  14.800  17.239   8.884 -0.0125 -0.0952  0.4078
  256loPI    C1 4081   1.641   0.828  11.021  0.1878  0.1041 -0.0755
  256loPI    C2 4082   1.549   0.714  11.393  0.1657 -0.1011 -0.1426
  256loPI    C3 4083   1.678   1.086  11.324 -0.3793  0.1212 -0.0102
  256loPI   PO4 4084   1.455   0.792  10.885  0.1504  0.0193  0.0425
  256loPI   GL1 4085   1.402   0.840  10.559 -0.1458 -0.1901 -0.2039
  256loPI   GL2 4086   1.733   0.596  10.546  0.2242 -0.1536  0.1102
  256loPI   C1A 4087   1.273   0.667  10.238  0.1241  0.0502 -0.0297
  256loPI   C2A 4088   1.144   0.649   9.759 -0.0940 -0.1052 -0.1833
  256loPI   C3A 4089   1.155   0.613   9.282 -0.0507 -0.1365 -0.0358
  256loPI   C4A 4090   0.850   0.878   9.144 -0.0482  0.1347 -0.0875
  256loPI   C5A 4091   0.736   0.989   8.745 -0.2025  0.2636 -0.0831
  256loPI   C6A 4092   0.544   0.975   8.362 -0.1218  0.0251 -0.0533
  256loPI   C1B 4093   1.744   0.657  10.002 -0.1140  0.0738 -0.2660
  256loPI   C2B 4094   1.650   0.668   9.632  0.0517 -0.3310 -0.0470
  256loPI   C3B 4095   1.606   0.701   9.185  0.1526 -0.1916 -0.0983
  256loPI   C4B 4096   1.663   1.139   9.047 -0.1160 -0.0878 -0.1421
  257loPI    C1 4097  14.716   2.120  11.047  0.0315 -0.0206  0.0917
  257loPI    C2 4098  14.542   2.306  11.355  0.0732  0.1115  0.0364
  257loPI    C3 4099  14.581   1.908  11.358  0.0487  0.1095  0.1887
  257loPI   PO4 4100  14.664   2.218  10.775 -0.0285 -0.2059 -0.2519
  257loPI   GL1 4101  14.641   2.572  10.585  0.1384 -0.0300  0.0578
  257loPI   GL2 4102  14.752   2.826  10.634 -0.1289 -0.3633 -0.0317
  257loPI   C1A 4103  14.298   2.859  10.339 -0.3465  0.1444  0.1260
  257loPI   C2A 4104  14.155   2.754   9.900 -0.0131 -0.0492 -0.0642
  257loPI   C3A 4105  14.313   2.712   9.412 -0.1700  0.0531  0.0352
  257loPI   C4A 4106  14.342   2.849   8.906  0.1044  0.2121  0.1555
  257loPI   C5A 4107  14.111   2.763   8.486 -0.2949 -0.3067  0.0030
  257loPI   C6A 4108  14.253   2.579   8.048  0.0790 -0.1818  0.2384
  257loPI   C1B 4109  14.941   3.001  10.216  0.0207 -0.0930  0.0464
  257loPI   C2B 4110  15.064   3.168   9.834 -0.0103 -0.0074  0.2887
  257loPI   C3B 4111  15.280   3.083   9.493 -0.3054  0.1381  0.0726
  257loPI   C4B 4112  15.318   2.761   9.172 -0.1499 -0.0320  0.1648
  258loPI    C1 4113   4.772   1.007  10.987 -0.1584  0.0307 -0.0797
  258loPI    C2 4114   5.047   1.290  11.056 -0.0702 -0.0770  0.0135
  258loPI    C3 4115   4.984   1.002  11.326 -0.3830  0.0337  0.0630
  258loPI   PO4 4116   4.768   0.986  10.824  0.1317  0.1971 -0.1582
  258loPI   GL1 4117   4.386   1.019  10.517  0.0440 -0.0190  0.0705
  258loPI   GL2 4118   4.623   0.917  10.346 -0.0748 -0.0388 -0.1768
  258loPI   C1A 4119   4.102   0.913  10.276 -0.1622 -0.0859 -0.1577
  258loPI   C2A 4120   4.045   0.918   9.897 -0.1047  0.5102  0.0289
  258loPI   C3A 4121   3.946   0.762   9.524  0.2504 -0.2097 -0.0260
  258loPI   C4A 4122   3.887   0.476   9.240  0.0473 -0.0528  0.1594
  258loPI   C5A 4123   3.820   0.347   8.783  0.0308 -0.0364  0.2074
  258loPI   C6A 4124   3.832   0.143   8.436 -0.0643  0.0396 -0.0723
  258loPI   C1B 4125   4.513   0.963   9.945  0.0865  0.1729 -0.1073
  258loPI   C2B 4126   4.496   0.827   9.515  0.0694 -0.3751 -0.0448
  258loPI   C3B 4127   4.314   0.730   9.176 -0.2950 -0.2268  0.1917
  258loPI   C4B 4128   4.276   0.920   8.774 -0.2888 -0.1152  0.1419
  259loPI    C1 4129  12.812   7.647  10.929  0.1991 -0.0669  0.0139
  259loPI    C2 4130  12.461   7.548  11.093  0.0552  0.0011 -0.2469
  259loPI    C3 4131  12.784   7.597  11.324 -0.1114 -0.0400 -0.0026
  259loPI   PO4 4132  12.866   7.406  10.686  0.0819 -0.0581 -0.1049
  259loPI   GL1 4133  12.593   7.358  10.278 -0.1284  0.1408  0.0661
  259loPI   GL2 4134  12.917   7.444  10.191 -0.1384  0.2713 -0.0430
  259loPI   C1A 4135  12.597   7.358   9.805  0.2768 -0.2121 -0.1724
  259loPI   C2A 4136  12.342   7.279   9.488 -0.1413  0.2399  0.1284
  259loPI   C3A 4137  12.359   7.547   9.160  0.2261  0.2173 -0.1144
  259loPI   C4A 4138  12.259   7.337   8.773 -0.2793  0.1921  0.5111
  259loPI   C5A 4139  12.105   7.264   8.442 -0.0713  0.1765  0.2258
  259loPI   C6A 4140  12.081   7.452   8.069  0.1978 -0.2112  0.1982
  259loPI   C1B 4141  13.040   7.601   9.741  0.1542 -0.2758  0.0769
  259loPI   C2B 4142  12.855   7.556   9.352  0.0436  0.1749  0.0319
  259loPI   C3B 4143  12.901   7.499   9.089  0.0522 -0.0242 -0.0097
  259loPI   C4B 4144  12.977   7.479   8.719  0.0160 -0.0366 -0.0761
  260loPI    C1 4145  14.706   6.547  10.902 -0.2246 -0.0976 -0.2411
  260loPI    C2 4146  14.673   6.209  11.113  0.0461  0.1081  0.1417
  260loPI    C3 4147  14.734   6.557  11.301 -0.1879  0.3679 -0.2502
  260loPI   PO4 4148  14.847   6.409  10.711 -0.1016  0.0918 -0.0342
  260loPI   GL1 4149  14.625   6.267  10.288 -0.1356  0.1209 -0.4479
  260loPI   GL2 4150  14.446   6.464  10.376  0.2031 -0.0093  0.1816
  260loPI   C1A 4151  14.378   5.945  10.019  0.1125 -0.0930 -0.0225
  260loPI   C2A 4152  14.209   5.792   9.695 -0.0998 -0.1353  0.1383
  260loPI   C3A 4153  14.212   5.871   9.187 -0.2998 -0.1843 -0.1196
  260loPI   C4A 4154  14.263   5.964   8.758  0.1385  0.1749  0.3472
  260loPI   C5A 4155  14.104   5.898   8.266  0.0244  0.0603 -0.0547
  260loPI   C6A 4156  13.729   5.646   8.102 -0.1050 -0.0146 -0.1192
  260loPI   C1B 4157  14.287   6.516   9.958  0.1561  0.2223 -0.2303
  260loPI   C2B 4158  14.346   6.308   9.568 -0.0311  0.0936  0.0288
  260loPI   C3B 4159  14.031   6.392   9.198 -0.0096  0.1608 -0.0190
  260loPI   C4B 4160  13.878   6.440   8.728 -0.1862 -0.2644 -0.2674
  261loPI    C1 4161   3.964   0.678  11.218 -0.0997 -0.1133  0.1135
  261loPI    C2 4162   3.661   0.420  11.256 -0.2562  0.0557  0.0298
  261loPI    C3 4163   3.627   0.791  11.401 -0.0662  0.0579  0.0712
  261loPI   PO4 4164   4.051   0.664  11.029 -0.0464 -0.2267 -0.0647
  261loPI   GL1 4165   3.938   0.322  10.703  0.0620  0.1878 -0.0783
  261loPI   GL2 4166   4.085   0.020  10.441 -0.2367  0.0036 -0.0857
  261loPI   C1A 4167   3.736   0.465  10.423 -0.0345 -0.1419  0.3636
  261loPI   C2A 4168   3.740   0.327   9.954 -0.2237  0.2324  0.0089
  261loPI   C3A 4169   3.763  -0.013   9.537  0.2221 -0.0046  0.3917
  261loPI   C4A 4170   3.756  -0.057   9.064 -0.0981  0.2267  0.0107
  261loPI   C5A 4171   3.837  -0.316   8.759  0.0169  0.1303  0.2284
  261loPI   C6A 4172   4.267  -0.159   8.444 -0.0064  0.4715 -0.4410
  261loPI   C1B 4173   4.071  -0.113  10.046 -0.0442 -0.2189  0.0120
  261loPI   C2B 4174   4.119  -0.315   9.739  0.3718 -0.1732  0.1117
  261loPI   C3B 4175   4.105  -0.499   9.240  0.2351  0.0645 -0.2347
  261loPI   C4B 4176   4.331  -0.612   8.838  0.0693  0.1500  0.2122
  262loPI    C1 4177  10.718  16.506  10.699 -0.0515 -0.0049  0.0859
  262loPI    C2 4178  10.867  16.475  11.069  0.1428  0.3336  0.0399
  262loPI    C3 4179  11.062  16.688  10.792  0.0866 -0.0551 -0.3083
  262loPI   PO4 4180  10.480  16.568  10.689  0.1698  0.0052 -0.3346
  262loPI   GL1 4181  10.293  16.885  10.410 -0.1632  0.0503 -0.1739
  262loPI   GL2 4182   9.935  16.829  10.380  0.0882 -0.0292 -0.0542
  262loPI   C1A 4183  10.462  17.069  10.012 -0.0932  0.2524 -0.2481
  262loPI   C2A 4184  10.549  17.124   9.590  0.0926  0.1297 -0.0579
  262loPI   C3A 4185  10.710  17.106   9.207 -0.0564 -0.0127 -0.4124
  262loPI   C4A 4186  10.646  16.987   8.815 -0.1469 -0.0819 -0.1445
  262loPI   C5A 4187  10.545  16.731   8.452 -0.2227  0.0274 -0.0600
  262loPI   C6A 4188  10.775  16.336   8.256 -0.3290  0.0860  0.0207
  262loPI   C1B 4189   9.951  16.719   9.933  0.0527 -0.2450  0.2698
  262loPI   C2B 4190  10.281  16.720   9.652 -0.1301  0.0618 -0.0180
  262loPI   C3B 4191  10.354  16.789   9.210  0.0897 -0.0698 -0.0500
  262loPI   C4B 4192  10.132  16.788   8.759  0.1670  0.3395 -0.1617
  263loPI    C1 4193   1.706   1.878  11.144  0.1114  0.0042 -0.0753
  263loPI    C2 4194   1.337   1.736  11.086 -0.0185  0.3620 -0.1482
  263loPI    C3 4195   1.572   1.573  11.365 -0.2250  0.1225 -0.1101
  263loPI   PO4 4196   1.807   1.849  10.891  0.0225 -0.0531  0.2407
  263loPI   GL1 4197   1.616   1.806  10.605 -0.1068  0.0299 -0.2983
  263loPI   GL2 4198   1.391   1.995  10.362 -0.0475  0.5617  0.0867
  263loPI   C1A 4199   1.684   1.652  10.188 -0.0524  0.1997 -0.1833
  263loPI   C2A 4200   1.869   1.708   9.725 -0.1957  0.0397  0.2734
  263loPI   C3A 4201   2.075   1.500   9.398 -0.2941 -0.1644 -0.1372
  263loPI   C4A 4202   2.048   1.373   8.942 -0.4101 -0.0077 -0.1005
  263loPI   C5A 4203   2.093   1.256   8.547  0.1754 -0.1017 -0.0420
  263loPI   C6A 4204   2.102   1.271   8.155  0.3198  0.2139 -0.0075
  263loPI   C1B 4205   1.438   2.026   9.960 -0.2986 -0.2257  0.0365
  263loPI   C2B 4206   1.381   2.035   9.574  0.0754  0.0862 -0.0054
  263loPI   C3B 4207   1.430   2.031   9.119 -0.1030  0.0208  0.4142
  263loPI   C4B 4208   1.569   2.039   8.676  0.1777  0.0441 -0.0908
  264loPI    C1 4209   0.379  10.489  10.494  0.1047  0.0056  0.0053
  264loPI    C2 4210   0.616  10.169  10.522 -0.0260 -0.0798  0.1527
  264loPI    C3 4211   0.429  10.308  10.847  0.2088  0.2852  0.1370
  264loPI   PO4 4212   0.234  10.473  10.272  0.4229 -0.0931 -0.3404
  264loPI   GL1 4213   0.204  10.797   9.923  0.2798  0.3491  0.0042
  264loPI   GL2 4214   0.273  10.471   9.716  0.2992 -0.0150 -0.3433
  264loPI   C1A 4215   0.071  10.834   9.526  0.0249 -0.2228 -0.1388
  264loPI   C2A 4216  -0.023  10.939   9.044  0.2422 -0.2611 -0.2071
  264loPI   C3A 4217   0.085  10.983   8.688  0.0862 -0.1599  0.0681
  264loPI   C4A 4218  -0.068  10.940   8.174  0.1371  0.0442 -0.1016
  264loPI   C5A 4219  -0.327  10.711   7.901 -0.0865 -0.0937 -0.0445
  264loPI   C6A 4220  -0.615  10.491   7.554  0.0471 -0.1220  0.2566
  264loPI   C1B 4221   0.435  10.493   9.268 -0.0901  0.5227 -0.1405
  264loPI   C2B 4222   0.424  10.729   8.959 -0.1634  0.2353  0.1279
  264loPI   C3B 4223   0.640  10.879   8.629 -0.0947  0.0040  0.1395
  264loPI   C4B 4224   0.885  11.233   8.375 -0.1218  0.1023  0.0288
  265loPI    C1 4225   6.022  15.140  10.913  0.0200  0.0349  0.0955
  265loPI    C2 4226   5.823  14.811  11.023 -0.0128  0.0176 -0.0138
  265loPI    C3 4227   6.081  14.795  10.718  0.2347  0.0152  0.1917
  265loPI   PO4 4228   5.858  15.327  10.821  0.1776 -0.1654 -0.0888
  265loPI   GL1 4229   5.671  15.558  10.456  0.3529 -0.1528  0.0406
  265loPI   GL2 4230   5.563  15.827  10.418 -0.0613 -0.2962 -0.2186
  265loPI   C1A 4231   5.882  15.498   9.981  0.0587 -0.4776 -0.1061
  265loPI   C2A 4232   6.006  15.445   9.472 -0.0908  0.0273 -0.0228
  265loPI   C3A 4233   6.007  15.609   9.041  0.3208  0.1930  0.0788
  265loPI   C4A 4234   5.761  15.820   8.747 -0.1567  0.3636  0.0532
  265loPI   C5A 4235   5.240  15.644   8.565 -0.0154 -0.2294  0.2197
  265loPI   C6A 4236   4.793  15.734   8.654  0.4430  0.1978  0.1284
  265loPI   C1B 4237   5.478  15.806  10.007 -0.0229  0.1654 -0.1756
  265loPI   C2B 4238   5.192  15.533   9.623  0.1135 -0.2353 -0.0245
  265loPI   C3B 4239   4.869  15.450   9.423  0.0635 -0.1983 -0.0357
  265loPI   C4B 4240   4.604  15.308   9.011  0.0171  0.1624  0.3021
  266loPI    C1 4241  12.201   3.768  10.838  0.0745  0.0464  0.3150
  266loPI    C2 4242  12.176   4.098  11.063 -0.1187  0.3334 -0.1145
  266loPI    C3 4243  12.480   4.053  10.808 -0.1446  0.2231 -0.1267
  266loPI   PO4 4244  12.016   3.740  10.746  0.0762 -0.2344  0.2607
  266loPI   GL1 4245  11.743   3.546  10.468  0.2769 -0.1079  0.0785
  266loPI   GL2 4246  11.520   3.773  10.466  0.2879 -0.3627  0.1968
  266loPI   C1A 4247  11.898   3.469   9.990  0.0850  0.1641  0.2406
  266loPI   C2A 4248  11.998   3.528   9.591  0.1109 -0.2232  0.0716
  266loPI   C3A 4249  12.035   3.372   9.241  0.0060  0.0695 -0.2533
  266loPI   C4A 4250  12.021   3.598   8.916 -0.0861  0.1663 -0.1156
  266loPI   C5A 4251  12.084   4.017   8.622 -0.2500 -0.2207  0.0365
  266loPI   C6A 4252  11.738   4.318   8.497  0.1808 -0.0560 -0.0054
  266loPI   C1B 4253  11.495   3.762  10.096 -0.2898 -0.0980 -0.1201
  266loPI   C2B 4254  11.573   3.880   9.716 -0.2848 -0.0807  0.1178
  266loPI   C3B 4255  11.611   3.706   9.244 -0.3492  0.0742 -0.0053
  266loPI   C4B 4256  11.621   3.959   8.884 -0.1613 -0.1352  0.2277
  267loPI    C1 4257  10.655  11.154  11.220  0.0916 -0.2169 -0.0561
  267loPI    C2 4258  10.856  10.976  11.517 -0.0566 -0.1131  0.1092
  267loPI    C3 4259  10.833  11.375  11.502  0.1882 -0.1058 -0.2027
  267loPI   PO4 4260  10.720  11.045  10.969 -0.0228  0.0575 -0.1241
  267loPI   GL1 4261  10.723  10.970  10.539 -0.2385 -0.0637 -0.1740
  267loPI   GL2 4262  10.669  11.262  10.514  0.1010 -0.0797 -0.0973
  267loPI   C1A 4263  10.798  10.994  10.102  0.0843 -0.0744  0.3683
  267loPI   C2A 4264  10.899  10.829   9.651  0.2057  0.0143  0.2704
  267loPI   C3A 4265  10.988  10.888   9.120  0.0612  0.1535  0.1212
  267loPI   C4A 4266  11.049  11.071   8.720 -0.1147  0.0250  0.2168
  267loPI   C5A 4267  11.342  11.050   8.419 -0.1618  0.0955  0.1033
  267loPI   C6A 4268  11.768  11.166   8.222  0.2116  0.1378  0.0093
  267loPI   C1B 4269  10.515  11.392  10.248 -0.0894  0.2117  0.1000
  267loPI   C2B 4270  10.425  11.328   9.776  0.0721  0.0975 -0.2945
  267loPI   C3B 4271  10.664  11.179   9.406  0.1296  0.1283  0.1098
  267loPI   C4B 4272  11.143  11.239   9.402 -0.1424  0.1558 -0.1982
  268loPI    C1 4273   7.054   2.365  11.021  0.0768 -0.0852 -0.1098
  268loPI    C2 4274   6.977   1.980  11.098 -0.0372 -0.0341  0.0364
  268loPI    C3 4275   7.322   2.143  11.218 -0.0627 -0.0467  0.1276
  268loPI   PO4 4276   7.018   2.475  10.727  0.2635  0.0199 -0.2743
  268loPI   GL1 4277   7.176   2.638  10.300 -0.1980  0.0518 -0.1231
  268loPI   GL2 4278   6.998   2.864  10.137  0.0477  0.0519 -0.0640
  268loPI   C1A 4279   7.323   2.501   9.859 -0.3527 -0.0098  0.0089
  268loPI   C2A 4280   7.306   2.551   9.431  0.2927 -0.2054  0.0555
  268loPI   C3A 4281   7.521   2.693   9.071  0.0110  0.0782  0.0186
  268loPI   C4A 4282   7.815   2.794   8.725  0.1234 -0.0857 -0.2077
  268loPI   C5A 4283   7.856   2.807   8.383 -0.1401 -0.2029 -0.0381
  268loPI   C6A 4284   7.836   2.813   7.890 -0.2721 -0.2840 -0.0105
  268loPI   C1B 4285   6.889   2.658   9.752  0.4638 -0.2226 -0.1193
  268loPI   C2B 4286   6.807   2.748   9.393  0.1855  0.1189  0.4742
  268loPI   C3B 4287   6.992   2.726   9.052 -0.0817  0.2228 -0.1533
  268loPI   C4B 4288   7.000   2.766   8.591  0.0845  0.2503 -0.1173
  269loPI    C1 4289  17.076  14.885  11.019  0.1457  0.1533  0.0893
  269loPI    C2 4290  17.222  15.164  11.265  0.1549  0.0154  0.2418
  269loPI    C3 4291  16.916  14.935  11.382  0.2022 -0.0956  0.1504
  269loPI   PO4 4292  17.032  15.008  10.791 -0.1304 -0.2304 -0.1458
  269loPI   GL1 4293  17.234  15.147  10.415 -0.2817  0.0487  0.0616
  269loPI   GL2 4294  17.582  15.264  10.353  0.0527 -0.2116 -0.1006
  269loPI   C1A 4295  16.964  15.097  10.136  0.4454 -0.1479 -0.0221
  269loPI   C2A 4296  17.013  15.097   9.696  0.0812 -0.0145  0.0528
  269loPI   C3A 4297  16.821  15.193   9.271 -0.0167 -0.0113  0.1325
  269loPI   C4A 4298  16.900  15.117   8.901 -0.0404  0.0150 -0.0881
  269loPI   C5A 4299  17.102  15.174   8.488 -0.0488 -0.1533  0.3978
  269loPI   C6A 4300  17.251  15.083   8.093  0.2678  0.3121  0.4504
  269loPI   C1B 4301  17.511  15.228   9.900  0.1559  0.1061  0.1625
  269loPI   C2B 4302  17.473  15.167   9.473  0.0478 -0.3106 -0.2044
  269loPI   C3B 4303  17.375  15.247   9.084  0.2622 -0.0636 -0.0230
  269loPI   C4B 4304  17.462  15.415   8.773 -0.0916  0.1510 -0.0706
  270loPI    C1 4305   9.927   1.739  10.858  0.1472  0.1698 -0.0215
  270loPI    C2 4306   9.815   1.505  11.162  0.1324 -0.0948 -0.2276
  270loPI    C3 4307  10.029   1.835  11.233  0.0397 -0.0974  0.0785
  270loPI   PO4 4308   9.998   1.561  10.690  0.0634 -0.0569 -0.0852
  270loPI   GL1 4309  10.108   1.500  10.258 -0.0684  0.0708 -0.1075
  270loPI   GL2 4310   9.921   1.399  10.006 -0.6404 -0.0808  0.1371
  270loPI   C1A 4311  10.248   1.851  10.024  0.0150  0.2081  0.0354
  270loPI   C2A 4312  10.146   1.988   9.631  0.1063 -0.4659 -0.1259
  270loPI   C3A 4313  10.046   1.999   9.297 -0.5720 -0.0078  0.0630
  270loPI   C4A 4314  10.083   2.294   8.989  0.1123  0.2217 -0.2198
  270loPI   C5A 4315  10.288   2.485   8.522 -0.1377  0.3787 -0.0437
  270loPI   C6A 4316  10.470   2.871   8.533 -0.4663  0.2181  0.0249
  270loPI   C1B 4317   9.864   1.527   9.709  0.2889  0.0763 -0.1734
  270loPI   C2B 4318   9.835   1.541   9.314 -0.1096 -0.2085  0.1682
  270loPI   C3B 4319   9.967   1.448   8.831  0.2921  0.0126 -0.2586
  270loPI   C4B 4320   9.932   1.524   8.388  0.2072  0.0418 -0.0080
  271loPI    C1 4321  16.125  16.382  11.077  0.2906  0.1368  0.0837
  271loPI    C2 4322  16.219  16.204  11.423  0.1448  0.0040  0.0564
  271loPI    C3 4323  16.236  16.603  11.391  0.4067  0.0013  0.1391
  271loPI   PO4 4324  16.240  16.270  10.891  0.0253 -0.1964 -0.0750
  271loPI   GL1 4325  16.607  16.114  10.595 -0.1464  0.4785 -0.1315
  271loPI   GL2 4326  16.714  16.423  10.314  0.1646 -0.0211  0.0730
  271loPI   C1A 4327  16.605  15.973  10.159  0.0481 -0.0028  0.1464
  271loPI   C2A 4328  16.604  15.967   9.706  0.3454  0.2075  0.1590
  271loPI   C3A 4329  16.707  15.941   9.175 -0.2238  0.2221  0.1901
  271loPI   C4A 4330  16.699  16.042   8.730 -0.0436 -0.2186  0.2647
  271loPI   C5A 4331  16.906  16.124   8.257  0.1188 -0.1037  0.2715
  271loPI   C6A 4332  17.302  15.985   8.013 -0.2066 -0.2095  0.1079
  271loPI   C1B 4333  16.787  16.530   9.894 -0.3806  0.2776  0.1081
  271loPI   C2B 4334  16.787  16.416   9.485  0.2274 -0.0486  0.2901
  271loPI   C3B 4335  16.639  16.503   8.975 -0.0665  0.0404  0.0767
  271loPI   C4B 4336  16.883  16.590   8.571 -0.0881 -0.0934  0.0124
  272loPI    C1 4337   1.220  12.654  10.709  0.1083 -0.0910 -0.0866
  272loPI    C2 4338   0.976  12.529  11.001  0.1640 -0.0266 -0.0117
  272loPI    C3 4339   0.867  12.490  10.618 -0.0993  0.2798  0.0284
  272loPI   PO4 4340   1.479  12.440  10.748 -0.2073  0.0072 -0.3069
  272loPI   GL1 4341   1.760  12.373  10.361 -0.2303 -0.5493  0.1625
  272loPI   GL2 4342   1.982  12.442  10.185  0.0384 -0.3677 -0.0094
  272loPI   C1A 4343   1.574  12.222   9.981 -0.1670 -0.0262  0.0351
  272loPI   C2A 4344   1.386  12.380   9.632 -0.0798  0.1942  0.2163
  272loPI   C3A 4345   1.487  12.511   9.205 -0.0255  0.0985 -0.1055
  272loPI   C4A 4346   1.491  12.607   8.733 -0.1150  0.1910 -0.1441
  272loPI   C5A 4347   1.483  12.387   8.471 -0.2136 -0.4405 -0.0928
  272loPI   C6A 4348   1.424  12.366   7.955 -0.1497  0.0697  0.2645
  272loPI   C1B 4349   1.952  12.484   9.751  0.0721  0.1467  0.0015
  272loPI   C2B 4350   1.944  12.490   9.319 -0.1416  0.0407 -0.2509
  272loPI   C3B 4351   1.996  12.689   8.964 -0.1430  0.3534 -0.0824
  272loPI   C4B 4352   1.945  13.036   8.572 -0.0075 -0.1846 -0.3329
  273loPI    C1 4353   7.764  12.521  11.208 -0.1680  0.2455 -0.0617
  273loPI    C2 4354   7.909  12.870  11.340  0.0736  0.1284 -0.0140
  273loPI    C3 4355   8.153  12.556  11.292 -0.1742 -0.0891  0.1223
  273loPI   PO4 4356   7.646  12.597  11.047 -0.1233  0.1656 -0.0861
  273loPI   GL1 4357   7.655  12.663  10.634 -0.4961  0.1796  0.0943
  273loPI   GL2 4358   7.483  12.919  10.602 -0.0331  0.3809 -0.0691
  273loPI   C1A 4359   7.648  12.329  10.230  0.1575 -0.1547 -0.0076
  273loPI   C2A 4360   7.619  12.321   9.757 -0.1842 -0.0113  0.0284
  273loPI   C3A 4361   7.636  12.306   9.386 -0.0094 -0.0191 -0.1527
  273loPI   C4A 4362   7.860  12.446   9.084  0.1802 -0.0359  0.2468
  273loPI   C5A 4363   7.859  12.624   8.691 -0.1747 -0.0884 -0.1346
  273loPI   C6A 4364   8.083  12.875   8.480  0.0987 -0.2430  0.2221
  273loPI   C1B 4365   7.464  12.855  10.144 -0.1316 -0.1055 -0.2690
  273loPI   C2B 4366   7.287  12.878   9.731  0.1994 -0.0324  0.1885
  273loPI   C3B 4367   7.190  12.772   9.344 -0.1116  0.0355  0.2177
  273loPI   C4B 4368   7.404  12.630   9.025 -0.6311 -0.1263 -0.0994
  274loPI    C1 4369   1.304   5.914  10.371 -0.2522  0.0557 -0.0021
  274loPI    C2 4370   1.264   5.849  10.764  0.0612 -0.1230  0.0041
  274loPI    C3 4371   1.121   5.583  10.502 -0.1042 -0.0280 -0.0033
  274loPI   PO4 4372   1.235   6.168  10.321  0.0478  0.0517  0.1287
  274loPI   GL1 4373   1.326   6.426   9.916 -0.0217  0.2262 -0.0687
  274loPI   GL2 4374   1.033   6.528  10.004  0.2415 -0.0067 -0.1545
  274loPI   C1A 4375   1.364   5.982   9.738 -0.4012 -0.2221  0.1658
  274loPI   C2A 4376   1.420   5.739   9.325 -0.3087 -0.1948 -0.0556
  274loPI   C3A 4377   1.734   5.430   9.091  0.0637 -0.1065  0.0716
  274loPI   C4A 4378   1.723   5.330   8.679 -0.1660  0.1485  0.3268
  274loPI   C5A 4379   1.735   4.928   8.418 -0.0267  0.0212 -0.2696
  274loPI   C6A 4380   1.723   4.587   8.137 -0.1494  0.0248  0.1663
  274loPI   C1B 4381   0.898   6.418   9.651  0.2139 -0.1034 -0.2082
  274loPI   C2B 4382   0.915   6.707   9.181  0.2697 -0.0375 -0.0510
  274loPI   C3B 4383   1.048   6.938   8.889 -0.3357  0.0273  0.0059
  274loPI   C4B 4384   1.226   6.919   8.408  0.0243  0.1566 -0.3963
  275loPI    C1 4385  16.656  16.329  11.248  0.0762 -0.1164  0.1632
  275loPI    C2 4386  16.743  16.069  11.539  0.1597  0.0476  0.2863
  275loPI    C3 4387  16.709  16.459  11.623 -0.1497  0.0548  0.1379
  275loPI   PO4 4388  16.874  16.327  11.039 -0.1257 -0.1348  0.0524
  275loPI   GL1 4389  17.100  16.227  10.703 -0.1086  0.2458  0.1534
  275loPI   GL2 4390  17.374  16.444  10.573 -0.3066 -0.0616  0.5937
  275loPI   C1A 4391  17.121  16.147  10.285  0.0100  0.0203 -0.1623
  275loPI   C2A 4392  17.113  16.097   9.868  0.1597 -0.0050 -0.2052
  275loPI   C3A 4393  17.281  16.128   9.414 -0.1316  0.0493  0.0482
  275loPI   C4A 4394  17.125  16.121   9.008  0.2583  0.1320  0.0604
  275loPI   C5A 4395  17.294  16.164   8.636  0.1442  0.3576 -0.0051
  275loPI   C6A 4396  17.365  16.413   8.352 -0.1585  0.2059  0.0242
  275loPI   C1B 4397  17.363  16.623  10.151  0.1157 -0.3121  0.0982
  275loPI   C2B 4398  17.329  16.552   9.722 -0.0331  0.2366  0.2101
  275loPI   C3B 4399  17.188  16.670   9.399 -0.0918 -0.1256  0.1065
  275loPI   C4B 4400  17.221  16.681   8.933 -0.4081 -0.1864  0.0547
  276loPI    C1 4401   7.905   6.136  10.904  0.1855 -0.0859  0.0360
  276loPI    C2 4402   8.232   6.361  10.953  0.3450 -0.2944 -0.0545
  276loPI    C3 4403   8.015   6.251  11.271  0.0761  0.2580 -0.0359
  276loPI   PO4 4404   7.801   6.242  10.671  0.0112 -0.1039  0.0434
  276loPI   GL1 4405   7.734   6.178  10.236 -0.0622  0.1860 -0.1734
  276loPI   GL2 4406   7.498   6.288  10.278  0.0968 -0.2611  0.2692
  276loPI   C1A 4407   7.813   6.037   9.843 -0.2922 -0.1563  0.3665
  276loPI   C2A 4408   7.781   5.864   9.451 -0.2220 -0.1679 -0.0217
  276loPI   C3A 4409   7.858   6.008   9.108 -0.1107  0.0310 -0.2777
  276loPI   C4A 4410   7.820   5.955   8.671 -0.2587  0.1402 -0.0446
  276loPI   C5A 4411   7.674   6.140   8.279 -0.0741  0.0317 -0.0562
  276loPI   C6A 4412   7.348   6.300   8.013  0.2700  0.1198 -0.2489
  276loPI   C1B 4413   7.358   6.482   9.977 -0.1480 -0.1089  0.0703
  276loPI   C2B 4414   7.233   6.529   9.570 -0.1906  0.0301  0.1076
  276loPI   C3B 4415   7.386   6.437   9.166 -0.1344  0.0338  0.3142
  276loPI   C4B 4416   7.589   6.348   8.841 -0.0392 -0.3019 -0.0789
  277loPI    C1 4417   2.560   3.221  11.095  0.0073 -0.0261  0.1008
  277loPI    C2 4418   2.594   2.824  11.122  0.0101 -0.0431 -0.1355
  277loPI    C3 4419   2.865   3.059  11.298  0.1496 -0.1498 -0.2054
  277loPI   PO4 4420   2.611   3.272  10.733  0.3164 -0.0388  0.0796
  277loPI   GL1 4421   2.492   3.058  10.399  0.0314  0.0649 -0.0026
  277loPI   GL2 4422   2.633   2.851  10.136  0.0432  0.2070  0.1537
  277loPI   C1A 4423   2.688   3.318  10.022 -0.1354 -0.3125 -0.1777
  277loPI   C2A 4424   2.632   3.380   9.580 -0.1658  0.0122  0.1149
  277loPI   C3A 4425   2.548   3.657   9.384 -0.1776 -0.3214  0.1038
  277loPI   C4A 4426   2.343   3.812   9.048  0.0750  0.1887 -0.0347
  277loPI   C5A 4427   2.131   4.058   8.729  0.1139  0.2476 -0.1741
  277loPI   C6A 4428   1.767   4.136   8.628 -0.1918  0.1291  0.0522
  277loPI   C1B 4429   2.529   2.914   9.732 -0.4372  0.0542 -0.1462
  277loPI   C2B 4430   2.514   2.919   9.345  0.1611 -0.1810 -0.1474
  277loPI   C3B 4431   2.439   3.248   9.113 -0.1216 -0.0300  0.1552
  277loPI   C4B 4432   2.468   3.438   8.694 -0.1307 -0.0649 -0.0572
  278loPI    C1 4433  14.932   3.247  11.159 -0.1330 -0.0779 -0.1882
  278loPI    C2 4434  14.955   3.568  11.397 -0.1169 -0.0237 -0.2622
  278loPI    C3 4435  15.063   3.596  11.013 -0.2137 -0.0914 -0.2947
  278loPI   PO4 4436  14.688   3.175  11.068 -0.3382  0.0628 -0.3439
  278loPI   GL1 4437  14.611   3.407  10.588  0.0042  0.1675  0.0375
  278loPI   GL2 4438  14.984   3.368  10.575 -0.2831  0.1473  0.2295
  278loPI   C1A 4439  14.507   3.293  10.230  0.3341  0.1327  0.0634
  278loPI   C2A 4440  14.501   3.188   9.695 -0.0370 -0.0800  0.2597
  278loPI   C3A 4441  14.343   3.266   9.292 -0.0010  0.0449 -0.4674
  278loPI   C4A 4442  14.558   3.322   8.909 -0.0584 -0.0151  0.0736
  278loPI   C5A 4443  14.652   3.105   8.515 -0.0417  0.0933  0.0719
  278loPI   C6A 4444  14.553   2.919   8.255 -0.2125  0.0722  0.2084
  278loPI   C1B 4445  14.950   3.596  10.175 -0.2194 -0.3543 -0.0478
  278loPI   C2B 4446  14.784   3.622   9.703 -0.0499  0.1270  0.2254
  278loPI   C3B 4447  14.649   3.744   9.229 -0.0919 -0.3903 -0.1827
  278loPI   C4B 4448  14.652   3.839   8.804  0.3488  0.1494  0.3020
  279loPI    C1 4449   0.963   6.669  10.587 -0.1977 -0.1301 -0.0577
  279loPI    C2 4450   1.165   6.974  10.750 -0.3406  0.1311 -0.3587
  279loPI    C3 4451   0.935   6.740  10.980 -0.1264  0.1667 -0.1042
  279loPI   PO4 4452   0.803   6.760  10.367 -0.0939  0.1296  0.1185
  279loPI   GL1 4453   0.957   7.003  10.149 -0.0016  0.0286  0.4148
  279loPI   GL2 4454   1.163   7.102  10.022  0.0906  0.0880 -0.2532
  279loPI   C1A 4455   0.820   6.889   9.662  0.2036 -0.0057 -0.1038
  279loPI   C2A 4456   0.629   7.063   9.289  0.1011 -0.0909  0.0156
  279loPI   C3A 4457   0.414   7.068   8.914  0.1124 -0.2054  0.2824
  279loPI   C4A 4458   0.243   7.308   8.591 -0.1191 -0.0990  0.0884
  279loPI   C5A 4459   0.358   7.434   8.181  0.1055  0.1395  0.1793
  279loPI   C6A 4460   0.311   7.378   7.725  0.0347 -0.0214  0.5243
  279loPI   C1B 4461   1.351   6.827   9.691  0.2910 -0.0975 -0.1235
  279loPI   C2B 4462   1.476   6.789   9.378  0.0213  0.2055 -0.2903
  279loPI   C3B 4463   1.462   6.637   8.904 -0.2294  0.1445  0.4349
  279loPI   C4B 4464   1.493   6.403   8.453  0.0537  0.1367  0.0285
  280loPI    C1 4465  17.325  12.379  10.813  0.2438  0.1967  0.0540
  280loPI    C2 4466  17.003  12.165  10.915  0.3160 -0.0503 -0.2227
  280loPI    C3 4467  17.154  12.432  11.171 -0.0442 -0.0063 -0.0493
  280loPI   PO4 4468  17.304  12.343  10.554  0.1001 -0.0455 -0.0704
  280loPI   GL1 4469  17.437  12.180  10.143 -0.1614 -0.0519 -0.0532
  280loPI   GL2 4470  17.411  12.553  10.069 -0.2101 -0.2665 -0.1887
  280loPI   C1A 4471  17.163  12.152   9.895  0.2173 -0.0196  0.1289
  280loPI   C2A 4472  16.892  12.089   9.508 -0.4733  0.0375  0.3623
  280loPI   C3A 4473  16.864  11.770   9.270  0.0081  0.5358 -0.0263
  280loPI   C4A 4474  16.893  11.774   8.818  0.0856  0.1200  0.2927
  280loPI   C5A 4475  16.860  11.914   8.404 -0.1285 -0.2326 -0.0954
  280loPI   C6A 4476  16.728  11.705   8.024 -0.0984  0.1315 -0.1837
  280loPI   C1B 4477  17.512  12.391   9.642  0.0770  0.1854 -0.2966
  280loPI   C2B 4478  17.477  12.415   9.279 -0.1371  0.2312  0.1264
  280loPI   C3B 4479  17.584  12.511   8.902  0.1691  0.2246  0.1917
  280loPI   C4B 4480  17.487  12.596   8.476 -0.0943 -0.4262 -0.1068
  281loPI    C1 4481   6.692  10.522  11.028 -0.1649 -0.1278 -0.1343
  281loPI    C2 4482   6.821  10.900  11.045 -0.0486 -0.1666 -0.1511
  281loPI    C3 4483   6.505  10.787  11.263 -0.0590 -0.0696 -0.1155
  281loPI   PO4 4484   6.731  10.486  10.740  0.2551 -0.1248 -0.0427
  281loPI   GL1 4485   6.658  10.536  10.364  0.0867  0.0232  0.3314
  281loPI   GL2 4486   6.461  10.335  10.161 -0.0116 -0.0742 -0.0312
  281loPI   C1A 4487   7.005  10.476   9.922 -0.1413  0.2012 -0.3756
  281loPI   C2A 4488   6.973  10.598   9.542 -0.0965 -0.1270 -0.0604
  281loPI   C3A 4489   6.894  10.464   9.124  0.6193 -0.1904  0.0578
  281loPI   C4A 4490   7.124  10.514   8.729 -0.0125  0.1614 -0.1753
  281loPI   C5A 4491   7.072  10.513   8.263 -0.0914 -0.1430 -0.0086
  281loPI   C6A 4492   7.073  10.210   7.993 -0.0008  0.0733 -0.0516
  281loPI   C1B 4493   6.497  10.477   9.813  0.0064 -0.2773  0.4048
  281loPI   C2B 4494   6.460  10.537   9.429 -0.0809 -0.0072  0.0022
  281loPI   C3B 4495   6.421  10.627   9.012  0.2780  0.0079  0.0411
  281loPI   C4B 4496   6.693  10.385   8.650  0.3700  0.2525  0.1216
  282loPI    C1 4497  14.553   7.044  11.176  0.0272 -0.2063  0.0632
  282loPI    C2 4498  14.551   6.923  11.557  0.1765 -0.0508  0.1148
  282loPI    C3 4499  14.597   7.311  11.471  0.2047 -0.0928 -0.0637
  282loPI   PO4 4500  14.310   7.014  11.073 -0.1652  0.1012 -0.1026
  282loPI   GL1 4501  14.299   6.959  10.686  0.0384  0.1211 -0.3570
  282loPI   GL2 4502  14.553   7.022  10.602  0.2843 -0.0640 -0.2311
  282loPI   C1A 4503  14.062   6.790  10.371 -0.2949 -0.0435  0.0878
  282loPI   C2A 4504  13.821   6.790  10.011  0.0427 -0.3635 -0.0005
  282loPI   C3A 4505  13.835   6.671   9.555  0.0326 -0.0463 -0.3652
  282loPI   C4A 4506  13.579   6.577   9.169  0.0152 -0.2844  0.0211
  282loPI   C5A 4507  13.424   6.730   8.747 -0.0422  0.0088  0.0541
  282loPI   C6A 4508  13.494   6.670   8.294 -0.2214  0.1375  0.2357
  282loPI   C1B 4509  14.476   6.954  10.166  0.1138 -0.2804  0.1519
  282loPI   C2B 4510  14.319   6.893   9.682  0.1258 -0.0902  0.1949
  282loPI   C3B 4511  14.235   6.812   9.205 -0.1656 -0.5026  0.0687
  282loPI   C4B 4512  14.109   6.841   8.887 -0.3507  0.1568  0.1224
  283loPI    C1 4513   8.806  17.394  10.988 -0.2298 -0.1359 -0.1401
  283loPI    C2 4514   9.129  17.530  11.180 -0.0703 -0.0074 -0.4928
  283loPI    C3 4515   8.864  17.303  11.373  0.2584 -0.1623 -0.2136
  283loPI   PO4 4516   8.842  17.406  10.643 -0.0874 -0.4046  0.0251
  283loPI   GL1 4517   8.688  17.430  10.303  0.0275  0.0549  0.1436
  283loPI   GL2 4518   8.468  17.193  10.307 -0.1287 -0.3145  0.0528
  283loPI   C1A 4519   8.742  17.487   9.781  0.0204 -0.2805  0.3284
  283loPI   C2A 4520   8.657  17.501   9.332 -0.1267  0.0375  0.1274
  283loPI   C3A 4521   8.786  17.420   8.941  0.1957  0.1059 -0.0457
  283loPI   C4A 4522   8.793  17.351   8.625  0.1338  0.4111  0.0277
  283loPI   C5A 4523   8.761  17.171   8.195  0.0983 -0.1483 -0.1403
  283loPI   C6A 4524   8.593  17.499   7.864  0.2042 -0.0892  0.1515
  283loPI   C1B 4525   8.356  17.177   9.859  0.0747 -0.2153  0.0334
  283loPI   C2B 4526   8.331  17.158   9.456  0.1515 -0.0369  0.1819
  283loPI   C3B 4527   8.305  17.037   8.948  0.0088  0.1416  0.3612
  283loPI   C4B 4528   8.324  16.971   8.499  0.0265 -0.1342 -0.0683
  284loPI    C1 4529   7.571  10.575  10.760 -0.1361  0.1310 -0.0610
  284loPI    C2 4530   7.214  10.532  10.584 -0.0864 -0.2479 -0.0771
  284loPI    C3 4531   7.237  10.584  10.980 -0.1693  0.0235 -0.1062
  284loPI   PO4 4532   7.691  10.744  10.551 -0.0345  0.0588 -0.1140
  284loPI   GL1 4533   7.815  10.853  10.166  0.0102  0.1553  0.1066
  284loPI   GL2 4534   8.068  11.178  10.222  0.1535 -0.0024 -0.1386
  284loPI   C1A 4535   7.683  10.909   9.738 -0.0889  0.1206 -0.3282
  284loPI   C2A 4536   7.714  10.963   9.225  0.1032 -0.0708 -0.0821
  284loPI   C3A 4537   7.619  10.739   8.817  0.0545  0.0377 -0.0058
  284loPI   C4A 4538   7.567  10.568   8.431  0.0670 -0.0256  0.1360
  284loPI   C5A 4539   7.831  10.686   8.181 -0.3714 -0.0487 -0.3202
  284loPI   C6A 4540   8.022  11.066   8.074 -0.2592 -0.1882  0.0354
  284loPI   C1B 4541   8.033  11.286   9.832 -0.1067 -0.2759 -0.4689
  284loPI   C2B 4542   8.104  11.063   9.457  0.2752  0.1319 -0.2597
  284loPI   C3B 4543   8.088  11.064   8.939  0.1125 -0.1913 -0.0783
  284loPI   C4B 4544   8.197  10.789   8.519  0.0607  0.0133 -0.0146
  285loPI    C1 4545  14.237   2.968  10.953 -0.0207 -0.1589  0.0557
  285loPI    C2 4546  14.307   2.575  10.972 -0.0963 -0.1630  0.2695
  285loPI    C3 4547  14.305   2.795  11.306  0.0441  0.0372  0.1406
  285loPI   PO4 4548  13.968   3.083  10.927  0.1165 -0.2131  0.2051
  285loPI   GL1 4549  13.887   3.377  10.637  0.1736  0.2501  0.0476
  285loPI   GL2 4550  14.121   3.456  10.427 -0.1405 -0.2082 -0.2946
  285loPI   C1A 4551  13.807   3.087  10.170  0.0585  0.3622 -0.0283
  285loPI   C2A 4552  13.742   2.965   9.631  0.0750  0.0267 -0.1951
  285loPI   C3A 4553  13.887   2.857   9.247 -0.2556 -0.4202 -0.2236
  285loPI   C4A 4554  13.724   2.786   8.817  0.1135 -0.0194  0.1258
  285loPI   C5A 4555  13.591   2.626   8.347  0.1019  0.2154 -0.3280
  285loPI   C6A 4556  13.380   2.175   8.301  0.4616  0.4523  0.1262
  285loPI   C1B 4557  13.874   3.576  10.177  0.3549  0.0160  0.3680
  285loPI   C2B 4558  13.981   3.398   9.741 -0.0476 -0.1678  0.1857
  285loPI   C3B 4559  13.780   3.400   9.362 -0.2542  0.0261  0.0802
  285loPI   C4B 4560  13.593   3.233   8.966 -0.0912  0.1266 -0.0985
  286loPI    C1 4561   7.240  15.171  11.124  0.2172  0.0007  0.2752
  286loPI    C2 4562   7.256  14.824  11.320  0.0958 -0.0983  0.1132
  286loPI    C3 4563   7.086  15.143  11.492 -0.0441 -0.1941  0.1542
  286loPI   PO4 4564   7.175  15.148  10.864 -0.1292  0.2469  0.0640
  286loPI   GL1 4565   7.286  15.328  10.447 -0.2460 -0.1378  0.0637
  286loPI   GL2 4566   7.326  14.949  10.440  0.2889  0.0784  0.0557
  286loPI   C1A 4567   6.935  15.201  10.184 -0.2840  0.0654 -0.2197
  286loPI   C2A 4568   6.688  15.065   9.880  0.2092  0.1432  0.1747
  286loPI   C3A 4569   6.403  15.123   9.486 -0.0387 -0.0770 -0.0428
  286loPI   C4A 4570   6.149  15.149   9.082 -0.0513 -0.1667 -0.1498
  286loPI   C5A 4571   6.065  15.152   8.732  0.0131  0.2696  0.1190
  286loPI   C6A 4572   6.108  15.234   8.321 -0.0215  0.1574  0.0015
  286loPI   C1B 4573   7.369  14.863  10.077  0.0418 -0.0744 -0.2773
  286loPI   C2B 4574   7.521  14.803   9.585 -0.0701  0.2197 -0.0761
  286loPI   C3B 4575   7.569  14.956   9.233  0.0519  0.2521 -0.2894
  286loPI   C4B 4576   7.479  14.996   8.781  0.0506  0.0108  0.1078
  287loPI    C1 4577  14.968   7.970  10.731 -0.0348  0.0637 -0.0189
  287loPI    C2 4578  15.365   8.001  10.697 -0.0489  0.3617  0.0517
  287loPI    C3 4579  15.181   8.144  11.022 -0.2136  0.2106  0.0265
  287loPI   PO4 4580  14.971   7.648  10.580  0.0894 -0.1114 -0.1601
  287loPI   GL1 4581  14.700   7.485  10.368  0.1641  0.1225  0.1617
  287loPI   GL2 4582  14.884   7.696  10.116  0.0845 -0.0490  0.1626
  287loPI   C1A 4583  14.450   7.445  10.083 -0.0447  0.4646 -0.2025
  287loPI   C2A 4584  14.346   7.379   9.695 -0.3591 -0.0913  0.0626
  287loPI   C3A 4585  14.352   7.275   9.212  0.1391  0.0554 -0.0185
  287loPI   C4A 4586  14.390   7.235   8.750  0.4061 -0.2312  0.1951
  287loPI   C5A 4587  14.261   7.253   8.317 -0.2613  0.1301  0.2221
  287loPI   C6A 4588  14.091   7.516   8.085  0.3689  0.0269  0.0324
  287loPI   C1B 4589  14.793   7.773   9.728  0.1709 -0.2114 -0.1936
  287loPI   C2B 4590  14.529   7.727   9.374  0.2185 -0.3413  0.2507
  287loPI   C3B 4591  14.239   7.690   8.925  0.0954 -0.0540 -0.1006
  287loPI   C4B 4592  13.902   7.612   8.551  0.1665 -0.2249 -0.0386
  288loPI    C1 4593   0.040  16.281  10.993 -0.0341  0.2592  0.0670
  288loPI    C2 4594  -0.140  16.346  11.344 -0.0042  0.0242  0.1275
  288loPI    C3 4595   0.086  16.020  11.292  0.0492  0.0937 -0.0879
  288loPI   PO4 4596  -0.060  16.287  10.814  0.1082 -0.0261 -0.0367
  288loPI   GL1 4597  -0.150  16.550  10.444 -0.2358  0.4055 -0.2260
  288loPI   GL2 4598  -0.132  16.785  10.266  0.0923 -0.1486  0.0169
  288loPI   C1A 4599   0.140  16.424  10.064  0.3678  0.2070  0.1639
  288loPI   C2A 4600   0.223  16.396   9.578 -0.0192  0.0151  0.0343
  288loPI   C3A 4601   0.128  16.369   9.184 -0.1692  0.0858  0.1245
  288loPI   C4A 4602   0.244  16.508   8.794 -0.0754  0.0064 -0.2820
  288loPI   C5A 4603   0.264  16.582   8.419  0.0643  0.1891  0.1090
  288loPI   C6A 4604   0.183  16.758   7.937  0.1562 -0.1578  0.2299
  288loPI   C1B 4605  -0.190  16.743   9.892  0.1662  0.2049  0.0241
  288loPI   C2B 4606  -0.240  16.671   9.365 -0.1680  0.2763 -0.1080
  288loPI   C3B 4607  -0.080  16.814   8.962  0.2192 -0.1766  0.0183
  288loPI   C4B 4608   0.215  17.007   8.716 -0.1174  0.0174  0.3198
  289loPI    C1 4609   8.795  12.635  10.836 -0.4168 -0.2138 -0.1437
  289loPI    C2 4610   8.576  12.873  10.601 -0.3110 -0.0587 -0.0862
  289loPI    C3 4611   8.499  12.854  10.994 -0.0293  0.2315 -0.0120
  289loPI   PO4 4612   9.056  12.658  10.678  0.3453  0.2462 -0.1966
  289loPI   GL1 4613   8.949  12.674  10.246 -0.3604 -0.2597 -0.1863
  289loPI   GL2 4614   8.670  12.876  10.139 -0.0013 -0.4366 -0.0497
  289loPI   C1A 4615   8.972  12.488   9.909 -0.1536 -0.0687 -0.3423
  289loPI   C2A 4616   9.191  12.374   9.468 -0.0436 -0.0788 -0.2833
  289loPI   C3A 4617   9.199  12.500   9.037 -0.1350  0.0515  0.2695
  289loPI   C4A 4618   9.215  12.836   8.672  0.0189 -0.0769  0.2894
  289loPI   C5A 4619   9.400  13.263   8.503 -0.2274  0.0048 -0.1631
  289loPI   C6A 4620   9.597  13.727   8.606 -0.0925 -0.1926  0.1116
  289loPI   C1B 4621   8.492  12.871   9.782  0.1946 -0.2270  0.1705
  289loPI   C2B 4622   8.402  13.023   9.365  0.0406  0.1299  0.0369
  289loPI   C3B 4623   8.621  13.184   9.006 -0.5883  0.0640 -0.0488
  289loPI   C4B 4624   8.569  13.040   8.632 -0.0549  0.0503  0.3775
  290loPI    C1 4625   0.078  12.087  10.855  0.0142 -0.2345  0.0123
  290loPI    C2 4626  -0.237  12.110  10.610 -0.0066 -0.0182  0.0574
  290loPI    C3 4627  -0.280  12.194  10.998  0.1027 -0.0070  0.0674
  290loPI   PO4 4628   0.247  12.000  10.673  0.1617 -0.1364  0.0208
  290loPI   GL1 4629   0.220  11.786  10.328  0.1850  0.0951  0.0278
  290loPI   GL2 4630   0.411  11.580  10.174 -0.0728  0.1156 -0.1125
  290loPI   C1A 4631   0.266  12.056  10.032 -0.1438  0.0626  0.2490
  290loPI   C2A 4632   0.437  12.126   9.639  0.0419 -0.1218 -0.1636
  290loPI   C3A 4633   0.402  12.223   9.188  0.0200 -0.0432 -0.1260
  290loPI   C4A 4634   0.470  12.419   8.847 -0.3944  0.1683  0.1412
  290loPI   C5A 4635   0.492  12.489   8.490  0.1285  0.0432 -0.3323
  290loPI   C6A 4636   0.189  12.398   8.156 -0.2839  0.0337 -0.0873
  290loPI   C1B 4637   0.368  11.632   9.694  0.0190  0.0589 -0.0179
  290loPI   C2B 4638   0.315  11.755   9.290 -0.2305  0.0454  0.1371
  290loPI   C3B 4639   0.267  11.791   8.901 -0.1285 -0.2086  0.2926
  290loPI   C4B 4640   0.216  11.973   8.624  0.0779 -0.2844 -0.1987
  291loPI    C1 4641   0.054  10.925  10.653 -0.0174 -0.1821  0.0189
  291loPI    C2 4642   0.448  10.956  10.714  0.0452 -0.0768 -0.4079
  291loPI    C3 4643   0.222  10.747  10.969  0.2953  0.2787  0.1219
  291loPI   PO4 4644   0.128  11.172  10.335  0.1095 -0.1942  0.0620
  291loPI   GL1 4645  -0.116  11.190   9.968  0.0751  0.2641  0.4203
  291loPI   GL2 4646  -0.018  11.422   9.806  0.2849  0.2139 -0.5488
  291loPI   C1A 4647  -0.385  10.925   9.659 -0.0951  0.1772 -0.1886
  291loPI   C2A 4648  -0.506  10.986   9.211 -0.1924  0.2046  0.1086
  291loPI   C3A 4649  -0.433  11.103   8.798  0.0052  0.0883  0.1184
  291loPI   C4A 4650  -0.489  11.213   8.392 -0.1090  0.3206  0.1685
  291loPI   C5A 4651  -0.621  11.088   7.986 -0.1475  0.2306  0.2052
  291loPI   C6A 4652  -0.809  10.932   7.667  0.0526  0.0855 -0.0058
  291loPI   C1B 4653  -0.134  11.450   9.390  0.2123 -0.0953 -0.1455
  291loPI   C2B 4654  -0.130  11.431   9.031  0.0488  0.1238 -0.1969
  291loPI   C3B 4655  -0.123  11.470   8.636 -0.2489  0.0891 -0.0318
  291loPI   C4B 4656  -0.012  11.453   8.182  0.0049  0.0667  0.2722
  292loPI    C1 4657  16.046   0.701  11.211 -0.1850 -0.1109  0.0630
  292loPI    C2 4658  15.932   0.728  11.593 -0.1614 -0.0755  0.0677
  292loPI    C3 4659  16.059   0.378  11.446 -0.0268 -0.0545  0.1326
  292loPI   PO4 4660  15.937   0.835  11.033  0.1882 -0.3511  0.0544
  292loPI   GL1 4661  16.043   0.831  10.607  0.3785 -0.1739 -0.1230
  292loPI   GL2 4662  15.669   0.794  10.622  0.0396  0.3806  0.0851
  292loPI   C1A 4663  16.334   0.771  10.148  0.2671  0.0740  0.1766
  292loPI   C2A 4664  16.504   0.743   9.761  0.2516 -0.0823 -0.2423
  292loPI   C3A 4665  16.464   0.826   9.338 -0.1442  0.2507  0.3341
  292loPI   C4A 4666  16.352   0.741   8.847 -0.0244  0.0174 -0.0632
  292loPI   C5A 4667  16.113   0.482   8.662 -0.0850  0.2030  0.3150
  292loPI   C6A 4668  16.102   0.035   8.748 -0.4274  0.0805 -0.0476
  292loPI   C1B 4669  15.746   0.827  10.222  0.4317  0.1192 -0.2043
  292loPI   C2B 4670  15.831   0.601   9.892  0.0249  0.0867 -0.2296
  292loPI   C3B 4671  16.011   0.615   9.639 -0.0608  0.1743  0.0187
  292loPI   C4B 4672  15.971   0.597   9.139 -0.2812 -0.1899 -0.4325
  293loPI    C1 4673   0.543   0.713  11.190  0.0653  0.1894 -0.2586
  293loPI    C2 4674   0.295   0.642  11.495 -0.0390  0.1655 -0.3484
  293loPI    C3 4675   0.593   0.905  11.538 -0.0261  0.1296 -0.2120
  293loPI   PO4 4676   0.398   0.670  10.996 -0.1184  0.2378 -0.0501
  293loPI   GL1 4677   0.488   0.735  10.588  0.0767  0.1548 -0.1142
  293loPI   GL2 4678   0.455   0.816  10.370  0.2052  0.1734  0.1429
  293loPI   C1A 4679   0.775   0.461  10.268 -0.1562 -0.2563 -0.2518
  293loPI   C2A 4680   0.713   0.429   9.878  0.0291  0.0530  0.3319
  293loPI   C3A 4681   0.701   0.486   9.473  0.1544  0.1292 -0.0033
  293loPI   C4A 4682   0.572   0.393   9.047  0.0042 -0.0901  0.0183
  293loPI   C5A 4683   0.888   0.339   8.681  0.1045  0.1092  0.2775
  293loPI   C6A 4684   0.974   0.673   8.345  0.1600  0.0870  0.1270
  293loPI   C1B 4685   0.322   0.867   9.977 -0.0104  0.0029 -0.2910
  293loPI   C2B 4686   0.298   0.772   9.605  0.0780 -0.0806 -0.0022
  293loPI   C3B 4687   0.341   0.838   9.216  0.0799  0.1004 -0.0476
  293loPI   C4B 4688   0.269   0.906   8.761  0.1387  0.0313 -0.2863
  294loPI    C1 4689  13.258  14.263  10.939 -0.0018  0.2100  0.1458
  294loPI    C2 4690  13.629  14.265  11.089  0.0347  0.3145  0.0554
  294loPI    C3 4691  13.359  14.528  11.221 -0.0821  0.0749  0.3028
  294loPI   PO4 4692  13.297  14.174  10.701  0.1088  0.3106  0.1451
  294loPI   GL1 4693  13.408  14.349  10.344 -0.0607 -0.0531  0.1997
  294loPI   GL2 4694  13.317  14.664  10.326  0.0273 -0.2333  0.2102
  294loPI   C1A 4695  13.395  14.262   9.930 -0.1184 -0.4055  0.1711
  294loPI   C2A 4696  13.330  14.361   9.494  0.1197  0.3786 -0.3285
  294loPI   C3A 4697  13.365  14.121   9.040  0.1498 -0.0652  0.1281
  294loPI   C4A 4698  13.363  14.056   8.644 -0.2931  0.0381 -0.0674
  294loPI   C5A 4699  13.220  13.808   8.282  0.2410  0.0586  0.2203
  294loPI   C6A 4700  12.839  14.064   8.046 -0.3538  0.1001  0.2458
  294loPI   C1B 4701  13.328  14.862   9.823 -0.0690  0.2046 -0.2779
  294loPI   C2B 4702  13.381  14.823   9.477 -0.2596 -0.0650  0.0116
  294loPI   C3B 4703  13.547  14.647   9.080  0.2121 -0.3402  0.0792
  294loPI   C4B 4704  13.584  14.769   8.753  0.1376 -0.3143  0.3692
  295loPI    C1 4705   4.145  13.875  11.064 -0.3509 -0.1239 -0.0398
  295loPI    C2 4706   4.430  13.983  11.324 -0.0458 -0.2314 -0.3225
  295loPI    C3 4707   4.197  13.667  11.402 -0.1709 -0.0715 -0.0339
  295loPI   PO4 4708   4.264  13.938  10.817  0.1635 -0.0265  0.1544
  295loPI   GL1 4709   4.475  13.743  10.459  0.1844 -0.1281  0.0982
  295loPI   GL2 4710   4.658  13.661  10.390 -0.0538  0.0846  0.1308
  295loPI   C1A 4711   4.341  13.991  10.107  0.0237  0.0082  0.1988
  295loPI   C2A 4712   4.379  14.060   9.737  0.2124  0.0936  0.3974
  295loPI   C3A 4713   4.310  14.012   9.303 -0.1534 -0.2212  0.0184
  295loPI   C4A 4714   4.273  14.138   8.836  0.1630  0.1748  0.0314
  295loPI   C5A 4715   4.452  13.991   8.450 -0.0647  0.2880  0.2179
  295loPI   C6A 4716   4.140  13.986   8.138 -0.1179 -0.0780 -0.2389
  295loPI   C1B 4717   4.731  13.750   9.931  0.1135 -0.1317 -0.2070
  295loPI   C2B 4718   4.732  13.788   9.487 -0.2194 -0.1863 -0.1535
  295loPI   C3B 4719   4.751  14.185   9.191 -0.0941 -0.0988  0.0197
  295loPI   C4B 4720   4.796  14.313   8.817  0.0377 -0.1009 -0.1741
  296loPI    C1 4721   9.742  11.504  11.202 -0.2037  0.1315  0.3005
  296loPI    C2 4722   9.395  11.366  11.058 -0.2001  0.3746  0.0487
  296loPI    C3 4723   9.404  11.557  11.410 -0.3267  0.3964  0.0406
  296loPI   PO4 4724   9.938  11.479  10.911  0.2569  0.0328  0.2035
  296loPI   GL1 4725  10.030  11.416  10.501 -0.0299 -0.2404  0.0733
  296loPI   GL2 4726  10.189  11.128  10.569 -0.1104 -0.0284 -0.1461
  296loPI   C1A 4727  10.062  11.429  10.020 -0.1793 -0.1347 -0.0893
  296loPI   C2A 4728   9.942  11.123   9.659  0.2654 -0.1629  0.1295
  296loPI   C3A 4729   9.918  11.280   9.310 -0.0957  0.3374  0.0781
  296loPI   C4A 4730  10.193  11.193   8.981 -0.1660  0.1763 -0.0591
  296loPI   C5A 4731  10.570  11.219   8.855  0.3256 -0.1581  0.0275
  296loPI   C6A 4732  10.729  11.566   8.494 -0.0767  0.0315 -0.0721
  296loPI   C1B 4733  10.262  10.885  10.224 -0.0191  0.1594  0.3694
  296loPI   C2B 4734  10.353  10.849   9.779 -0.0940 -0.0343  0.2858
  296loPI   C3B 4735  10.312  10.851   9.398 -0.0814  0.0649 -0.2018
  296loPI   C4B 4736  10.479  10.718   8.963 -0.0515  0.0115 -0.1725
  297loPI    C1 4737  17.479   5.462  10.699 -0.3827 -0.1215 -0.0781
  297loPI    C2 4738  17.450   5.083  10.825 -0.3349 -0.1270 -0.0839
  297loPI    C3 4739  17.208   5.363  10.976 -0.2589 -0.1285  0.0417
  297loPI   PO4 4740  17.409   5.474  10.492  0.0756 -0.1419 -0.0239
  297loPI   GL1 4741  17.402   5.258  10.163  0.0272  0.0793  0.0700
  297loPI   GL2 4742  17.112   5.003  10.106 -0.0877 -0.1266  0.0935
  297loPI   C1A 4743  17.751   5.079   9.828  0.2828 -0.0952 -0.2455
  297loPI   C2A 4744  17.823   5.037   9.436 -0.0762  0.2528 -0.2602
  297loPI   C3A 4745  17.738   5.081   9.016 -0.1634 -0.3956 -0.1415
  297loPI   C4A 4746  17.835   4.998   8.650  0.2597  0.0380  0.0855
  297loPI   C5A 4747  17.782   4.534   8.424 -0.1945  0.2296  0.5157
  297loPI   C6A 4748  17.913   4.117   8.191 -0.2038  0.0648 -0.2448
  297loPI   C1B 4749  17.310   4.924   9.658 -0.0907  0.0961 -0.1348
  297loPI   C2B 4750  17.297   4.961   9.220 -0.0334  0.1398  0.2721
  297loPI   C3B 4751  17.014   4.595   8.880  0.1545 -0.3584 -0.0124
  297loPI   C4B 4752  17.198   4.548   8.412 -0.1276  0.1406 -0.2022
  298loPI    C1 4753   9.927  16.254  11.183  0.0464 -0.2502  0.2378
  298loPI    C2 4754  10.307  16.361  11.250 -0.0018  0.1914 -0.1440
  298loPI    C3 4755  10.008  16.564  11.423 -0.0736  0.0525 -0.1040
  298loPI   PO4 4756  10.026  16.161  10.803  0.0100  0.2192  0.3784
  298loPI   GL1 4757   9.878  16.309  10.453 -0.3965 -0.0082 -0.0281
  298loPI   GL2 4758  10.208  16.381  10.315 -0.0152 -0.0400  0.2387
  298loPI   C1A 4759   9.543  16.377  10.147  0.1284 -0.1464 -0.1521
  298loPI   C2A 4760   9.482  16.436   9.764  0.2139  0.1102 -0.3756
  298loPI   C3A 4761   9.358  16.299   9.467 -0.2980  0.0543  0.1287
  298loPI   C4A 4762   9.292  16.194   9.007  0.2056  0.2080 -0.3748
  298loPI   C5A 4763   9.089  16.348   8.736  0.2197 -0.1402  0.0016
  298loPI   C6A 4764   8.886  16.255   8.414  0.0879  0.1945  0.0125
  298loPI   C1B 4765  10.450  16.349   9.925  0.3647 -0.1807 -0.4077
  298loPI   C2B 4766  10.428  16.295   9.483 -0.0282  0.1153  0.3388
  298loPI   C3B 4767  10.108  16.240   9.079 -0.0840  0.1412 -0.2792
  298loPI   C4B 4768   9.790  15.965   9.156 -0.0986  0.0141 -0.1225
  299loPI    C1 4769   4.562   2.077  10.754  0.1202  0.1345  0.1191
  299loPI    C2 4770   4.709   2.403  10.933 -0.4464  0.3942  0.1323
  299loPI    C3 4771   4.510   2.129  11.147 -0.2353  0.1874  0.0684
  299loPI   PO4 4772   4.806   2.003  10.576 -0.0466  0.1731 -0.4117
  299loPI   GL1 4773   4.843   1.706  10.301  0.3275 -0.1948  0.1070
  299loPI   GL2 4774   4.805   1.396  10.248 -0.3738  0.0864  0.0600
  299loPI   C1A 4775   4.946   1.828   9.841 -0.0509  0.1424  0.1801
  299loPI   C2A 4776   5.025   1.688   9.384  0.2999 -0.0123  0.0932
  299loPI   C3A 4777   5.021   1.472   8.960  0.0295 -0.1531 -0.0152
  299loPI   C4A 4778   5.141   1.107   8.703  0.2647  0.1030 -0.0439
  299loPI   C5A 4779   5.293   0.790   8.354  0.0123 -0.1418 -0.1304
  299loPI   C6A 4780   5.600   0.513   8.259 -0.3640 -0.0824 -0.1199
  299loPI   C1B 4781   4.792   1.346   9.801 -0.1870 -0.0908 -0.3933
  299loPI   C2B 4782   4.677   1.273   9.407  0.2334  0.1840  0.1029
  299loPI   C3B 4783   4.776   1.028   9.073  0.0376  0.0333 -0.1089
  299loPI   C4B 4784   4.675   0.699   8.771 -0.1889 -0.1785 -0.0654
  300loPI    C1 4785   5.411   0.263  11.149 -0.1281 -0.0624 -0.1213
  300loPI    C2 4786   5.227   0.187  11.497  0.1610  0.0344  0.0564
  300loPI    C3 4787   5.457  -0.092  11.327  0.0333 -0.0069 -0.0507
  300loPI   PO4 4788   5.316   0.348  10.965  0.2477  0.3358 -0.0984
  300loPI   GL1 4789   5.335   0.388  10.580 -0.0562 -0.2405 -0.0044
  300loPI   GL2 4790   4.937   0.489  10.658  0.1914 -0.0246  0.3267
  300loPI   C1A 4791   5.291   0.260  10.173 -0.0755  0.2429  0.0843
  300loPI   C2A 4792   5.308   0.157   9.820  0.1831  0.0747 -0.0059
  300loPI   C3A 4793   5.345   0.218   9.410 -0.1281  0.3116 -0.1932
  300loPI   C4A 4794   5.533   0.190   9.012 -0.0862 -0.0199 -0.0616
  300loPI   C5A 4795   5.713  -0.076   8.668  0.1217  0.0282 -0.2280
  300loPI   C6A 4796   6.044  -0.266   8.552 -0.0409 -0.1570 -0.1775
  300loPI   C1B 4797   4.775   0.475  10.195  0.0638  0.1573  0.2812
  300loPI   C2B 4798   4.795   0.242   9.871  0.0490 -0.0508 -0.1272
  300loPI   C3B 4799   4.798   0.141   9.420 -0.0821 -0.0517 -0.0138
  300loPI   C4B 4800   4.779   0.134   8.981 -0.0058  0.2971  0.0507
  301loPI    C1 4801   5.156  11.630  11.399 -0.0701  0.0367 -0.1968
  301loPI    C2 4802   4.890  11.909  11.504 -0.0277  0.0631 -0.1594
  301loPI    C3 4803   4.771  11.532  11.446 -0.0519  0.0475 -0.0147
  301loPI   PO4 4804   5.301  11.676  11.203 -0.0733  0.2432  0.1586
  301loPI   GL1 4805   5.267  11.705  10.702 -0.0172 -0.0241 -0.0091
  301loPI   GL2 4806   4.898  11.721  10.582  0.1232 -0.2030 -0.2178
  301loPI   C1A 4807   5.363  11.908  10.257 -0.0185 -0.0145  0.0371
  301loPI   C2A 4808   5.281  12.059   9.795 -0.2072 -0.0237 -0.2565
  301loPI   C3A 4809   5.268  11.865   9.368 -0.1611 -0.0542  0.2629
  301loPI   C4A 4810   5.173  11.941   9.003 -0.1742 -0.3620 -0.1059
  301loPI   C5A 4811   5.132  11.960   8.543 -0.2156  0.1110  0.0850
  301loPI   C6A 4812   5.301  12.318   8.275 -0.2424 -0.1170 -0.0250
  301loPI   C1B 4813   4.809  11.704  10.198 -0.1397  0.0754  0.4567
  301loPI   C2B 4814   4.730  11.870   9.791 -0.1112 -0.3255 -0.0849
  301loPI   C3B 4815   4.679  11.780   9.377 -0.1570 -0.2322 -0.0839
  301loPI   C4B 4816   4.605  11.938   9.011 -0.0820  0.0139 -0.0271
  302loPI    C1 4817   2.897   1.896  10.928  0.1575  0.0382  0.2394
  302loPI    C2 4818   2.619   1.622  11.015 -0.0421  0.2158  0.1702
  302loPI    C3 4819   2.761   1.861  11.302  0.3595 -0.1608  0.2964
  302loPI   PO4 4820   2.794   2.073  10.652 -0.3858  0.3035  0.1058
  302loPI   GL1 4821   2.663   1.883  10.289 -0.1708 -0.2872  0.0473
  302loPI   GL2 4822   2.374   1.755  10.141 -0.1011  0.0389 -0.0119
  302loPI   C1A 4823   3.035   1.962  10.008  0.0830  0.0055 -0.1225
  302loPI   C2A 4824   3.213   2.290   9.770  0.1185  0.0268  0.2604
  302loPI   C3A 4825   3.398   2.229   9.411  0.0379  0.0732  0.3538
  302loPI   C4A 4826   3.393   2.069   9.050  0.1556  0.3004 -0.0827
  302loPI   C5A 4827   3.366   2.208   8.608 -0.2579  0.0309 -0.2353
  302loPI   C6A 4828   3.263   2.316   8.142  0.1594 -0.3203  0.0033
  302loPI   C1B 4829   2.425   1.722   9.773  0.0229  0.0694 -0.1069
  302loPI   C2B 4830   2.345   1.965   9.400 -0.1626 -0.2280 -0.0402
  302loPI   C3B 4831   2.417   2.091   9.024 -0.4572  0.0917  0.1692
  302loPI   C4B 4832   2.520   2.326   8.599  0.3375  0.1206 -0.1395
  303loPI    C1 4833   8.308  11.005  10.726 -0.0329 -0.0771 -0.0186
  303loPI    C2 4834   8.697  10.946  10.653 -0.0310 -0.0692 -0.0148
  303loPI    C3 4835   8.582  11.227  10.913 -0.0429 -0.0042 -0.0900
  303loPI   PO4 4836   8.212  10.854  10.568 -0.0298  0.0836  0.3468
  303loPI   GL1 4837   8.358  10.771  10.206  0.3092 -0.0117  0.1220
  303loPI   GL2 4838   8.561  10.891  10.105 -0.1169  0.3729 -0.0557
  303loPI   C1A 4839   8.118  10.704   9.827 -0.4849  0.1736 -0.0803
  303loPI   C2A 4840   8.106  10.591   9.498 -0.0828  0.0153  0.0547
  303loPI   C3A 4841   7.996  10.360   9.084  0.0713 -0.3875  0.0043
  303loPI   C4A 4842   7.998  10.330   8.601 -0.0221  0.1669 -0.3240
  303loPI   C5A 4843   8.099  10.002   8.280 -0.0086  0.1311  0.0460
  303loPI   C6A 4844   8.466   9.694   8.291 -0.0614 -0.0526 -0.2455
  303loPI   C1B 4845   8.647  10.938   9.623 -0.0190  0.2546  0.0298
  303loPI   C2B 4846   8.543  11.188   9.235  0.1869 -0.1483  0.0290
  303loPI   C3B 4847   8.525  11.146   8.716  0.3566 -0.1154 -0.0514
  303loPI   C4B 4848   8.514  11.081   8.271  0.0409 -0.3533 -0.2467
  304loPI    C1 4849  14.118  14.351  11.143  0.0879  0.2474 -0.3085
  304loPI    C2 4850  14.337  14.157  11.416 -0.1613  0.1364 -0.1838
  304loPI    C3 4851  14.088  14.448  11.530 -0.1215  0.2244 -0.3180
  304loPI   PO4 4852  14.057  14.473  10.902 -0.1381 -0.0304 -0.0652
  304loPI   GL1 4853  13.798  14.131  10.585 -0.1442  0.1778  0.0854
  304loPI   GL2 4854  14.039  13.854  10.538 -0.1251  0.0573  0.2323
  304loPI   C1A 4855  13.845  14.099  10.148  0.1454  0.0342 -0.0754
  304loPI   C2A 4856  13.774  14.088   9.672  0.0710  0.1288 -0.1626
  304loPI   C3A 4857  13.849  14.221   9.231  0.1704 -0.0680 -0.3175
  304loPI   C4A 4858  13.890  14.269   8.791  0.3578 -0.2242  0.2340
  304loPI   C5A 4859  13.939  14.492   8.316 -0.1908 -0.3255 -0.2164
  304loPI   C6A 4860  13.825  14.567   7.909 -0.1650 -0.0130  0.2167
  304loPI   C1B 4861  14.285  13.770  10.203 -0.0620 -0.2202 -0.2568
  304loPI   C2B 4862  14.178  13.731   9.766 -0.2903  0.1154  0.0185
  304loPI   C3B 4863  14.338  13.832   9.409  0.0228 -0.2951 -0.3560
  304loPI   C4B 4864  14.221  13.839   8.942 -0.0951  0.0663  0.0064
  305loPI    C1 4865   7.522  10.147  11.061 -0.0716 -0.3520 -0.1669
  305loPI    C2 4866   7.577   9.905  11.374  0.1853  0.1096  0.1569
  305loPI    C3 4867   7.477  10.288  11.432 -0.0918  0.1208 -0.3416
  305loPI   PO4 4868   7.745  10.088  10.852  0.2570  0.1789 -0.0446
  305loPI   GL1 4869   7.746   9.879  10.423 -0.0390  0.5313  0.0118
  305loPI   GL2 4870   8.005   9.664  10.480 -0.3041  0.2567 -0.1869
  305loPI   C1A 4871   7.678   9.991   9.958 -0.0592 -0.0600 -0.0473
  305loPI   C2A 4872   7.459   9.763   9.655 -0.0560 -0.1999  0.1195
  305loPI   C3A 4873   7.158   9.566   9.326 -0.2026 -0.0851 -0.5363
  305loPI   C4A 4874   7.100   9.251   8.994 -0.1663 -0.3065  0.0804
  305loPI   C5A 4875   7.032   8.992   8.522 -0.3512 -0.0854 -0.0328
  305loPI   C6A 4876   7.237   9.122   8.166 -0.0126 -0.0447  0.2319
  305loPI   C1B 4877   8.133   9.744  10.039  0.3555  0.1463 -0.0063
  305loPI   C2B 4878   8.415   9.462   9.685  0.1566  0.0046  0.3019
  305loPI   C3B 4879   8.396   9.513   9.257 -0.0250  0.0522 -0.2354
  305loPI   C4B 4880   8.484   9.519   8.835 -0.2596  0.0348 -0.2644
  306loPI    C1 4881  13.720  10.893  11.080  0.3140  0.0678 -0.0405
  306loPI    C2 4882  13.746  11.097  11.423  0.0235 -0.0885  0.0777
  306loPI    C3 4883  14.055  11.092  11.169  0.2221  0.0696  0.3127
  306loPI   PO4 4884  13.573  10.987  10.982 -0.3248 -0.0080  0.1802
  306loPI   GL1 4885  13.287  11.183  10.657 -0.2218 -0.4536 -0.2896
  306loPI   GL2 4886  13.504  11.087  10.458 -0.1670 -0.1248 -0.1893
  306loPI   C1A 4887  13.253  11.499  10.298 -0.1923 -0.3271  0.1928
  306loPI   C2A 4888  13.313  11.515   9.896 -0.1230 -0.0585 -0.1064
  306loPI   C3A 4889  13.361  11.561   9.431 -0.0817  0.3490 -0.0014
  306loPI   C4A 4890  13.388  11.670   8.912  0.3098 -0.0271  0.0003
  306loPI   C5A 4891  13.307  11.577   8.566  0.0554  0.0585 -0.1617
  306loPI   C6A 4892  13.326  11.683   8.080 -0.0410 -0.0857  0.2544
  306loPI   C1B 4893  13.686  11.075  10.020  0.0188  0.1098 -0.1319
  306loPI   C2B 4894  13.599  11.125   9.605 -0.1362  0.2988  0.4173
  306loPI   C3B 4895  13.579  11.171   9.245 -0.0034 -0.1705  0.2313
  306loPI   C4B 4896  13.803  11.413   8.990  0.0231  0.0031  0.1388
  307loPI    C1 4897   2.287  12.135  10.762 -0.0001  0.2432  0.2000
  307loPI    C2 4898   2.015  12.052  11.043 -0.0804  0.1087  0.0836
  307loPI    C3 4899   2.403  12.063  11.138 -0.0649 -0.3977  0.1078
  307loPI   PO4 4900   2.097  12.041  10.537 -0.0843  0.1865  0.1041
  307loPI   GL1 4901   2.066  11.954  10.155 -0.0302  0.3323  0.2838
  307loPI   GL2 4902   1.851  11.771  10.250  0.1474 -0.0673  0.1492
  307loPI   C1A 4903   1.888  11.981   9.675 -0.0126 -0.1842  0.0158
  307loPI   C2A 4904   1.898  12.012   9.243  0.1949  0.1513 -0.0797
  307loPI   C3A 4905   1.784  12.279   8.867 -0.2996 -0.4478  0.1657
  307loPI   C4A 4906   1.965  12.383   8.479 -0.3321 -0.0631  0.0202
  307loPI   C5A 4907   2.167  12.537   8.033  0.1619  0.0889 -0.0549
  307loPI   C6A 4908   2.495  12.742   7.842 -0.0617  0.1230 -0.1198
  307loPI   C1B 4909   1.798  11.559   9.870  0.0669  0.0555  0.1388
  307loPI   C2B 4910   1.846  11.524   9.346  0.3720  0.0787 -0.0790
  307loPI   C3B 4911   1.671  11.594   9.066 -0.1859 -0.1865  0.0669
  307loPI   C4B 4912   1.594  11.799   8.695 -0.1843 -0.1947  0.0303
  308loPI    C1 4913   0.483  14.679  10.930  0.1468 -0.2248  0.0300
  308loPI    C2 4914   0.370  14.749  11.307  0.0190  0.0183 -0.0513
  308loPI    C3 4915   0.715  14.898  11.171  0.0907 -0.1138 -0.0164
  308loPI   PO4 4916   0.455  14.466  10.901 -0.2407 -0.1049  0.0333
  308loPI   GL1 4917   0.409  14.256  10.550  0.1587  0.2646  0.1175
  308loPI   GL2 4918   0.110  14.474  10.529  0.0611  0.1518 -0.1964
  308loPI   C1A 4919   0.540  13.978  10.155 -0.0623  0.2531 -0.2516
  308loPI   C2A 4920   0.525  14.018   9.713  0.2786  0.0297 -0.0865
  308loPI   C3A 4921   0.520  14.104   9.303 -0.1180  0.0091 -0.3928
  308loPI   C4A 4922   0.561  14.235   8.865 -0.0452 -0.0162  0.1188
  308loPI   C5A 4923   0.566  14.316   8.420  0.0739  0.2427 -0.1316
  308loPI   C6A 4924   0.632  14.184   7.946 -0.0619  0.0691  0.1618
  308loPI   C1B 4925   0.180  14.427  10.101 -0.1251  0.3016  0.1034
  308loPI   C2B 4926   0.191  14.487   9.676 -0.0553 -0.0231 -0.2970
  308loPI   C3B 4927   0.145  14.519   9.261 -0.2615  0.0034  0.2970
  308loPI   C4B 4928   0.136  14.531   8.925 -0.3673  0.0084 -0.1977
  309loPI    C1 4929  10.312   0.919  10.850  0.0811 -0.0876 -0.0656
  309loPI    C2 4930  10.497   0.575  10.938 -0.0016 -0.0473  0.2828
  309loPI    C3 4931  10.433   0.846  11.224 -0.2870  0.0908  0.0937
  309loPI   PO4 4932  10.454   1.085  10.609  0.0653  0.0737 -0.0125
  309loPI   GL1 4933  10.558   1.255  10.189 -0.0660 -0.0930  0.1432
  309loPI   GL2 4934  10.295   1.100  10.098  0.1543  0.2040  0.0632
  309loPI   C1A 4935  10.682   1.082   9.717 -0.1660  0.2378 -0.1102
  309loPI   C2A 4936  10.654   1.126   9.289 -0.1095  0.0380 -0.2405
  309loPI   C3A 4937  10.462   1.288   8.829 -0.1047  0.1668  0.0649
  309loPI   C4A 4938  10.459   1.503   8.440 -0.0396 -0.0233  0.0919
  309loPI   C5A 4939  10.468   1.806   8.194 -0.1909  0.1837 -0.2550
  309loPI   C6A 4940  10.221   2.006   7.894  0.1680 -0.0144  0.2485
  309loPI   C1B 4941  10.342   1.436   9.696  0.1684 -0.0388  0.3885
  309loPI   C2B 4942  10.335   1.561   9.241  0.1610 -0.0076 -0.1351
  309loPI   C3B 4943  10.504   1.905   8.968 -0.2079 -0.0238 -0.2159
  309loPI   C4B 4944  10.690   2.035   8.647 -0.0196  0.2108 -0.1495
  310loPI    C1 4945   5.685   4.059  10.704  0.3532 -0.0295  0.0322
  310loPI    C2 4946   5.847   4.412  10.801  0.3294 -0.0265  0.0609
  310loPI    C3 4947   5.771   4.141  11.085 -0.0231  0.1007  0.0931
  310loPI   PO4 4948   5.433   4.200  10.586  0.0151  0.1664 -0.1124
  310loPI   GL1 4949   5.331   4.303  10.078  0.0531  0.2108 -0.1971
  310loPI   GL2 4950   5.085   4.215   9.987  0.3458  0.0033  0.0283
  310loPI   C1A 4951   5.516   4.177   9.666 -0.1077 -0.1964 -0.1126
  310loPI   C2A 4952   5.448   4.272   9.256 -0.0380 -0.2282 -0.1677
  310loPI   C3A 4953   5.275   4.228   8.887  0.1966  0.1775  0.2362
  310loPI   C4A 4954   5.273   4.375   8.386 -0.3981 -0.1412 -0.2273
  310loPI   C5A 4955   5.039   4.541   8.150 -0.0494  0.0598  0.3094
  310loPI   C6A 4956   5.109   4.725   7.807 -0.0135 -0.2712 -0.1626
  310loPI   C1B 4957   4.887   4.145   9.556 -0.0596 -0.1376 -0.0351
  310loPI   C2B 4958   4.837   4.101   9.081 -0.0622 -0.3410  0.1548
  310loPI   C3B 4959   4.816   3.893   8.649  0.2172 -0.0277 -0.1134
  310loPI   C4B 4960   4.901   3.817   8.311  0.0735  0.1387 -0.1066
  311loPI    C1 4961   9.631  10.063  11.132 -0.1841  0.1197 -0.2744
  311loPI    C2 4962   9.357  10.286  11.319  0.2195  0.0774  0.4010
  311loPI    C3 4963   9.379   9.893  11.392  0.1944  0.0025  0.0260
  311loPI   PO4 4964   9.670  10.144  10.831  0.3166  0.1455 -0.0511
  311loPI   GL1 4965   9.805  10.115  10.450  0.1425  0.0523  0.1649
  311loPI   GL2 4966   9.930  10.446  10.421 -0.2434  0.0773 -0.1338
  311loPI   C1A 4967   9.838  10.120   9.987 -0.0612 -0.1749 -0.1088
  311loPI   C2A 4968  10.030  10.068   9.749  0.2020  0.1609 -0.0033
  311loPI   C3A 4969  10.116   9.947   9.245 -0.0467  0.1029 -0.1060
  311loPI   C4A 4970   9.930   9.972   8.788 -0.0462  0.2991 -0.2202
  311loPI   C5A 4971   9.693   9.948   8.452  0.0507  0.0670 -0.0572
  311loPI   C6A 4972   9.698   9.642   8.124  0.1058 -0.1445 -0.2455
  311loPI   C1B 4973   9.929  10.621   9.943  0.1474  0.0876  0.3583
  311loPI   C2B 4974   9.930  10.504   9.466  0.0646  0.0667 -0.1302
  311loPI   C3B 4975  10.133  10.397   8.944 -0.0010 -0.0497  0.0584
  311loPI   C4B 4976  10.389  10.289   8.619 -0.0650  0.0200  0.1313
  312loPI    C1 4977   1.864   6.624  10.534 -0.0790  0.0438  0.2606
  312loPI    C2 4978   1.844   6.591  10.932 -0.1879 -0.0716  0.2466
  312loPI    C3 4979   1.680   6.907  10.749 -0.1003  0.0031  0.2961
  312loPI   PO4 4980   1.765   6.461  10.420  0.1739  0.2114 -0.1305
  312loPI   GL1 4981   1.756   6.277  10.003 -0.2151 -0.1375 -0.1263
  312loPI   GL2 4982   1.799   6.682   9.996  0.0649  0.1266  0.1532
  312loPI   C1A 4983   1.648   6.331   9.503  0.1275 -0.1174  0.0124
  312loPI   C2A 4984   1.244   6.301   9.349  0.2389 -0.1903 -0.4406
  312loPI   C3A 4985   0.783   6.230   9.176 -0.1275  0.1907 -0.1532
  312loPI   C4A 4986   0.556   6.126   8.790  0.1331  0.4044  0.0218
  312loPI   C5A 4987   0.254   5.876   8.541 -0.2421  0.1005  0.0821
  312loPI   C6A 4988   0.244   5.887   7.992  0.3526  0.1834 -0.1395
  312loPI   C1B 4989   1.872   6.801   9.570  0.0743 -0.0930  0.0478
  312loPI   C2B 4990   1.983   6.612   9.233 -0.0452 -0.1299  0.3194
  312loPI   C3B 4991   1.941   6.362   9.004 -0.1360 -0.1521 -0.0350
  312loPI   C4B 4992   1.546   6.119   8.981 -0.0550  0.0071  0.0133
  313loPI    C1 4993   9.489  15.979  11.045 -0.1097  0.1321  0.0342
  313loPI    C2 4994   9.300  15.721  11.286  0.0039  0.0810  0.0693
  313loPI    C3 4995   9.681  15.821  11.359  0.0730 -0.0163 -0.1486
  313loPI   PO4 4996   9.478  15.881  10.729  0.0239  0.1387  0.1089
  313loPI   GL1 4997   9.329  15.734  10.320  0.0163 -0.0114  0.3354
  313loPI   GL2 4998   9.416  15.923  10.113 -0.3145  0.2420  0.0620
  313loPI   C1A 4999   9.686  15.475   9.975  0.2106 -0.0791  0.0410
  313loPI   C2A 5000   9.707  15.545   9.526 -0.0564  0.1759 -0.1888
  313loPI   C3A 5001   9.625  15.381   9.168  0.2517  0.0084  0.1583
  313loPI   C4A 5002   9.308  15.165   8.896 -0.2194  0.0155  0.1709
  313loPI   C5A 5003   8.861  15.275   8.635 -0.0896  0.0034  0.1243
  313loPI   C6A 5004   8.728  15.370   8.250  0.3079 -0.1724 -0.0602
  313loPI   C1B 5005   9.443  15.879   9.741 -0.1892 -0.0334 -0.0962
  313loPI   C2B 5006   9.267  15.785   9.300 -0.2395  0.0760  0.1003
  313loPI   C3B 5007   9.175  15.641   8.822 -0.1459 -0.1769 -0.0801
  313loPI   C4B 5008   9.343  15.641   8.449 -0.0099 -0.0633  0.1443
  314loPI    C1 5009   4.972  12.684  11.166 -0.1277  0.3813 -0.0882
  314loPI    C2 5010   4.817  12.405  11.407 -0.1731  0.0347 -0.5061
  314loPI    C3 5011   4.764  12.793  11.489  0.0776 -0.0672  0.2055
  314loPI   PO4 5012   5.052  12.482  10.925  0.0220 -0.0404  0.3509
  314loPI   GL1 5013   4.981  12.275  10.580  0.3144 -0.3761 -0.1102
  314loPI   GL2 5014   5.363  12.345  10.557  0.2280 -0.1233  0.3078
  314loPI   C1A 5015   4.944  12.188  10.199 -0.2678 -0.2888  0.1181
  314loPI   C2A 5016   4.874  12.339   9.781 -0.0821  0.0557  0.0943
  314loPI   C3A 5017   4.957  12.263   9.285  0.2701 -0.0918 -0.2041
  314loPI   C4A 5018   5.166  12.408   8.775  0.1770 -0.0024 -0.4062
  314loPI   C5A 5019   5.409  12.766   8.654  0.1221  0.0980  0.0281
  314loPI   C6A 5020   5.321  13.095   8.321 -0.0332  0.2814  0.3354
  314loPI   C1B 5021   5.348  12.472  10.061 -0.1720 -0.1319 -0.1887
  314loPI   C2B 5022   5.324  12.553   9.560 -0.3443  0.1370  0.1771
  314loPI   C3B 5023   5.497  12.387   9.135  0.2015 -0.1282  0.1981
  314loPI   C4B 5024   5.685  12.314   8.720  0.0745 -0.0463  0.0840
  315loPI    C1 5025  13.477   0.192  10.996  0.2466  0.1762 -0.1743
  315loPI    C2 5026  13.733   0.113  11.293  0.1185  0.3238 -0.0228
  315loPI    C3 5027  13.393   0.310  11.369 -0.0333  0.1443 -0.2257
  315loPI   PO4 5028  13.460  -0.017  10.842 -0.1099 -0.0951 -0.0605
  315loPI   GL1 5029  13.287  -0.016  10.357  0.0006  0.0154 -0.2472
  315loPI   GL2 5030  13.060  -0.187  10.369  0.0290 -0.2916  0.0427
  315loPI   C1A 5031  13.406  -0.029   9.936  0.0163  0.0023  0.0422
  315loPI   C2A 5032  13.421   0.005   9.487  0.1432  0.1770  0.0967
  315loPI   C3A 5033  13.396   0.135   9.068 -0.0788  0.2628  0.3822
  315loPI   C4A 5034  13.313   0.236   8.673  0.0037 -0.1647  0.2333
  315loPI   C5A 5035  13.460  -0.043   8.323  0.2273  0.0948 -0.1091
  315loPI   C6A 5036  13.483   0.069   7.928  0.0002 -0.0535  0.2228
  315loPI   C1B 5037  13.076  -0.424   9.957  0.0943 -0.0617  0.0090
  315loPI   C2B 5038  13.191  -0.571   9.555 -0.0337  0.0929 -0.0058
  315loPI   C3B 5039  13.267  -0.525   9.169 -0.3074  0.0130  0.1103
  315loPI   C4B 5040  13.440  -0.285   8.812  0.3506  0.0847 -0.0575
  316loPI    C1 5041  13.994   9.676  11.073  0.0266 -0.1366  0.0257
  316loPI    C2 5042  13.867   9.724  11.449  0.1495  0.1585  0.0323
  316loPI    C3 5043  14.236   9.588  11.379  0.0708 -0.0509  0.0157
  316loPI   PO4 5044  13.794   9.602  10.880 -0.2991 -0.0986  0.0874
  316loPI   GL1 5045  13.859   9.748  10.443  0.0642  0.0145 -0.1252
  316loPI   GL2 5046  13.599  10.008  10.257  0.0674 -0.0415 -0.7343
  316loPI   C1A 5047  13.890   9.546   9.996  0.1949  0.1600 -0.1543
  316loPI   C2A 5048  13.921   9.634   9.571  0.0633 -0.0728  0.2997
  316loPI   C3A 5049  13.755   9.762   9.173  0.2459  0.3301 -0.0993
  316loPI   C4A 5050  13.612   9.768   8.757  0.3553 -0.1716 -0.1317
  316loPI   C5A 5051  13.429   9.776   8.347 -0.0233 -0.1578  0.0516
  316loPI   C6A 5052  13.082   9.843   8.041 -0.3430 -0.1939 -0.2477
  316loPI   C1B 5053  13.794  10.051   9.843  0.5713  0.0744  0.0220
  316loPI   C2B 5054  13.704  10.180   9.446  0.0332  0.0410 -0.1522
  316loPI   C3B 5055  13.508  10.190   9.038 -0.0828  0.0015  0.1647
  316loPI   C4B 5056  13.437  10.284   8.604  0.0503 -0.0305 -0.1828
  317loPI    C1 5057  10.735  11.803  10.957 -0.0872 -0.1466 -0.5497
  317loPI    C2 5058  10.927  11.474  10.835  0.2802 -0.0165 -0.3418
  317loPI    C3 5059  11.044  11.661  11.168 -0.1943  0.0887 -0.2269
  317loPI   PO4 5060  10.652  11.877  10.651  0.2515 -0.0003  0.4175
  317loPI   GL1 5061  10.909  11.823  10.298 -0.3445 -0.3117  0.0084
  317loPI   GL2 5062  11.152  11.547  10.390 -0.2537 -0.4642 -0.0418
  317loPI   C1A 5063  10.748  12.111  10.017 -0.0469 -0.0443 -0.0644
  317loPI   C2A 5064  10.670  12.179   9.470  0.1334  0.3067 -0.2452
  317loPI   C3A 5065  10.679  12.126   9.046  0.0017  0.0390 -0.0638
  317loPI   C4A 5066  10.704  12.033   8.725  0.1600 -0.3923 -0.1399
  317loPI   C5A 5067  11.073  11.944   8.588 -0.2482  0.1789 -0.0041
  317loPI   C6A 5068  11.212  11.510   8.547  0.1114 -0.0898  0.1901
  317loPI   C1B 5069  11.037  11.413   9.994  0.2287  0.0178 -0.0855
  317loPI   C2B 5070  10.915  11.654   9.679 -0.0934  0.0727  0.0140
  317loPI   C3B 5071  10.869  11.712   9.327  0.1909  0.0408  0.0668
  317loPI   C4B 5072  11.048  11.432   9.016  0.0694  0.0694  0.1151
  318loPI    C1 5073  10.534  12.728  11.102 -0.0448 -0.0764 -0.2393
  318loPI    C2 5074  10.892  12.893  11.031 -0.0132 -0.0913 -0.1164
  318loPI    C3 5075  10.717  12.940  11.388 -0.1450 -0.0640 -0.1839
  318loPI   PO4 5076  10.292  12.855  10.871  0.2193  0.1244 -0.0799
  318loPI   GL1 5077  10.248  12.751  10.461 -0.0299  0.3621  0.2680
  318loPI   GL2 5078   9.964  12.844  10.452  0.5313 -0.3176  0.0654
  318loPI   C1A 5079  10.098  12.723   9.996 -0.0017 -0.0318 -0.1655
  318loPI   C2A 5080  10.014  13.020   9.601  0.1794 -0.1207  0.0189
  318loPI   C3A 5081  10.010  12.873   9.227  0.0904 -0.4640 -0.0385
  318loPI   C4A 5082  10.108  13.044   8.792  0.0587 -0.4542 -0.1218
  318loPI   C5A 5083   9.893  13.021   8.366  0.0010  0.1895 -0.0055
  318loPI   C6A 5084   9.902  12.654   7.994  0.2051  0.0937 -0.0909
  318loPI   C1B 5085  10.192  13.232  10.184 -0.4607  0.0535  0.3018
  318loPI   C2B 5086  10.233  13.533   9.811 -0.0363  0.0169  0.0788
  318loPI   C3B 5087  10.302  13.483   9.347 -0.3194  0.4527  0.0227
  318loPI   C4B 5088  10.400  13.656   8.955  0.2014 -0.2866 -0.0072
  319loPI    C1 5089   4.334   7.593  10.546 -0.0669  0.4849  0.2388
  319loPI    C2 5090   4.050   7.516  10.817 -0.1165  0.3542  0.1512
  319loPI    C3 5091   4.435   7.524  10.927 -0.1247  0.1544  0.1972
  319loPI   PO4 5092   4.282   7.733  10.451  0.0543  0.0210  0.1287
  319loPI   GL1 5093   4.531   7.866  10.089  0.0814 -0.0182  0.2345
  319loPI   GL2 5094   4.607   7.515  10.062 -0.1973  0.1262  0.2665
  319loPI   C1A 5095   4.875   7.965   9.873 -0.3112 -0.0866 -0.0063
  319loPI   C2A 5096   4.983   8.031   9.466  0.0659 -0.1534 -0.0974
  319loPI   C3A 5097   5.111   8.169   9.097  0.1461  0.1721 -0.0740
  319loPI   C4A 5098   5.318   8.121   8.708 -0.3659  0.1184 -0.1225
  319loPI   C5A 5099   5.587   8.053   8.225 -0.0617  0.0516 -0.0511
  319loPI   C6A 5100   5.784   8.361   7.957 -0.2139 -0.0052  0.3575
  319loPI   C1B 5101   4.613   7.634   9.606 -0.0891  0.1408 -0.0260
  319loPI   C2B 5102   4.622   7.789   9.151  0.1186 -0.1154 -0.2809
  319loPI   C3B 5103   4.434   7.734   8.718 -0.0874 -0.1134 -0.1021
  319loPI   C4B 5104   4.110   7.715   8.416 -0.2399 -0.0154 -0.1852
  320loPI    C1 5105  15.316   0.945  11.045 -0.0795  0.2784 -0.0477
  320loPI    C2 5106  15.597   1.158  11.234  0.0653  0.1607 -0.1285
  320loPI    C3 5107  15.501   0.792  11.365 -0.1296  0.2436 -0.0353
  320loPI   PO4 5108  15.313   1.032  10.852  0.1031 -0.1824 -0.2092
  320loPI   GL1 5109  15.333   1.455  10.638  0.1701 -0.0848  0.3914
  320loPI   GL2 5110  15.601   1.603  10.460  0.3593 -0.1119  0.1487
  320loPI   C1A 5111  15.168   1.528  10.194  0.0037 -0.0763 -0.0755
  320loPI   C2A 5112  15.145   1.685   9.792  0.0919 -0.1215  0.0116
  320loPI   C3A 5113  15.313   1.579   9.398  0.0357  0.1538  0.0905
  320loPI   C4A 5114  15.284   1.329   9.009  0.1354 -0.3394 -0.0958
  320loPI   C5A 5115  15.426   1.445   8.713  0.1336  0.2511  0.0022
  320loPI   C6A 5116  15.385   1.723   8.279  0.0810 -0.4209 -0.4101
  320loPI   C1B 5117  15.728   1.612  10.057 -0.0342 -0.4235 -0.1173
  320loPI   C2B 5118  15.742   1.447   9.634  0.1541  0.1492 -0.0108
  320loPI   C3B 5119  15.750   1.522   9.131 -0.3774  0.2843 -0.6232
  320loPI   C4B 5120  15.929   1.720   8.675  0.2883 -0.2640  0.1784
  321loPI    C1 5121   2.582  16.967  10.922  0.0479  0.0531 -0.0164
  321loPI    C2 5122   2.576  17.171  11.266  0.0298 -0.1625  0.1131
  321loPI    C3 5123   2.554  16.771  11.270  0.0551 -0.1681 -0.1382
  321loPI   PO4 5124   2.759  17.057  10.761 -0.2081  0.0172  0.1060
  321loPI   GL1 5125   2.878  16.874  10.382  0.0483 -0.2712  0.1059
  321loPI   GL2 5126   2.578  16.677  10.436  0.2070  0.1792  0.1696
  321loPI   C1A 5127   2.763  17.088  10.014 -0.1005 -0.0147 -0.2550
  321loPI   C2A 5128   2.648  17.184   9.545  0.1842 -0.1635 -0.0691
  321loPI   C3A 5129   2.524  17.244   9.060  0.0659  0.3858 -0.1827
  321loPI   C4A 5130   2.532  17.394   8.586  0.0212  0.0585  0.2178
  321loPI   C5A 5131   2.545  17.591   8.256 -0.2466  0.1328  0.1504
  321loPI   C6A 5132   2.171  17.605   7.914 -0.2123  0.2533 -0.2812
  321loPI   C1B 5133   2.617  16.607  10.002 -0.0123 -0.1301  0.0380
  321loPI   C2B 5134   2.535  16.665   9.595 -0.0881  0.2074 -0.0383
  321loPI   C3B 5135   2.600  16.735   9.196  0.0054 -0.0114 -0.2778
  321loPI   C4B 5136   2.609  16.855   8.792 -0.0792 -0.2520 -0.3893
  322loPI    C1 5137  11.315  17.050  10.958  0.0318  0.0633  0.0149
  322loPI    C2 5138  11.529  16.789  10.744  0.1269  0.1038  0.0599
  322loPI    C3 5139  11.643  16.885  11.115 -0.0791 -0.0230  0.1578
  322loPI   PO4 5140  11.197  17.260  10.773 -0.1990  0.4160  0.0100
  322loPI   GL1 5141  11.327  17.542  10.315  0.4148  0.0963  0.0520
  322loPI   GL2 5142  11.273  17.873  10.278 -0.0879 -0.0115  0.1026
  322loPI   C1A 5143  11.337  17.504   9.891 -0.2345 -0.1298 -0.1549
  322loPI   C2A 5144  11.462  17.612   9.511  0.2834 -0.0411  0.0326
  322loPI   C3A 5145  11.528  17.628   9.038 -0.1596  0.1580 -0.0514
  322loPI   C4A 5146  11.574  17.701   8.693  0.0101 -0.2138  0.2565
  322loPI   C5A 5147  11.766  17.702   8.289 -0.0857  0.0796  0.1833
  322loPI   C6A 5148  11.671  17.886   7.960 -0.2421  0.0762 -0.3150
  322loPI   C1B 5149  11.333  18.011   9.866 -0.0983 -0.4172  0.0798
  322loPI   C2B 5150  11.481  18.177   9.481  0.2743 -0.1002  0.1466
  322loPI   C3B 5151  11.483  18.233   9.087 -0.0977 -0.1985 -0.0266
  322loPI   C4B 5152  11.390  18.207   8.628 -0.2863 -0.0170  0.0333
  323loPI    C1 5153  13.348  16.037  10.920 -0.0797  0.0159  0.0163
  323loPI    C2 5154  13.550  16.071  11.263 -0.0603  0.3741 -0.0267
  323loPI    C3 5155  13.197  15.884  11.258  0.1450 -0.0301  0.0977
  323loPI   PO4 5156  13.393  16.039  10.699  0.1934 -0.0785 -0.1087
  323loPI   GL1 5157  13.147  16.102  10.395 -0.0828  0.1605 -0.1294
  323loPI   GL2 5158  12.954  16.211  10.341  0.0821 -0.0737  0.0174
  323loPI   C1A 5159  13.325  15.868  10.051  0.0977  0.4318 -0.0236
  323loPI   C2A 5160  13.274  15.862   9.574 -0.3015 -0.4431 -0.0612
  323loPI   C3A 5161  13.313  16.016   9.165  0.1901  0.0587  0.1436
  323loPI   C4A 5162  13.267  16.054   8.786  0.2007 -0.3890  0.1700
  323loPI   C5A 5163  13.434  15.837   8.477  0.0743 -0.1170 -0.0618
  323loPI   C6A 5164  13.686  16.066   8.106 -0.1473 -0.0176  0.2499
  323loPI   C1B 5165  12.782  16.072   9.922 -0.0007  0.3015  0.1524
  323loPI   C2B 5166  12.859  16.044   9.473 -0.2175 -0.1296  0.3338
  323loPI   C3B 5167  12.912  16.333   9.178  0.3836  0.0668 -0.0134
  323loPI   C4B 5168  12.893  16.382   8.811 -0.0959  0.2361 -0.0418
  324loPI    C1 5169  16.866   0.600  11.299  0.1074  0.0801 -0.1480
  324loPI    C2 5170  16.499   0.655  11.449  0.1199 -0.0065 -0.0851
  324loPI    C3 5171  16.784   0.929  11.511  0.0661  0.0605 -0.1334
  324loPI   PO4 5172  16.839   0.550  11.068 -0.1845 -0.1397  0.0805
  324loPI   GL1 5173  17.082   0.823  10.841  0.0959 -0.0383  0.1442
  324loPI   GL2 5174  17.009   1.113  10.709  0.6015 -0.0313 -0.1089
  324loPI   C1A 5175  16.796   0.727  10.468 -0.0002  0.1575  0.0119
  324loPI   C2A 5176  16.734   0.497  10.148  0.0524  0.1109 -0.0951
  324loPI   C3A 5177  16.838   0.380   9.784 -0.0256 -0.1089  0.1716
  324loPI   C4A 5178  16.727   0.456   9.372 -0.2999  0.1336  0.1636
  324loPI   C5A 5179  16.766   0.513   8.954 -0.1078  0.1230  0.0645
  324loPI   C6A 5180  16.613   0.356   8.575 -0.2287  0.0586 -0.2051
  324loPI   C1B 5181  17.005   1.071  10.192  0.1310  0.0005  0.0128
  324loPI   C2B 5182  16.910   0.936   9.977 -0.1904 -0.0900 -0.0872
  324loPI   C3B 5183  16.950   0.866   9.467 -0.2255 -0.3908 -0.0141
  324loPI   C4B 5184  17.152   1.141   9.160 -0.0427  0.2221  0.1115
  325loPI    C1 5185   1.329   8.977  10.583 -0.0682  0.0399  0.0714
  325loPI    C2 5186   1.036   8.835  10.816  0.0393 -0.1602  0.0872
  325loPI    C3 5187   1.419   8.761  10.908  0.1005  0.1715  0.1139
  325loPI   PO4 5188   1.167   9.182  10.460 -0.0235 -0.0411 -0.1551
  325loPI   GL1 5189   1.176   9.280  10.047  0.1479  0.1226 -0.3998
  325loPI   GL2 5190   1.237   9.619  10.072  0.0166  0.1338  0.2886
  325loPI   C1A 5191   1.048   9.464   9.627  0.3247  0.1234  0.2200
  325loPI   C2A 5192   1.211   9.542   9.246  0.1657  0.0594 -0.0843
  325loPI   C3A 5193   1.262   9.344   8.890 -0.0384 -0.0738 -0.3272
  325loPI   C4A 5194   1.296   9.191   8.477  0.1701 -0.2830  0.4578
  325loPI   C5A 5195   1.416   9.473   8.158  0.1678  0.0004 -0.3057
  325loPI   C6A 5196   1.415   9.991   8.059  0.0487 -0.1849  0.0845
  325loPI   C1B 5197   1.546   9.665   9.749 -0.0805  0.0929  0.3737
  325loPI   C2B 5198   1.701   9.701   9.343  0.1996  0.0043  0.0592
  325loPI   C3B 5199   1.646   9.593   8.936  0.1426  0.2529  0.1070
  325loPI   C4B 5200   1.523   9.756   8.628  0.3235  0.2592 -0.0839
  326loPI    C1 5201  10.776  17.505  10.921 -0.2220  0.0867  0.0146
  326loPI    C2 5202  10.807  17.775  11.215  0.1573  0.0183  0.0432
  326loPI    C3 5203  11.073  17.478  11.189 -0.0270 -0.1273 -0.2189
  326loPI   PO4 5204  10.679  17.609  10.759 -0.1728 -0.2188  0.1936
  326loPI   GL1 5205  10.781  17.778  10.361 -0.1133 -0.0299  0.0702
  326loPI   GL2 5206  10.747  17.438  10.270 -0.1081  0.1940 -0.2722
  326loPI   C1A 5207  10.852  17.840   9.927 -0.1320 -0.0480  0.1827
  326loPI   C2A 5208  10.867  17.945   9.577 -0.1871  0.1081 -0.1145
  326loPI   C3A 5209  11.027  17.996   9.234 -0.1166 -0.2327  0.0909
  326loPI   C4A 5210  10.907  17.935   8.850  0.0087  0.0862 -0.0282
  326loPI   C5A 5211  10.568  17.793   8.403 -0.0394  0.4236 -0.0459
  326loPI   C6A 5212  10.518  17.281   8.243  0.0613  0.0229  0.1068
  326loPI   C1B 5213  10.879  17.316   9.947 -0.1053 -0.3930  0.0399
  326loPI   C2B 5214  10.890  17.446   9.577 -0.0884  0.0052  0.0504
  326loPI   C3B 5215  11.043  17.519   9.123  0.1456  0.1120  0.1558
  326loPI   C4B 5216  11.189  17.318   8.857  0.1510 -0.2823 -0.0440
  327loPI    C1 5217   4.044  12.373  11.029 -0.0833  0.2724 -0.0659
  327loPI    C2 5218   3.795  12.347  10.717 -0.1196  0.0078 -0.0175
  327loPI    C3 5219   3.675  12.228  11.080  0.0188  0.0442  0.0411
  327loPI   PO4 5220   4.141  12.655  10.857  0.0856 -0.0080 -0.1867
  327loPI   GL1 5221   4.380  12.894  10.709 -0.1017 -0.0369  0.2994
  327loPI   GL2 5222   4.489  13.215  10.607  0.3938 -0.4024 -0.0452
  327loPI   C1A 5223   4.229  13.000  10.233 -0.0010  0.1429 -0.2234
  327loPI   C2A 5224   4.065  13.023   9.756 -0.0748 -0.1722 -0.0701
  327loPI   C3A 5225   3.920  12.939   9.347  0.0068 -0.0167 -0.0641
  327loPI   C4A 5226   3.854  12.868   8.891  0.1180 -0.0001 -0.0126
  327loPI   C5A 5227   3.707  12.799   8.424 -0.3274  0.0754 -0.0609
  327loPI   C6A 5228   3.452  12.924   8.087 -0.2012  0.0282 -0.2164
  327loPI   C1B 5229   4.675  13.172  10.287  0.2979  0.1998 -0.0376
  327loPI   C2B 5230   4.684  13.282   9.823  0.0518  0.1985 -0.3780
  327loPI   C3B 5231   4.782  13.297   9.269  0.1239 -0.2142 -0.2352
  327loPI   C4B 5232   4.994  13.234   8.868 -0.0067 -0.2338 -0.1227
  328loPI    C1 5233   4.510   9.041  10.526 -0.2051  0.1625 -0.0378
  328loPI    C2 5234   4.262   9.113  10.832 -0.1122 -0.0402  0.0872
  328loPI    C3 5235   4.555   8.843  10.871  0.0895  0.1509 -0.0807
  328loPI   PO4 5236   4.535   9.345  10.421  0.0246 -0.3771  0.3347
  328loPI   GL1 5237   4.666   9.541  10.002 -0.0293  0.0117 -0.1109
  328loPI   GL2 5238   4.537   9.786  10.013 -0.1096  0.0052 -0.0234
  328loPI   C1A 5239   4.952   9.551   9.605 -0.0641  0.0558  0.0059
  328loPI   C2A 5240   5.051   9.749   9.269  0.0379  0.2337 -0.0834
  328loPI   C3A 5241   5.037  10.002   8.930 -0.3532 -0.0200 -0.2605
  328loPI   C4A 5242   4.789  10.170   8.550 -0.0018 -0.0141 -0.0135
  328loPI   C5A 5243   4.605  10.446   8.262 -0.3760  0.0271  0.0946
  328loPI   C6A 5244   4.369  10.734   8.062  0.0473 -0.0542  0.1005
  328loPI   C1B 5245   4.672   9.937   9.694 -0.1425 -0.0159  0.2468
  328loPI   C2B 5246   4.620  10.161   9.395  0.1777 -0.3226 -0.0730
  328loPI   C3B 5247   4.559  10.170   9.045 -0.1216  0.1182  0.3924
  328loPI   C4B 5248   4.192  10.454   8.866 -0.0615  0.0181 -0.3263
  329loPI    C1 5249  14.442  15.944  11.227  0.1815 -0.0351  0.0445
  329loPI    C2 5250  14.459  16.297  11.414  0.1419  0.0580 -0.1250
  329loPI    C3 5251  14.654  15.981  11.564  0.1559  0.1446  0.0417
  329loPI   PO4 5252  14.383  16.049  10.935 -0.3440  0.1622 -0.0081
  329loPI   GL1 5253  14.632  16.086  10.542 -0.1446  0.0047 -0.0692
  329loPI   GL2 5254  14.416  16.305  10.482  0.0073 -0.0747  0.2790
  329loPI   C1A 5255  14.758  15.793  10.247 -0.2939 -0.3332 -0.1541
  329loPI   C2A 5256  14.788  15.734   9.863  0.4329 -0.2823 -0.2502
  329loPI   C3A 5257  14.674  15.853   9.407 -0.0723  0.0531  0.0025
  329loPI   C4A 5258  14.772  15.895   9.007 -0.1553 -0.1554 -0.1313
  329loPI   C5A 5259  15.010  16.111   8.724 -0.1410  0.0325  0.1714
  329loPI   C6A 5260  14.970  15.942   8.260 -0.1939 -0.1804  0.2740
  329loPI   C1B 5261  14.373  16.262  10.061  0.3007 -0.1873  0.2467
  329loPI   C2B 5262  14.278  16.241   9.562 -0.1039 -0.0951 -0.0047
  329loPI   C3B 5263  14.290  16.267   9.173  0.3271 -0.3097  0.1621
  329loPI   C4B 5264  14.300  16.409   8.745 -0.1501  0.1774  0.0443
  330loPI    C1 5265   1.981   3.141  10.912 -0.2468  0.0496 -0.0644
  330loPI    C2 5266   1.879   3.495  11.066 -0.0008  0.1366 -0.0975
  330loPI    C3 5267   2.090   3.235  11.285 -0.0537  0.0702 -0.1250
  330loPI   PO4 5268   2.034   3.205  10.689  0.0274 -0.0510  0.0322
  330loPI   GL1 5269   2.066   3.351  10.354  0.0368 -0.1584  0.1976
  330loPI   GL2 5270   2.373   3.573  10.223 -0.2210  0.0153 -0.1272
  330loPI   C1A 5271   2.179   3.136   9.949 -0.1415 -0.2490 -0.1309
  330loPI   C2A 5272   2.085   3.175   9.508  0.2175  0.2618  0.0264
  330loPI   C3A 5273   1.843   3.347   9.156 -0.1946  0.3437  0.0524
  330loPI   C4A 5274   1.904   3.295   8.680  0.2080  0.0991 -0.2014
  330loPI   C5A 5275   1.834   2.911   8.519  0.2458  0.2443  0.1967
  330loPI   C6A 5276   1.759   2.640   8.253  0.4405 -0.0628  0.0569
  330loPI   C1B 5277   2.376   3.729   9.857  0.2313  0.2102 -0.1203
  330loPI   C2B 5278   2.075   3.727   9.514 -0.1287  0.0043  0.3289
  330loPI   C3B 5279   1.862   3.894   9.195  0.2064  0.2467 -0.1246
  330loPI   C4B 5280   1.585   3.693   8.849 -0.1259 -0.3552  0.1849
  331loPI    C1 5281   9.431  14.372  11.096 -0.0327 -0.0005 -0.2972
  331loPI    C2 5282   9.075  14.193  11.129 -0.0467  0.0483 -0.1780
  331loPI    C3 5283   9.312  14.228  11.450  0.0122  0.1263 -0.2297
  331loPI   PO4 5284   9.510  14.329  10.804  0.1241  0.0630  0.1950
  331loPI   GL1 5285   9.485  14.127  10.412  0.1674 -0.1751 -0.0113
  331loPI   GL2 5286   9.787  14.147  10.358 -0.1430 -0.0985  0.0390
  331loPI   C1A 5287   9.268  14.265  10.137  0.1599 -0.1537 -0.0926
  331loPI   C2A 5288   9.144  14.362   9.753 -0.0265  0.1167 -0.3525
  331loPI   C3A 5289   9.358  14.612   9.530  0.0836 -0.2175  0.0741
  331loPI   C4A 5290   9.556  14.900   9.243  0.2610  0.2190  0.2960
  331loPI   C5A 5291   9.627  14.770   8.760 -0.2747  0.0927 -0.0622
  331loPI   C6A 5292   9.478  14.368   8.641  0.0576 -0.0083  0.2725
  331loPI   C1B 5293   9.852  13.923   9.922 -0.1351 -0.0723 -0.1566
  331loPI   C2B 5294   9.937  13.835   9.404 -0.3502 -0.0727  0.1599
  331loPI   C3B 5295   9.574  13.816   9.210  0.1351 -0.0761  0.4388
  331loPI   C4B 5296   9.193  13.880   8.867  0.1211  0.2170  0.0624
  332loPI    C1 5297   2.946  11.308  10.731 -0.0454  0.1511  0.0080
  332loPI    C2 5298   2.671  11.524  10.925  0.3390  0.3719  0.3234
  332loPI    C3 5299   2.936  11.307  11.131  0.1708 -0.1428  0.0163
  332loPI   PO4 5300   3.071  11.472  10.605 -0.1767 -0.3125  0.3177
  332loPI   GL1 5301   3.107  11.654  10.243  0.1600  0.1555 -0.0555
  332loPI   GL2 5302   2.840  11.744  10.231  0.1174  0.2654  0.0881
  332loPI   C1A 5303   3.279  11.848   9.915  0.0083 -0.2104  0.0266
  332loPI   C2A 5304   3.286  11.809   9.553 -0.2671  0.1424 -0.1913
  332loPI   C3A 5305   3.260  11.868   9.186 -0.2805  0.0016  0.1950
  332loPI   C4A 5306   3.204  11.982   8.830  0.1100 -0.0043  0.0444
  332loPI   C5A 5307   3.054  11.949   8.416  0.1119 -0.0057 -0.2322
  332loPI   C6A 5308   3.043  12.045   7.992 -0.1019 -0.2009  0.0220
  332loPI   C1B 5309   2.771  11.720   9.802 -0.0395  0.2425  0.1920
  332loPI   C2B 5310   2.777  11.713   9.439 -0.0268 -0.1195 -0.2886
  332loPI   C3B 5311   2.733  11.944   9.087 -0.2335 -0.0845  0.1761
  332loPI   C4B 5312   2.635  11.869   8.677 -0.0372  0.1300 -0.0691
  333loPI    C1 5313  16.994  13.124  10.824  0.0795 -0.0983 -0.2209
  333loPI    C2 5314  16.939  12.963  11.186 -0.0860  0.0787 -0.1652
  333loPI    C3 5315  17.253  12.853  10.963 -0.0596 -0.1335 -0.0264
  333loPI   PO4 5316  16.781  13.090  10.686 -0.1396  0.4186  0.0320
  333loPI   GL1 5317  16.722  12.960  10.285  0.1246 -0.1362  0.1810
  333loPI   GL2 5318  16.478  12.952  10.062  0.0036  0.0987  0.1613
  333loPI   C1A 5319  16.947  12.961   9.890 -0.1425  0.1463 -0.0518
  333loPI   C2A 5320  17.004  13.096   9.525  0.2299 -0.0653  0.5937
  333loPI   C3A 5321  16.971  13.135   9.173  0.1256  0.1577 -0.2011
  333loPI   C4A 5322  16.812  13.238   8.796 -0.3272 -0.0967  0.0074
  333loPI   C5A 5323  16.637  13.096   8.441 -0.0189 -0.4723 -0.2106
  333loPI   C6A 5324  16.379  13.128   8.032 -0.0564 -0.0452  0.1954
  333loPI   C1B 5325  16.529  12.994   9.563 -0.0262 -0.0705  0.1304
  333loPI   C2B 5326  16.510  13.024   9.178  0.0932 -0.1500 -0.1896
  333loPI   C3B 5327  16.756  12.745   8.797  0.0692  0.0068  0.2964
  333loPI   C4B 5328  16.868  12.616   8.440  0.0973  0.1797  0.0366
  334loPI    C1 5329   4.173  13.177  11.238 -0.1117  0.1234 -0.1909
  334loPI    C2 5330   4.530  13.047  11.114  0.0478  0.1599  0.2148
  334loPI    C3 5331   4.507  13.314  11.411 -0.3198  0.1151  0.2304
  334loPI   PO4 5332   4.125  13.379  10.952 -0.3111 -0.2386 -0.1239
  334loPI   GL1 5333   4.015  13.488  10.596  0.3761 -0.0745  0.4388
  334loPI   GL2 5334   3.727  13.576  10.651  0.2521  0.1554 -0.0665
  334loPI   C1A 5335   4.249  13.486  10.130  0.0282  0.3393  0.1324
  334loPI   C2A 5336   4.234  13.561   9.799 -0.1101 -0.1040 -0.0559
  334loPI   C3A 5337   4.236  13.490   9.368 -0.1883  0.0250  0.3260
  334loPI   C4A 5338   4.432  13.599   9.005  0.1108  0.0561  0.1913
  334loPI   C5A 5339   4.682  13.750   8.786 -0.1533  0.2850  0.0173
  334loPI   C6A 5340   4.919  13.602   8.425 -0.0176 -0.0036 -0.1099
  334loPI   C1B 5341   3.761  13.387  10.104 -0.0716 -0.1066  0.0949
  334loPI   C2B 5342   3.705  13.398   9.667 -0.0755  0.1593  0.0988
  334loPI   C3B 5343   3.677  13.432   9.200 -0.0609 -0.3932  0.2441
  334loPI   C4B 5344   4.020  13.360   8.925 -0.0470  0.2530  0.0278
  335loPI    C1 5345   2.758  16.044  11.054  0.0700 -0.1631 -0.1236
  335loPI    C2 5346   2.878  15.975  11.430  0.1991 -0.0174 -0.1369
  335loPI    C3 5347   2.601  16.254  11.356 -0.0638 -0.2689 -0.1185
  335loPI   PO4 5348   2.986  16.110  10.978 -0.0499 -0.2314  0.2089
  335loPI   GL1 5349   3.146  15.868  10.565  0.2900  0.0184 -0.2479
  335loPI   GL2 5350   3.364  16.060  10.606 -0.1379 -0.1719 -0.2111
  335loPI   C1A 5351   3.275  15.632  10.234 -0.0614 -0.1727  0.0947
  335loPI   C2A 5352   3.402  15.752   9.790  0.2104  0.1148  0.0954
  335loPI   C3A 5353   3.397  15.793   9.330 -0.1432  0.0006 -0.1247
  335loPI   C4A 5354   3.318  15.486   9.029  0.0741 -0.2927 -0.1824
  335loPI   C5A 5355   3.030  15.360   8.736 -0.0034 -0.3286 -0.0668
  335loPI   C6A 5356   2.968  15.000   8.374 -0.0808  0.2699 -0.0696
  335loPI   C1B 5357   3.547  16.097  10.229 -0.2619 -0.1280  0.1480
  335loPI   C2B 5358   3.596  16.291   9.892 -0.1205 -0.1118  0.1823
  335loPI   C3B 5359   3.582  16.251   9.537  0.1114  0.2394 -0.1848
  335loPI   C4B 5360   3.396  16.432   9.253  0.1159  0.2431 -0.0032
  336loPI    C1 5361  13.751   1.663  11.091 -0.0718  0.2452 -0.0158
  336loPI    C2 5362  13.598   1.996  11.250 -0.0998 -0.0114  0.5160
  336loPI    C3 5363  13.653   1.672  11.478 -0.1048 -0.3873  0.0019
  336loPI   PO4 5364  13.850   1.765  10.844  0.0312 -0.2150 -0.0377
  336loPI   GL1 5365  13.551   1.825  10.412  0.3030  0.0679  0.0286
  336loPI   GL2 5366  13.616   2.046  10.368 -0.2615 -0.1656 -0.2711
  336loPI   C1A 5367  13.263   1.662  10.143  0.3788 -0.0116  0.3853
  336loPI   C2A 5368  12.985   1.745   9.679 -0.1110 -0.0496 -0.2916
  336loPI   C3A 5369  12.822   1.994   9.318  0.1226 -0.1813 -0.0748
  336loPI   C4A 5370  12.718   2.126   8.901  0.0788  0.1998 -0.0374
  336loPI   C5A 5371  12.531   1.805   8.653 -0.1237 -0.1549  0.3502
  336loPI   C6A 5372  12.461   1.476   8.337  0.1292 -0.0350  0.1793
  336loPI   C1B 5373  13.800   2.079   9.955  0.1302  0.0289  0.1238
  336loPI   C2B 5374  13.869   1.975   9.560  0.3237 -0.2513  0.4424
  336loPI   C3B 5375  13.843   1.901   9.139 -0.1215 -0.1033 -0.1787
  336loPI   C4B 5376  14.111   1.911   8.835 -0.3472  0.1138 -0.3435
  337loPI    C1 5377   5.117   5.077  10.579 -0.2466  0.0757  0.1739
  337loPI    C2 5378   5.448   5.253  10.719 -0.0679 -0.0161 -0.1229
  337loPI    C3 5379   5.210   5.048  10.967  0.0449  0.1313  0.1107
  337loPI   PO4 5380   4.862   5.228  10.556 -0.2632  0.0520  0.0351
  337loPI   GL1 5381   4.688   5.130  10.121 -0.1712  0.1980 -0.0397
  337loPI   GL2 5382   4.451   4.850  10.206  0.0011  0.0771 -0.1517
  337loPI   C1A 5383   4.650   5.177   9.566 -0.1692 -0.2115 -0.1142
  337loPI   C2A 5384   4.768   5.121   9.086  0.0740 -0.1420 -0.2218
  337loPI   C3A 5385   4.953   5.042   8.616  0.0642 -0.0759  0.1083
  337loPI   C4A 5386   4.965   5.398   8.305 -0.0244 -0.0553  0.1865
  337loPI   C5A 5387   5.009   5.829   8.161 -0.0403  0.3191 -0.0107
  337loPI   C6A 5388   4.946   6.192   8.066 -0.2353 -0.0161 -0.0181
  337loPI   C1B 5389   4.410   4.858   9.795 -0.1400 -0.1258  0.1043
  337loPI   C2B 5390   4.319   4.836   9.313 -0.0565  0.1382 -0.0486
  337loPI   C3B 5391   4.443   4.728   8.916 -0.3828 -0.2483 -0.0622
  337loPI   C4B 5392   4.375   4.778   8.462  0.0743 -0.0194 -0.1835
  338loPI    C1 5393  17.777  15.374  11.036  0.3916  0.0567 -0.1084
  338loPI    C2 5394  17.952  15.144  11.312  0.1277  0.2952  0.2665
  338loPI    C3 5395  17.962  15.542  11.348  0.1424  0.3319 -0.1050
  338loPI   PO4 5396  17.811  15.287  10.827  0.0012 -0.0421 -0.3094
  338loPI   GL1 5397  18.066  15.465  10.469 -0.3682  0.1005 -0.1424
  338loPI   GL2 5398  18.138  15.089  10.473 -0.0101  0.0479 -0.0611
  338loPI   C1A 5399  17.958  15.651  10.127 -0.1777  0.0168  0.1363
  338loPI   C2A 5400  17.966  15.825   9.795  0.0319  0.0071 -0.0947
  338loPI   C3A 5401  18.104  15.816   9.304  0.0051  0.0172  0.0473
  338loPI   C4A 5402  18.082  15.979   8.878 -0.1155  0.1120 -0.1999
  338loPI   C5A 5403  18.151  16.104   8.559 -0.1812  0.0399  0.1952
  338loPI   C6A 5404  18.313  16.232   8.065 -0.2268 -0.1255  0.1003
  338loPI   C1B 5405  17.989  15.154  10.092  0.1035  0.0246 -0.2694
  338loPI   C2B 5406  17.992  15.344   9.696 -0.0020 -0.2131  0.0616
  338loPI   C3B 5407  17.924  15.320   9.240  0.1929  0.1075 -0.0674
  338loPI   C4B 5408  17.991  15.459   8.888 -0.0158 -0.2468 -0.2029
  339loPI    C1 5409   8.470   1.471  10.927  0.0547 -0.0671 -0.2038
  339loPI    C2 5410   8.793   1.251  11.013 -0.0618 -0.1950 -0.0886
  339loPI    C3 5411   8.807   1.650  11.047  0.0150 -0.2158  0.1413
  339loPI   PO4 5412   8.353   1.425  10.642 -0.0104 -0.0348  0.3203
  339loPI   GL1 5413   8.252   1.533  10.171  0.1508 -0.1932  0.0188
  339loPI   GL2 5414   8.059   1.329  10.014 -0.0787 -0.0590  0.0451
  339loPI   C1A 5415   8.425   1.732   9.908 -0.1558  0.0759  0.0472
  339loPI   C2A 5416   8.454   1.679   9.415  0.0204 -0.1196 -0.0353
  339loPI   C3A 5417   8.526   1.635   8.989 -0.2809  0.1598 -0.0258
  339loPI   C4A 5418   8.536   1.597   8.723  0.0053 -0.0530  0.0378
  339loPI   C5A 5419   8.533   1.450   8.376  0.3639  0.1400 -0.1306
  339loPI   C6A 5420   8.685   1.398   8.007 -0.1116  0.2575  0.2458
  339loPI   C1B 5421   8.051   1.325   9.509 -0.1926  0.0460  0.1470
  339loPI   C2B 5422   8.088   1.264   9.099  0.2302 -0.2680  0.0246
  339loPI   C3B 5423   8.191   1.215   8.609  0.0753  0.1503  0.0528
  339loPI   C4B 5424   7.869   1.111   8.341 -0.0149  0.0694  0.2173
  340loPI    C1 5425   2.202   5.559  10.919  0.0170  0.0259  0.1461
  340loPI    C2 5426   2.203   5.823  11.219 -0.0810  0.0963  0.0849
  340loPI    C3 5427   2.528   5.601  11.148 -0.0655  0.0617  0.2580
  340loPI   PO4 5428   2.140   5.661  10.636 -0.1262  0.1907 -0.0480
  340loPI   GL1 5429   1.940   5.548  10.333  0.0566 -0.2699 -0.1021
  340loPI   GL2 5430   1.773   5.797  10.133  0.1157 -0.0857  0.0558
  340loPI   C1A 5431   2.121   5.387   9.888  0.0187 -0.2459 -0.1359
  340loPI   C2A 5432   2.117   5.464   9.527  0.1969  0.0025 -0.0253
  340loPI   C3A 5433   2.251   5.511   9.146  0.0966  0.0187 -0.0380
  340loPI   C4A 5434   2.521   5.714   8.794  0.0302 -0.2859 -0.1759
  340loPI   C5A 5435   2.806   5.977   8.514  0.0120 -0.2184  0.1580
  340loPI   C6A 5436   2.892   6.371   8.262  0.0133  0.0102  0.1404
  340loPI   C1B 5437   1.878   5.862   9.740  0.0177 -0.0453 -0.1568
  340loPI   C2B 5438   1.923   5.894   9.295  0.0127 -0.1523 -0.1370
  340loPI   C3B 5439   1.968   5.784   8.841 -0.0409  0.1330 -0.1287
  340loPI   C4B 5440   2.144   5.547   8.465 -0.0341 -0.1424  0.0687
  341loPI    C1 5441   0.980  15.999  11.097  0.0900  0.0519  0.0352
  341loPI    C2 5442   0.988  16.396  11.146  0.2549  0.0881 -0.2587
  341loPI    C3 5443   1.079  16.154  11.452 -0.0434  0.2696 -0.0209
  341loPI   PO4 5444   0.909  15.997  10.859  0.0648  0.0233 -0.3004
  341loPI   GL1 5445   0.886  16.017  10.376  0.2311 -0.1949  0.1928
  341loPI   GL2 5446   0.816  15.743  10.191  0.2689 -0.1323  0.1456
  341loPI   C1A 5447   0.799  16.349  10.208  0.0548 -0.1713 -0.2551
  341loPI   C2A 5448   0.620  16.385   9.865 -0.1912 -0.3944  0.3547
  341loPI   C3A 5449   0.766  16.476   9.425  0.6137  0.1906 -0.1682
  341loPI   C4A 5450   0.700  16.607   9.039 -0.0547  0.0331 -0.1572
  341loPI   C5A 5451   0.709  16.686   8.608 -0.1235 -0.0669 -0.2016
  341loPI   C6A 5452   0.650  16.686   8.173 -0.1328  0.3220 -0.1372
  341loPI   C1B 5453   0.881  15.696   9.792 -0.3418  0.0833 -0.1254
  341loPI   C2B 5454   0.975  15.674   9.359  0.4444  0.2259 -0.1808
  341loPI   C3B 5455   1.009  15.674   8.913 -0.0262 -0.1751  0.1774
  341loPI   C4B 5456   0.956  15.895   8.511  0.1572 -0.4198 -0.0608
  342loPI    C1 5457   4.091  16.678  11.276  0.0050 -0.0193  0.1241
  342loPI    C2 5458   4.049  16.368  11.525  0.2161 -0.1334  0.0210
  342loPI    C3 5459   4.403  16.441  11.354  0.1247  0.0651 -0.0877
  342loPI   PO4 5460   3.831  16.613  11.106 -0.0116  0.0073  0.0530
  342loPI   GL1 5461   3.899  16.552  10.699  0.1490  0.0822 -0.1409
  342loPI   GL2 5462   3.804  16.793  10.662 -0.1309  0.1807 -0.0046
  342loPI   C1A 5463   3.892  16.450  10.285  0.4234 -0.1058 -0.0107
  342loPI   C2A 5464   3.947  16.628   9.880 -0.1093  0.1932  0.1864
  342loPI   C3A 5465   4.002  16.525   9.460  0.1308  0.1164  0.0661
  342loPI   C4A 5466   3.822  16.453   9.047 -0.2471 -0.2946 -0.0135
  342loPI   C5A 5467   4.061  16.542   8.679  0.0225  0.2454  0.2460
  342loPI   C6A 5468   4.194  16.826   8.367 -0.3092  0.0903 -0.3710
  342loPI   C1B 5469   3.981  16.919  10.297  0.2142  0.2876 -0.0029
  342loPI   C2B 5470   4.049  17.149   9.951  0.0413  0.3743  0.0753
  342loPI   C3B 5471   4.085  17.018   9.510  0.2574 -0.1269 -0.1239
  342loPI   C4B 5472   4.131  16.962   9.128  0.0108  0.0079  0.1721
  343loPI    C1 5473  14.098  17.608  11.173 -0.0722 -0.2740  0.0941
  343loPI    C2 5474  13.902  17.556  11.518 -0.0468 -0.0402  0.1456
  343loPI    C3 5475  14.301  17.576  11.516 -0.0516  0.0622  0.1170
  343loPI   PO4 5476  13.988  17.786  11.034 -0.4415  0.1110 -0.0084
  343loPI   GL1 5477  13.899  17.600  10.577 -0.0854  0.2376  0.1885
  343loPI   GL2 5478  13.805  17.834  10.508 -0.0897 -0.0154  0.0017
  343loPI   C1A 5479  14.175  17.522  10.267  0.1353 -0.1736  0.2215
  343loPI   C2A 5480  14.211  17.653   9.831  0.1997 -0.1894  0.2247
  343loPI   C3A 5481  14.087  17.795   9.518  0.0864 -0.2892  0.0287
  343loPI   C4A 5482  13.917  17.995   9.164  0.1627 -0.4167  0.0764
  343loPI   C5A 5483  13.805  18.100   8.722  0.2594  0.0096  0.2959
  343loPI   C6A 5484  13.726  18.305   8.414 -0.1814 -0.0083 -0.2820
  343loPI   C1B 5485  13.869  17.911  10.071  0.3248 -0.2448  0.0505
  343loPI   C2B 5486  13.808  18.242   9.720  0.1863 -0.0532  0.0572
  343loPI   C3B 5487  13.651  18.419   9.384 -0.0118 -0.1027  0.0897
  343loPI   C4B 5488  13.865  18.813   9.162  0.1121 -0.0801  0.0899
  344loPI    C1 5489   6.561  13.960  11.338  0.1304 -0.0921 -0.0686
  344loPI    C2 5490   6.500  13.723  11.655  0.1630  0.1187  0.0973
  344loPI    C3 5491   6.868  13.762  11.502  0.1292 -0.0661 -0.0351
  344loPI   PO4 5492   6.407  13.935  11.095 -0.0035 -0.1568  0.0849
  344loPI   GL1 5493   6.458  13.938  10.652 -0.0920  0.0330 -0.1373
  344loPI   GL2 5494   6.374  13.716  10.446  0.1072 -0.0603 -0.0023
  344loPI   C1A 5495   6.588  14.079  10.199 -0.3552 -0.0437 -0.0570
  344loPI   C2A 5496   6.498  14.079   9.811  0.1530  0.2145 -0.3391
  344loPI   C3A 5497   6.322  14.241   9.300  0.1538 -0.0651  0.1404
  344loPI   C4A 5498   6.195  14.197   8.902  0.2417  0.0870 -0.0008
  344loPI   C5A 5499   6.214  13.855   8.521 -0.2510  0.0343  0.0996
  344loPI   C6A 5500   6.225  13.726   8.046  0.3617  0.1386 -0.0535
  344loPI   C1B 5501   6.305  13.700  10.070  0.1913  0.1989 -0.0052
  344loPI   C2B 5502   6.179  13.637   9.692 -0.2955 -0.1413 -0.1236
  344loPI   C3B 5503   6.051  13.766   9.321  0.2838 -0.0167 -0.1235
  344loPI   C4B 5504   5.800  14.148   9.274 -0.2283 -0.4771 -0.0946
  345loPI    C1 5505   3.794  16.119  11.118 -0.0236 -0.4551 -0.1026
  345loPI    C2 5506   3.437  16.035  11.278 -0.0703 -0.0501  0.0163
  345loPI    C3 5507   3.772  15.921  11.465 -0.1322 -0.0604  0.1218
  345loPI   PO4 5508   3.786  16.129  10.942 -0.0601 -0.1051 -0.0169
  345loPI   GL1 5509   3.902  15.932  10.538  0.0968 -0.2217  0.2509
  345loPI   GL2 5510   3.719  15.660  10.464 -0.1030  0.1186  0.2276
  345loPI   C1A 5511   4.131  16.042  10.177 -0.1246  0.0352  0.0254
  345loPI   C2A 5512   4.022  16.092   9.814  0.3416 -0.1721  0.1078
  345loPI   C3A 5513   4.238  15.989   9.426 -0.0903 -0.1623  0.2253
  345loPI   C4A 5514   4.253  16.137   8.945  0.4197 -0.1574 -0.3118
  345loPI   C5A 5515   4.497  16.224   8.651 -0.1709 -0.2090 -0.0614
  345loPI   C6A 5516   4.869  16.179   8.418 -0.2229  0.1204 -0.0352
  345loPI   C1B 5517   3.817  15.709  10.036 -0.4327  0.2519 -0.2083
  345loPI   C2B 5518   3.835  15.655   9.586  0.2934  0.0081 -0.3566
  345loPI   C3B 5519   3.800  15.930   9.131 -0.3817 -0.1284  0.0684
  345loPI   C4B 5520   3.859  16.100   8.651 -0.0083  0.0245 -0.0700
  346loPI    C1 5521  13.700   8.519  10.844  0.0294 -0.1067 -0.0946
  346loPI    C2 5522  13.711   8.137  10.962 -0.1042 -0.0516  0.1005
  346loPI    C3 5523  13.450   8.391  11.128  0.0812  0.1589  0.0747
  346loPI   PO4 5524  13.686   8.579  10.614 -0.0340  0.1487  0.2063
  346loPI   GL1 5525  13.923   8.427  10.235  0.1752 -0.0562 -0.2168
  346loPI   GL2 5526  13.927   8.832  10.314  0.0388 -0.0207 -0.2108
  346loPI   C1A 5527  14.185   8.513   9.904 -0.2079 -0.2919 -0.3035
  346loPI   C2A 5528  14.244   8.607   9.483  0.2518 -0.3408 -0.0921
  346loPI   C3A 5529  14.241   8.712   9.069  0.2149 -0.1388 -0.1413
  346loPI   C4A 5530  13.969   8.730   8.682  0.1314 -0.0780 -0.1287
  346loPI   C5A 5531  13.886   8.925   8.234  0.0353  0.1716  0.0196
  346loPI   C6A 5532  13.616   9.306   8.277 -0.0060 -0.0606 -0.0228
  346loPI   C1B 5533  13.664   9.064  10.039 -0.1115 -0.1922 -0.1323
  346loPI   C2B 5534  13.434   9.327   9.743 -0.2463  0.1014  0.1232
  346loPI   C3B 5535  13.500   9.372   9.248  0.3386  0.0182 -0.0973
  346loPI   C4B 5536  13.309   9.291   8.839  0.0925  0.1663  0.1497
  347loPI    C1 5537  15.967  15.010  11.107  0.1147  0.0510  0.1002
  347loPI    C2 5538  16.158  15.349  11.201 -0.0246  0.1060  0.1882
  347loPI    C3 5539  15.811  15.259  11.378 -0.2517  0.1693 -0.2109
  347loPI   PO4 5540  16.112  14.921  10.938 -0.0086  0.0234 -0.0537
  347loPI   GL1 5541  16.169  14.890  10.497 -0.0191 -0.1037 -0.2317
  347loPI   GL2 5542  16.441  14.960  10.436 -0.1216  0.0502 -0.2066
  347loPI   C1A 5543  15.986  14.817  10.047 -0.3984 -0.0065 -0.1931
  347loPI   C2A 5544  15.882  14.744   9.680 -0.1593  0.2293  0.1053
  347loPI   C3A 5545  15.904  14.796   9.263  0.4376  0.1028 -0.3520
  347loPI   C4A 5546  15.910  14.859   8.795  0.0503  0.0802  0.0310
  347loPI   C5A 5547  15.909  14.778   8.390  0.1472 -0.4366 -0.2529
  347loPI   C6A 5548  15.790  14.614   7.983  0.0669  0.0031  0.1994
  347loPI   C1B 5549  16.476  15.032  10.082 -0.0909  0.4752  0.0198
  347loPI   C2B 5550  16.480  15.020   9.634 -0.0534 -0.1696  0.0538
  347loPI   C3B 5551  16.431  14.860   9.333 -0.0367  0.2021  0.0626
  347loPI   C4B 5552  16.446  14.931   8.883  0.0960  0.1262 -0.2641
  348loPI    C1 5553  13.067   3.321  11.112 -0.2035 -0.1864  0.2963
  348loPI    C2 5554  13.138   2.971  11.292  0.1447 -0.1608  0.2165
  348loPI    C3 5555  13.218   3.314  11.482 -0.0063 -0.1256  0.2182
  348loPI   PO4 5556  13.036   3.290  10.818  0.1377  0.2256 -0.2452
  348loPI   GL1 5557  12.875   3.032  10.475  0.2352 -0.2718  0.0081
  348loPI   GL2 5558  12.660   2.712  10.543 -0.0659  0.0408 -0.0921
  348loPI   C1A 5559  12.776   3.303  10.208 -0.0355 -0.0355 -0.0273
  348loPI   C2A 5560  12.851   3.418   9.699 -0.0859  0.1356  0.0805
  348loPI   C3A 5561  12.672   3.636   9.307  0.1108 -0.0787  0.1238
  348loPI   C4A 5562  12.584   3.513   8.840  0.3999 -0.2082  0.0681
  348loPI   C5A 5563  12.579   3.268   8.439  0.1711  0.0372  0.0421
  348loPI   C6A 5564  12.362   2.866   8.357 -0.1314 -0.1902  0.3169
  348loPI   C1B 5565  12.938   2.669  10.175  0.0299 -0.0485 -0.2322
  348loPI   C2B 5566  12.802   2.919   9.834  0.0261 -0.1027  0.0021
  348loPI   C3B 5567  12.817   2.867   9.410  0.1669  0.0747 -0.2023
  348loPI   C4B 5568  12.827   3.102   9.149 -0.1343 -0.3572 -0.2523
  349loPI    C1 5569  16.862   0.025  11.006  0.0136  0.2291  0.0850
  349loPI    C2 5570  17.260  -0.015  11.021  0.0060  0.0602 -0.1312
  349loPI    C3 5571  17.062   0.134  11.335  0.2271  0.0351  0.0217
  349loPI   PO4 5572  16.782   0.111  10.783  0.0123  0.1146  0.2151
  349loPI   GL1 5573  16.969   0.228  10.507  0.1978 -0.2087  0.0095
  349loPI   GL2 5574  17.250   0.063  10.516  0.2223 -0.3014 -0.1108
  349loPI   C1A 5575  16.722  -0.028  10.125 -0.0598  0.1998 -0.0852
  349loPI   C2A 5576  16.715  -0.119   9.712  0.0461  0.4275 -0.1489
  349loPI   C3A 5577  16.750  -0.035   9.337 -0.2042  0.1183 -0.0621
  349loPI   C4A 5578  16.577  -0.121   8.932 -0.3083 -0.0140  0.2674
  349loPI   C5A 5579  16.693  -0.134   8.553 -0.2388  0.0557  0.0327
  349loPI   C6A 5580  16.912  -0.080   8.204 -0.0008 -0.0453 -0.1345
  349loPI   C1B 5581  17.210   0.085  10.141 -0.0391 -0.1973  0.3897
  349loPI   C2B 5582  17.211   0.081   9.710  0.1025  0.0765 -0.0041
  349loPI   C3B 5583  17.182   0.099   9.296 -0.3224  0.1116 -0.1341
  349loPI   C4B 5584  17.065   0.083   8.828 -0.2952  0.3045 -0.2891
  350loPI    C1 5585  12.973  10.175  11.089 -0.1269 -0.2363  0.1576
  350loPI    C2 5586  13.226  10.288  11.378  0.1830 -0.1788 -0.1294
  350loPI    C3 5587  13.019   9.948  11.415  0.1116 -0.1011  0.2211
  350loPI   PO4 5588  13.076  10.219  10.841 -0.0547  0.1352 -0.0380
  350loPI   GL1 5589  12.897  10.095  10.479 -0.1407 -0.0498 -0.1657
  350loPI   GL2 5590  13.138  10.248  10.287 -0.1264 -0.3432 -0.0004
  350loPI   C1A 5591  12.747   9.855  10.086  0.0309 -0.2433  0.0261
  350loPI   C2A 5592  12.392   9.846   9.830 -0.1205 -0.1387  0.0835
  350loPI   C3A 5593  12.140   9.903   9.509 -0.1975 -0.1868 -0.0741
  350loPI   C4A 5594  12.030   9.941   9.067  0.0082  0.1712  0.1160
  350loPI   C5A 5595  11.875   9.919   8.584 -0.1165 -0.0371  0.0931
  350loPI   C6A 5596  11.544  10.238   8.434 -0.0583  0.0518  0.0560
  350loPI   C1B 5597  13.245  10.246   9.798 -0.0947  0.2246  0.0261
  350loPI   C2B 5598  13.187  10.321   9.395  0.0255 -0.2093  0.1443
  350loPI   C3B 5599  12.971  10.237   8.959  0.1583 -0.0968 -0.0392
  350loPI   C4B 5600  12.685  10.365   8.674 -0.1955 -0.0050 -0.1495
  351loPI    C1 5601   0.051  14.024  11.072 -0.1804 -0.1620  0.1031
  351loPI    C2 5602  -0.024  14.397  11.197 -0.3363 -0.2066  0.1445
  351loPI    C3 5603   0.286  14.194  11.348 -0.0944 -0.0007 -0.0671
  351loPI   PO4 5604   0.052  14.075  10.842  0.0978  0.0058  0.1522
  351loPI   GL1 5605  -0.212  14.112  10.374 -0.1260  0.1243  0.2519
  351loPI   GL2 5606   0.126  13.860  10.390 -0.1328 -0.1313 -0.0306
  351loPI   C1A 5607  -0.316  14.303   9.959  0.2570  0.1135  0.1969
  351loPI   C2A 5608  -0.288  14.427   9.524  0.0856 -0.0868 -0.0885
  351loPI   C3A 5609  -0.319  14.377   9.105  0.0121 -0.1739  0.0204
  351loPI   C4A 5610  -0.330  14.548   8.749 -0.0338 -0.5803  0.0652
  351loPI   C5A 5611  -0.399  14.839   8.447 -0.2275  0.1662 -0.1752
  351loPI   C6A 5612  -0.260  14.821   8.019 -0.0612  0.1706  0.1681
  351loPI   C1B 5613   0.079  13.970   9.861 -0.1936 -0.1178  0.1680
  351loPI   C2B 5614   0.025  14.038   9.467  0.0042  0.1638  0.0814
  351loPI   C3B 5615   0.087  14.031   9.058 -0.1951  0.0852  0.1457
  351loPI   C4B 5616  -0.004  14.126   8.747  0.1047 -0.0391 -0.3399
  352loPI    C1 5617  17.303  16.766  11.190 -0.2009 -0.0444  0.1834
  352loPI    C2 5618  17.167  16.849  11.557 -0.1930 -0.0769  0.1937
  352loPI    C3 5619  17.545  16.728  11.506 -0.1253  0.1492  0.1496
  352loPI   PO4 5620  17.194  16.756  10.960 -0.0404 -0.2211 -0.0080
  352loPI   GL1 5621  17.041  16.908  10.482 -0.0026  0.1922 -0.0587
  352loPI   GL2 5622  17.075  17.328  10.386  0.1383  0.1001  0.2309
  352loPI   C1A 5623  16.906  16.973  10.049 -0.1195 -0.0261 -0.0564
  352loPI   C2A 5624  16.877  17.025   9.636 -0.0777  0.2216  0.0588
  352loPI   C3A 5625  16.770  16.878   9.259 -0.2709 -0.0008  0.0732
  352loPI   C4A 5626  16.762  17.010   8.919 -0.0470  0.1846 -0.2306
  352loPI   C5A 5627  16.739  17.158   8.549 -0.0831  0.0459 -0.1048
  352loPI   C6A 5628  16.835  17.349   8.169 -0.1296 -0.1605 -0.1660
  352loPI   C1B 5629  17.000  17.513   9.970 -0.1336  0.0474 -0.0028
  352loPI   C2B 5630  17.049  17.558   9.563 -0.0277 -0.1173  0.0552
  352loPI   C3B 5631  17.038  17.580   9.055  0.0162  0.2899  0.0464
  352loPI   C4B 5632  17.143  17.427   8.653 -0.3407 -0.1890 -0.1717
  353loPI    C1 5633  16.182   9.419  10.256  0.1110 -0.1718  0.0688
  353loPI    C2 5634  16.106   9.172   9.951 -0.0378 -0.0406 -0.0014
  353loPI    C3 5635  15.819   9.256  10.216  0.0203  0.0355  0.0375
  353loPI   PO4 5636  16.407   9.349  10.305 -0.2227  0.1111 -0.1764
  353loPI   GL1 5637  16.604   9.047  10.025 -0.0289 -0.0668 -0.2276
  353loPI   GL2 5638  16.792   9.103   9.908  0.1876  0.0163  0.0128
  353loPI   C1A 5639  16.483   8.908   9.622 -0.0360  0.3756 -0.1716
  353loPI   C2A 5640  16.398   8.707   9.195  0.1628 -0.1635  0.0776
  353loPI   C3A 5641  16.193   8.789   8.819 -0.1683 -0.0777 -0.1996
  353loPI   C4A 5642  16.270   8.915   8.479 -0.1145  0.1581 -0.1652
  353loPI   C5A 5643  16.458   9.030   8.122 -0.2974  0.0576 -0.0746
  353loPI   C6A 5644  16.380   9.273   7.803 -0.2732  0.1622  0.1602
  353loPI   C1B 5645  16.982   8.882   9.567  0.3128  0.1559 -0.0586
  353loPI   C2B 5646  16.976   8.666   9.133  0.4023  0.0141 -0.4684
  353loPI   C3B 5647  17.334   8.537   8.941 -0.0505 -0.2708  0.2421
  353loPI   C4B 5648  17.408   8.211   8.576  0.3351 -0.0509 -0.0945
  354loPI    C1 5649   8.378   3.322  10.540  0.0125 -0.0698  0.0962
  354loPI    C2 5650   8.689   3.444  10.761 -0.1142  0.2031  0.1282
  354loPI    C3 5651   8.401   3.222  10.927  0.1203 -0.1547  0.0684
  354loPI   PO4 5652   8.421   3.233  10.260 -0.0916 -0.0478 -0.2122
  354loPI   GL1 5653   8.129   2.907  10.120 -0.2173  0.2666 -0.1540
  354loPI   GL2 5654   8.167   2.657   9.886 -0.3454 -0.1204  0.0686
  354loPI   C1A 5655   8.121   3.132   9.717 -0.0603 -0.1816 -0.1203
  354loPI   C2A 5656   8.305   3.248   9.316 -0.1176  0.1021  0.1486
  354loPI   C3A 5657   8.296   3.208   8.872  0.4201  0.0252  0.0359
  354loPI   C4A 5658   8.236   3.108   8.444 -0.0883 -0.1202  0.2492
  354loPI   C5A 5659   8.392   2.852   8.087 -0.0906 -0.1681 -0.0372
  354loPI   C6A 5660   8.221   2.449   7.837 -0.2225  0.1332 -0.0406
  354loPI   C1B 5661   8.219   2.714   9.442  0.3752 -0.1844  0.1957
  354loPI   C2B 5662   8.303   2.738   9.013  0.4605  0.1018 -0.0160
  354loPI   C3B 5663   8.530   2.770   8.663  0.0985 -0.3176 -0.0449
  354loPI   C4B 5664   8.872   2.745   8.396  0.1699 -0.0455 -0.0522
  355loPI    C1 5665   0.577  17.100  11.117  0.1008 -0.3760  0.0631
  355loPI    C2 5666   0.912  17.271  10.980 -0.0640 -0.1509 -0.0656
  355loPI    C3 5667   0.921  17.054  11.316  0.1491  0.1181  0.1071
  355loPI   PO4 5668   0.412  17.255  10.990  0.0036  0.2565  0.0415
  355loPI   GL1 5669   0.298  17.575  10.626 -0.0021 -0.1662  0.2405
  355loPI   GL2 5670   0.169  17.777  10.426  0.1665  0.0051 -0.0616
  355loPI   C1A 5671   0.439  17.440  10.173 -0.0255  0.2830  0.1090
  355loPI   C2A 5672   0.443  17.384   9.735  0.1512 -0.2761 -0.2916
  355loPI   C3A 5673   0.378  17.390   9.296  0.2047 -0.1864  0.1611
  355loPI   C4A 5674   0.392  17.494   8.861  0.1543  0.3683 -0.1038
  355loPI   C5A 5675   0.558  17.580   8.473  0.3547  0.0515  0.0360
  355loPI   C6A 5676   0.347  17.547   8.047 -0.1481 -0.0584  0.3160
  355loPI   C1B 5677   0.043  17.834  10.053 -0.1025  0.2408 -0.0076
  355loPI   C2B 5678   0.074  17.792   9.650  0.0944 -0.0424  0.0892
  355loPI   C3B 5679   0.012  17.869   9.167  0.2216 -0.1851 -0.3038
  355loPI   C4B 5680   0.005  17.821   8.766 -0.1741  0.1587 -0.0331
  356loPI    C1 5681  15.040  17.809  11.229  0.2789 -0.0720  0.0327
  356loPI    C2 5682  14.692  17.622  11.167  0.1426  0.2989 -0.3760
  356loPI    C3 5683  14.803  17.720  11.539 -0.0540 -0.0659 -0.2153
  356loPI   PO4 5684  15.146  17.987  11.037  0.2284  0.1134 -0.2228
  356loPI   GL1 5685  15.314  17.799  10.646 -0.1896 -0.0262 -0.2078
  356loPI   GL2 5686  15.304  18.121  10.547 -0.0225  0.3610  0.0971
  356loPI   C1A 5687  15.189  17.795  10.177 -0.1507 -0.0382 -0.0666
  356loPI   C2A 5688  15.088  17.870   9.760  0.3337  0.2699 -0.0379
  356loPI   C3A 5689  15.070  18.069   9.450  0.1396 -0.0006  0.1284
  356loPI   C4A 5690  15.189  18.147   8.939 -0.1332 -0.0399 -0.0610
  356loPI   C5A 5691  15.296  18.012   8.511 -0.2041 -0.1872 -0.1112
  356loPI   C6A 5692  15.007  18.017   8.109 -0.1082 -0.3733 -0.0573
  356loPI   C1B 5693  15.282  18.447  10.198 -0.0558  0.2068  0.3073
  356loPI   C2B 5694  15.321  18.425   9.752 -0.0470  0.0025 -0.0607
  356loPI   C3B 5695  15.358  18.532   9.251  0.1481 -0.1076 -0.2695
  356loPI   C4B 5696  15.525  18.486   8.833  0.1753  0.1261  0.1627
  357loPI    C1 5697   3.752  10.575  11.179  0.1808  0.1725 -0.1877
  357loPI    C2 5698   3.611  10.217  11.289 -0.2417  0.4650  0.2641
  357loPI    C3 5699   3.992  10.313  11.363 -0.1123  0.0965  0.0965
  357loPI   PO4 5700   3.682  10.649  10.884 -0.2709 -0.1246  0.0036
  357loPI   GL1 5701   3.520  10.697  10.405  0.4038  0.0273 -0.1337
  357loPI   GL2 5702   3.775  10.869  10.273 -0.2540 -0.2367 -0.0168
  357loPI   C1A 5703   3.610  10.413  10.057  0.0816  0.1240 -0.4202
  357loPI   C2A 5704   3.544  10.394   9.620 -0.1694  0.1018  0.1441
  357loPI   C3A 5705   3.494  10.556   9.235 -0.0334  0.1717 -0.0630
  357loPI   C4A 5706   3.319  10.535   8.783 -0.0756  0.1856 -0.2145
  357loPI   C5A 5707   3.311  10.750   8.411 -0.1263 -0.2215 -0.0931
  357loPI   C6A 5708   3.094  10.700   7.975  0.0640  0.0238  0.1199
  357loPI   C1B 5709   3.584  10.937   9.825  0.2821  0.2175  0.0945
  357loPI   C2B 5710   3.408  10.979   9.440  0.4946  0.1813 -0.3072
  357loPI   C3B 5711   3.445  11.036   9.058 -0.0084  0.4683  0.0250
  357loPI   C4B 5712   3.354  11.199   8.620 -0.4099  0.0451 -0.1864
  358loPI    C1 5713   6.403  11.164  11.008 -0.2193 -0.0274 -0.0805
  358loPI    C2 5714   6.126  11.442  11.089 -0.1394  0.0327 -0.0114
  358loPI    C3 5715   6.196  11.147  11.350  0.0049  0.1342  0.0661
  358loPI   PO4 5716   6.511  11.275  10.793 -0.1451 -0.1746  0.2267
  358loPI   GL1 5717   6.468  11.271  10.350  0.0276  0.0555 -0.1984
  358loPI   GL2 5718   6.096  11.371  10.192  0.2609 -0.0498 -0.0329
  358loPI   C1A 5719   6.532  11.479   9.952 -0.0587  0.2310  0.0163
  358loPI   C2A 5720   6.534  11.530   9.453 -0.0910 -0.0916 -0.1522
  358loPI   C3A 5721   6.470  11.460   9.043 -0.2753 -0.1612  0.1001
  358loPI   C4A 5722   6.712  11.398   8.656  0.3577  0.0553  0.1768
  358loPI   C5A 5723   6.590  11.315   8.259 -0.0262  0.1548 -0.2761
  358loPI   C6A 5724   6.618  11.383   7.811 -0.2771 -0.3077  0.0000
  358loPI   C1B 5725   5.950  11.328   9.800 -0.0567 -0.2989 -0.0147
  358loPI   C2B 5726   6.015  11.412   9.322 -0.0803 -0.0678 -0.1170
  358loPI   C3B 5727   6.003  11.513   8.874  0.0376  0.1401 -0.1802
  358loPI   C4B 5728   6.104  11.554   8.433 -0.0596  0.2300  0.0559
  359loPI    C1 5729  14.113   1.920  11.307  0.1457 -0.0920  0.0128
  359loPI    C2 5730  14.247   1.572  11.161 -0.0317 -0.1835  0.0659
  359loPI    C3 5731  14.193   1.616  11.555  0.0814 -0.0635  0.0686
  359loPI   PO4 5732  14.183   2.063  11.074 -0.0799  0.0030  0.2151
  359loPI   GL1 5733  14.224   2.028  10.609 -0.1417  0.2912 -0.0130
  359loPI   GL2 5734  14.162   2.352  10.530 -0.1078  0.0572 -0.0864
  359loPI   C1A 5735  14.177   1.827  10.232 -0.1089 -0.5663  0.1802
  359loPI   C2A 5736  14.268   1.887   9.867  0.2635  0.4275 -0.3165
  359loPI   C3A 5737  14.254   2.228   9.618  0.0481 -0.3683  0.0219
  359loPI   C4A 5738  14.524   2.305   9.266  0.1639 -0.1701  0.1920
  359loPI   C5A 5739  14.706   2.076   8.800 -0.1623 -0.0504 -0.0748
  359loPI   C6A 5740  14.901   1.949   8.399 -0.2635 -0.1308 -0.3055
  359loPI   C1B 5741  14.325   2.264  10.159  0.3058 -0.0957 -0.0288
  359loPI   C2B 5742  14.676   2.522   9.792  0.1475  0.1978  0.2145
  359loPI   C3B 5743  14.781   2.858   9.474 -0.1715 -0.1055 -0.0328
  359loPI   C4B 5744  14.845   3.289   9.304 -0.0598  0.1341 -0.2060
  360loPI    C1 5745   5.705  14.382  11.282 -0.4073 -0.0930 -0.0080
  360loPI    C2 5746   5.609  14.741  11.429 -0.0265 -0.0113  0.0537
  360loPI    C3 5747   5.644  14.427  11.675  0.0805  0.0077  0.0627
  360loPI   PO4 5748   5.548  14.382  11.023 -0.1729  0.1928 -0.0077
  360loPI   GL1 5749   5.290  14.301  10.760  0.0062 -0.3453  0.2794
  360loPI   GL2 5750   5.458  14.002  10.610 -0.1531  0.2625 -0.1958
  360loPI   C1A 5751   5.349  14.490  10.380  0.0470  0.1774 -0.0581
  360loPI   C2A 5752   5.330  14.409   9.942  0.2443  0.1803 -0.1394
  360loPI   C3A 5753   5.353  14.582   9.594  0.2418  0.0557  0.0057
  360loPI   C4A 5754   5.585  14.669   9.253 -0.2128  0.2964  0.0518
  360loPI   C5A 5755   5.710  14.547   8.882  0.0216  0.0657 -0.2450
  360loPI   C6A 5756   5.712  14.353   8.417 -0.1605  0.0560  0.0409
  360loPI   C1B 5757   5.583  14.071  10.192 -0.0694  0.0071 -0.0894
  360loPI   C2B 5758   5.722  14.118   9.809  0.1605  0.2128 -0.1005
  360loPI   C3B 5759   5.882  14.472   9.641 -0.1175 -0.1145 -0.3005
  360loPI   C4B 5760   6.126  14.681   9.231  0.0664 -0.1501 -0.1415
  361loPI    C1 5761   8.676   6.283  10.633 -0.1576  0.1493 -0.0575
  361loPI    C2 5762   8.759   6.227  11.020 -0.1823  0.1307 -0.0549
  361loPI    C3 5763   8.938   6.522  10.818  0.0429 -0.0342 -0.1006
  361loPI   PO4 5764   8.630   6.037  10.551 -0.5263 -0.1999 -0.0126
  361loPI   GL1 5765   8.756   6.111  10.146 -0.1652  0.0898 -0.0624
  361loPI   GL2 5766   8.646   6.414  10.134  0.0599 -0.3614  0.0621
  361loPI   C1A 5767   8.814   6.128   9.705 -0.2487 -0.2859  0.0935
  361loPI   C2A 5768   8.934   6.363   9.267  0.0161  0.2449 -0.0865
  361loPI   C3A 5769   8.952   6.318   8.817 -0.0387  0.2192 -0.0698
  361loPI   C4A 5770   9.253   6.521   8.532 -0.3239 -0.0522  0.0632
  361loPI   C5A 5771   9.475   6.884   8.327 -0.2618  0.0275  0.0172
  361loPI   C6A 5772   9.472   7.248   8.021 -0.1572 -0.1882 -0.0978
  361loPI   C1B 5773   8.958   6.691   9.990 -0.1642 -0.5322  0.4262
  361loPI   C2B 5774   9.026   6.792   9.554  0.1128 -0.0813 -0.3787
  361loPI   C3B 5775   9.083   6.812   9.107 -0.2021 -0.0618 -0.3346
  361loPI   C4B 5776   9.209   6.993   8.802 -0.0185  0.0612  0.0561
  362loPI    C1 5777   8.159   8.376  10.749 -0.0654 -0.1994  0.0678
  362loPI    C2 5778   8.251   8.006  10.870 -0.0062 -0.2765 -0.2057
  362loPI    C3 5779   8.046   8.250  11.112 -0.0182 -0.4760 -0.0110
  362loPI   PO4 5780   8.370   8.485  10.663  0.2203 -0.0834 -0.1685
  362loPI   GL1 5781   8.496   8.617  10.333  0.0925  0.0091  0.1709
  362loPI   GL2 5782   8.313   8.690  10.152  0.1037  0.1916  0.3050
  362loPI   C1A 5783   8.742   8.386   9.968 -0.2170 -0.2303 -0.0087
  362loPI   C2A 5784   8.879   8.434   9.523  0.1541 -0.0692 -0.0017
  362loPI   C3A 5785   9.043   8.301   9.109  0.0562 -0.1561 -0.0012
  362loPI   C4A 5786   8.875   8.114   8.852  0.4204  0.1002  0.5123
  362loPI   C5A 5787   8.545   8.109   8.437 -0.1451 -0.0016  0.3490
  362loPI   C6A 5788   8.186   8.023   8.212  0.0554 -0.0359 -0.0808
  362loPI   C1B 5789   8.414   8.775   9.739 -0.0197 -0.0667 -0.3431
  362loPI   C2B 5790   8.560   8.712   9.307  0.3299 -0.0536  0.4623
  362loPI   C3B 5791   8.630   8.601   8.835  0.3924 -0.1746  0.0089
  362loPI   C4B 5792   8.513   8.578   8.327 -0.1654 -0.1268 -0.1262
  363loPI    C1 5793  17.820   3.106  11.057 -0.0806  0.0528 -0.2007
  363loPI    C2 5794  18.113   3.168  11.323 -0.0320 -0.0519 -0.2296
  363loPI    C3 5795  17.931   3.479  11.151  0.0087  0.0147 -0.1531
  363loPI   PO4 5796  17.905   2.933  10.905 -0.0469 -0.1002  0.1229
  363loPI   GL1 5797  17.995   2.881  10.541  0.1066  0.3043  0.1851
  363loPI   GL2 5798  18.320   2.675  10.356 -0.2365 -0.2115  0.2222
  363loPI   C1A 5799  17.749   2.650  10.249 -0.2354  0.1499 -0.3688
  363loPI   C2A 5800  17.610   2.548   9.753 -0.2471 -0.3300 -0.2890
  363loPI   C3A 5801  17.532   2.519   9.291  0.0671 -0.1841 -0.0448
  363loPI   C4A 5802  17.602   2.715   8.997  0.0204  0.0403  0.1446
  363loPI   C5A 5803  17.513   2.879   8.626  0.0899 -0.1326 -0.0025
  363loPI   C6A 5804  17.058   2.859   8.440 -0.1900 -0.0109  0.0967
  363loPI   C1B 5805  18.155   2.717   9.972 -0.1263  0.1173  0.0752
  363loPI   C2B 5806  18.156   2.657   9.586 -0.0969  0.0927 -0.0105
  363loPI   C3B 5807  18.150   2.649   9.138 -0.0114 -0.0458  0.0595
  363loPI   C4B 5808  18.247   2.187   8.916  0.0103 -0.2069  0.1762
  364loPI    C1 5809  16.255  12.652  10.489 -0.0468  0.0094 -0.1812
  364loPI    C2 5810  16.417  12.752  10.840 -0.0457 -0.1628 -0.1315
  364loPI    C3 5811  16.287  13.037  10.591 -0.0079 -0.0385 -0.0103
  364loPI   PO4 5812  16.454  12.513  10.337  0.1872 -0.2445 -0.1712
  364loPI   GL1 5813  16.671  12.437   9.924  0.2288  0.2277 -0.1614
  364loPI   GL2 5814  16.548  12.165   9.871 -0.1640 -0.0195  0.1830
  364loPI   C1A 5815  17.005  12.561   9.598 -0.0558  0.0146 -0.0952
  364loPI   C2A 5816  17.028  12.539   9.188 -0.4465  0.0659 -0.3561
  364loPI   C3A 5817  17.223  12.841   8.841  0.0880  0.1065 -0.2502
  364loPI   C4A 5818  17.212  13.117   8.472 -0.0999  0.0052  0.4759
  364loPI   C5A 5819  17.407  12.951   8.117  0.0300  0.0382 -0.0835
  364loPI   C6A 5820  17.205  12.654   7.862  0.0909 -0.2458 -0.0885
  364loPI   C1B 5821  16.411  12.451   9.502 -0.0930  0.0007 -0.0775
  364loPI   C2B 5822  16.326  12.560   9.055 -0.1161 -0.0057 -0.1417
  364loPI   C3B 5823  16.319  12.599   8.550  0.1023  0.0652 -0.2247
  364loPI   C4B 5824  16.260  12.611   8.041  0.2989  0.2346 -0.0035
  365loPI    C1 5825   9.120   7.022  10.864  0.0371  0.0073  0.0465
  365loPI    C2 5826   9.392   6.778  10.702 -0.1961 -0.1101 -0.1754
  365loPI    C3 5827   9.400   6.854  11.095  0.1867 -0.0689 -0.1875
  365loPI   PO4 5828   9.176   7.233  10.652 -0.0620 -0.4114  0.4073
  365loPI   GL1 5829   8.963   7.241  10.175  0.2035 -0.1946  0.3479
  365loPI   GL2 5830   9.307   6.983  10.262 -0.2371 -0.0629 -0.0181
  365loPI   C1A 5831   8.849   7.162   9.814  0.2489  0.1040  0.2643
  365loPI   C2A 5832   8.633   7.056   9.463  0.1914 -0.0124 -0.0113
  365loPI   C3A 5833   8.475   7.249   9.175  0.1241  0.2716 -0.3242
  365loPI   C4A 5834   8.319   7.437   8.788 -0.0435  0.0234 -0.3592
  365loPI   C5A 5835   8.058   7.497   8.515  0.2187 -0.4439 -0.0870
  365loPI   C6A 5836   8.044   7.475   8.105  0.1075  0.3079  0.3237
  365loPI   C1B 5837   9.317   6.996   9.932  0.4989 -0.3112 -0.1896
  365loPI   C2B 5838   9.500   6.868   9.507 -0.1253 -0.0614 -0.2020
  365loPI   C3B 5839   9.582   6.883   9.117 -0.0548 -0.1598  0.1466
  365loPI   C4B 5840   9.703   7.010   8.747  0.0387 -0.1741 -0.0045
  366loPI    C1 5841  11.888  14.425  10.879  0.2980 -0.3368 -0.2589
  366loPI    C2 5842  12.233  14.448  11.080  0.1613  0.2699 -0.0731
  366loPI    C3 5843  11.948  14.723  11.138 -0.3811 -0.2460 -0.1869
  366loPI   PO4 5844  11.964  14.227  10.717 -0.1601  0.0044  0.1712
  366loPI   GL1 5845  11.924  14.010  10.348  0.2032 -0.1058  0.0675
  366loPI   GL2 5846  11.594  14.123  10.270  0.1223  0.0304  0.1296
  366loPI   C1A 5847  12.043  13.978   9.891 -0.1334 -0.0542 -0.1283
  366loPI   C2A 5848  12.116  13.956   9.532 -0.1077  0.1382 -0.1899
  366loPI   C3A 5849  12.148  14.228   9.093 -0.2958  0.1709 -0.1398
  366loPI   C4A 5850  12.185  14.448   8.768 -0.1808  0.1514  0.2800
  366loPI   C5A 5851  11.852  14.729   8.709 -0.1597 -0.3707  0.1250
  366loPI   C6A 5852  11.851  14.996   8.450 -0.0010  0.0397 -0.0600
  366loPI   C1B 5853  11.550  13.770   9.957 -0.3573  0.1298  0.1343
  366loPI   C2B 5854  11.718  13.702   9.497  0.1463  0.0391 -0.1806
  366loPI   C3B 5855  11.746  13.826   9.139  0.0002  0.1648  0.3898
  366loPI   C4B 5856  12.089  13.760   8.890  0.0148 -0.1572 -0.0519
  367loPI    C1 5857   9.336   1.050  10.971  0.0244 -0.1444  0.0311
  367loPI    C2 5858   9.497   1.364  10.782 -0.0165 -0.0676  0.1226
  367loPI    C3 5859   9.312   1.415  11.133 -0.1437 -0.1725  0.0721
  367loPI   PO4 5860   9.415   0.884  10.780 -0.1005  0.0146 -0.0696
  367loPI   GL1 5861   9.390   0.816  10.374  0.1320 -0.3733  0.5399
  367loPI   GL2 5862   9.379   1.260  10.290  0.0804  0.0820 -0.1507
  367loPI   C1A 5863   9.411   0.745   9.938  0.2490  0.1934  0.2245
  367loPI   C2A 5864   9.454   0.706   9.471 -0.1752  0.1220 -0.1871
  367loPI   C3A 5865   9.547   0.621   9.117  0.1407  0.1333  0.1254
  367loPI   C4A 5866   9.565   0.686   8.796  0.0550  0.1216  0.2676
  367loPI   C5A 5867   9.650   0.775   8.357 -0.1389 -0.3630  0.2350
  367loPI   C6A 5868   9.688   1.193   8.097  0.2209 -0.1011 -0.0210
  367loPI   C1B 5869   9.411   1.286   9.818 -0.3615  0.0556  0.1640
  367loPI   C2B 5870   9.445   1.193   9.421 -0.1598  0.3742  0.3219
  367loPI   C3B 5871   9.483   1.233   9.052  0.0088 -0.0550  0.0408
  367loPI   C4B 5872   9.633   1.186   8.694 -0.1472  0.1317 -0.1158
  368loPI    C1 5873   4.610  10.869  10.970 -0.2101 -0.0045 -0.0780
  368loPI    C2 5874   4.320  10.601  11.032  0.1232 -0.4060 -0.2091
  368loPI    C3 5875   4.703  10.492  11.066  0.2654  0.0830 -0.1707
  368loPI   PO4 5876   4.493  11.007  10.758 -0.1605  0.1682  0.1139
  368loPI   GL1 5877   4.589  11.326  10.565 -0.1804 -0.0938  0.0981
  368loPI   GL2 5878   4.942  11.181  10.478  0.0251 -0.1270  0.2388
  368loPI   C1A 5879   4.564  11.322  10.105 -0.3017 -0.1945 -0.1844
  368loPI   C2A 5880   4.741  11.378   9.724 -0.2777  0.3157 -0.1787
  368loPI   C3A 5881   4.977  11.389   9.329 -0.3508 -0.1435  0.1673
  368loPI   C4A 5882   4.967  11.522   8.960  0.2214 -0.0730 -0.0055
  368loPI   C5A 5883   5.220  11.414   8.551 -0.1202  0.0474 -0.0783
  368loPI   C6A 5884   5.342  10.941   8.660 -0.2367 -0.0651 -0.0776
  368loPI   C1B 5885   5.185  11.389  10.217  0.0261 -0.0530 -0.2983
  368loPI   C2B 5886   5.215  11.574   9.809  0.0180  0.0353  0.2044
  368loPI   C3B 5887   5.550  11.448   9.494  0.2801 -0.0253 -0.1858
  368loPI   C4B 5888   5.456  11.473   9.022 -0.0717  0.0586  0.1608
  369loPI    C1 5889   5.519   5.845  10.642 -0.0854 -0.0368 -0.0440
  369loPI    C2 5890   5.362   6.001  10.975  0.0543 -0.2634  0.1307
  369loPI    C3 5891   5.596   5.677  10.997  0.2099 -0.1748 -0.1698
  369loPI   PO4 5892   5.257   5.786  10.503  0.2499 -0.1647 -0.3127
  369loPI   GL1 5893   5.197   5.396  10.231 -0.0801  0.3899 -0.1296
  369loPI   GL2 5894   5.538   5.151  10.266  0.0996  0.1203  0.0910
  369loPI   C1A 5895   5.043   5.392   9.826 -0.1903  0.0781 -0.3580
  369loPI   C2A 5896   5.161   5.193   9.422  0.4145  0.3981  0.0626
  369loPI   C3A 5897   5.305   5.181   9.009 -0.1005  0.3679 -0.3492
  369loPI   C4A 5898   5.192   5.501   8.703  0.0592 -0.2179  0.1095
  369loPI   C5A 5899   5.514   5.466   8.226  0.3943  0.2279 -0.1023
  369loPI   C6A 5900   5.762   5.169   8.062 -0.0698 -0.0082  0.1281
  369loPI   C1B 5901   5.511   5.112   9.821  0.0464  0.3793  0.0276
  369loPI   C2B 5902   5.700   5.130   9.357 -0.1743  0.0531 -0.0374
  369loPI   C3B 5903   5.991   5.388   9.168  0.1962 -0.1851  0.3693
  369loPI   C4B 5904   6.155   5.316   8.821  0.0885  0.2689  0.1082
  370loPI    C1 5905   3.388  16.961  10.919 -0.2652 -0.0570 -0.2913
  370loPI    C2 5906   3.068  16.959  11.159  0.1005  0.2563  0.2196
  370loPI    C3 5907   3.425  16.848  11.301  0.2893  0.2439 -0.2455
  370loPI   PO4 5908   3.253  16.839  10.685 -0.2747  0.0541  0.2950
  370loPI   GL1 5909   3.420  16.657  10.251 -0.2287  0.0695  0.2529
  370loPI   GL2 5910   3.470  16.915  10.269  0.2243 -0.0510  0.3567
  370loPI   C1A 5911   3.178  16.785   9.916  0.1121  0.2542 -0.1680
  370loPI   C2A 5912   3.073  16.803   9.434  0.5118  0.0876 -0.1870
  370loPI   C3A 5913   3.055  16.830   9.023 -0.2008 -0.1028 -0.4077
  370loPI   C4A 5914   3.091  16.987   8.596 -0.0723  0.5085  0.0009
  370loPI   C5A 5915   3.022  17.217   8.347 -0.2771 -0.0438 -0.0951
  370loPI   C6A 5916   3.056  17.555   8.117  0.0048  0.2365 -0.0430
  370loPI   C1B 5917   3.584  16.928   9.783 -0.2290  0.0280  0.0239
  370loPI   C2B 5918   3.541  16.927   9.375 -0.1449  0.0502  0.1603
  370loPI   C3B 5919   3.600  16.934   8.950  0.2504  0.1476 -0.2579
  370loPI   C4B 5920   3.912  17.111   8.669 -0.3633  0.2927  0.0958
  371loPI    C1 5921  15.602  11.352  10.613  0.1450  0.2936  0.1566
  371loPI    C2 5922  15.562  11.189  10.976 -0.1285  0.1883  0.0817
  371loPI    C3 5923  15.925  11.286  10.839  0.0032 -0.0264  0.2720
  371loPI   PO4 5924  15.337  11.423  10.552  0.0029  0.2882 -0.1040
  371loPI   GL1 5925  15.306  11.365  10.202  0.0233 -0.0120 -0.3101
  371loPI   GL2 5926  15.346  11.621  10.018 -0.3259 -0.2067  0.1923
  371loPI   C1A 5927  15.453  11.234   9.696 -0.3349  0.4219 -0.3525
  371loPI   C2A 5928  15.564  11.252   9.236  0.0608 -0.2302 -0.1103
  371loPI   C3A 5929  15.575  11.498   8.914  0.2108 -0.2196  0.1209
  371loPI   C4A 5930  15.656  11.825   8.577 -0.3018  0.2187  0.0207
  371loPI   C5A 5931  15.614  12.236   8.662 -0.2142 -0.0013 -0.0280
  371loPI   C6A 5932  15.437  12.340   8.288 -0.2379 -0.0059 -0.2254
  371loPI   C1B 5933  15.081  11.925   9.814 -0.0082 -0.2579  0.0452
  371loPI   C2B 5934  14.982  12.001   9.399  0.0309 -0.1581  0.0806
  371loPI   C3B 5935  14.776  12.083   9.063 -0.1441  0.2188 -0.1319
  371loPI   C4B 5936  14.723  12.066   8.690 -0.1970 -0.3492  0.3644
  372loPI    C1 5937   3.208  15.241  11.395  0.1032  0.0990 -0.1133
  372loPI    C2 5938   3.443  15.565  11.389 -0.1744  0.3020 -0.2887
  372loPI    C3 5939   3.139  15.544  11.647  0.2307 -0.1085  0.1763
  372loPI   PO4 5940   3.089  15.126  11.124  0.0853  0.0464  0.0954
  372loPI   GL1 5941   3.183  14.807  10.841 -0.0379 -0.1141  0.2027
  372loPI   GL2 5942   3.141  14.681  10.559  0.2861  0.2585 -0.0904
  372loPI   C1A 5943   3.238  15.073  10.351  0.3420  0.2533  0.0876
  372loPI   C2A 5944   3.157  15.215   9.960  0.3928  0.1407 -0.0066
  372loPI   C3A 5945   3.331  15.253   9.567 -0.1445 -0.0250 -0.1059
  372loPI   C4A 5946   3.377  14.976   9.158 -0.1069  0.0597  0.0387
  372loPI   C5A 5947   3.557  15.168   8.739 -0.6306  0.2383  0.0865
  372loPI   C6A 5948   3.618  15.620   8.571 -0.1269  0.0609 -0.3323
  372loPI   C1B 5949   3.020  14.690  10.134 -0.1916  0.1914  0.0183
  372loPI   C2B 5950   3.150  14.692   9.615  0.0835  0.2067  0.0470
  372loPI   C3B 5951   3.017  14.667   9.229  0.0179 -0.1111  0.0185
  372loPI   C4B 5952   3.033  14.759   8.809 -0.5209  0.1526 -0.0323
  373loPI    C1 5953   2.459  10.426  10.830 -0.1110 -0.0304 -0.0350
  373loPI    C2 5954   2.099  10.375  10.997 -0.1191 -0.0709 -0.0647
  373loPI    C3 5955   2.262  10.740  10.980 -0.1991 -0.0384 -0.1332
  373loPI   PO4 5956   2.476  10.285  10.577 -0.1230 -0.1447 -0.3949
  373loPI   GL1 5957   2.826  10.152  10.243  0.1004  0.0396  0.2838
  373loPI   GL2 5958   3.079  10.401  10.319 -0.0602  0.1916 -0.1784
  373loPI   C1A 5959   2.640  10.004   9.884  0.0505 -0.2491 -0.1369
  373loPI   C2A 5960   2.641   9.883   9.384 -0.0347  0.2294  0.1255
  373loPI   C3A 5961   2.615   9.753   8.944 -0.0733 -0.0509  0.0533
  373loPI   C4A 5962   2.565   9.592   8.489  0.1146 -0.1713  0.0322
  373loPI   C5A 5963   2.593   9.346   8.189  0.0997  0.3545  0.1048
  373loPI   C6A 5964   2.473   9.227   7.856 -0.2399 -0.1258  0.1519
  373loPI   C1B 5965   3.091  10.228   9.892 -0.1955  0.0206  0.0163
  373loPI   C2B 5966   3.093  10.094   9.483  0.0310 -0.1041 -0.0996
  373loPI   C3B 5967   3.265  10.060   8.975  0.0311 -0.0485 -0.2546
  373loPI   C4B 5968   3.519   9.744   8.844 -0.2650  0.1707 -0.1154
  374loPI    C1 5969   5.711  10.737  10.682  0.1159 -0.1763  0.0989
  374loPI    C2 5970   5.518  10.601  11.006 -0.1432  0.2208  0.1184
  374loPI    C3 5971   5.878  10.772  11.044 -0.1420  0.2030  0.1876
  374loPI   PO4 5972   5.431  10.715  10.524  0.0387 -0.0280 -0.0676
  374loPI   GL1 5973   5.270  10.533  10.192  0.0591  0.0237  0.0343
  374loPI   GL2 5974   5.106  10.858  10.078 -0.3907 -0.0347 -0.0252
  374loPI   C1A 5975   5.515  10.609   9.804 -0.1178  0.1247 -0.1954
  374loPI   C2A 5976   5.533  10.531   9.350 -0.2020  0.2817  0.1066
  374loPI   C3A 5977   5.456  10.612   8.971  0.0674 -0.0126  0.0576
  374loPI   C4A 5978   5.296  10.296   8.595 -0.0162 -0.1946 -0.3698
  374loPI   C5A 5979   5.099  10.199   8.090  0.3699  0.0146  0.1500
  374loPI   C6A 5980   4.883   9.818   7.748 -0.0524 -0.0006  0.3785
  374loPI   C1B 5981   5.131  10.987   9.691  0.0508  0.1070 -0.1067
  374loPI   C2B 5982   5.251  10.993   9.230  0.1046 -0.0803 -0.0616
  374loPI   C3B 5983   4.920  11.038   8.964 -0.1345  0.1362  0.3224
  374loPI   C4B 5984   4.712  11.178   8.589 -0.0280  0.0547 -0.2510
  375loPI    C1 5985   4.770   3.816  10.844  0.3390  0.1044  0.1980
  375loPI    C2 5986   4.834   3.424  10.885 -0.2821 -0.0414 -0.1122
  375loPI    C3 5987   4.746   3.646  11.206  0.0105 -0.1617  0.0559
  375loPI   PO4 5988   4.576   3.840  10.635  0.0471  0.1104 -0.0453
  375loPI   GL1 5989   4.401   3.802  10.320  0.1416 -0.0019  0.2434
  375loPI   GL2 5990   4.219   3.606  10.263 -0.2031  0.3623  0.0309
  375loPI   C1A 5991   4.557   3.787   9.913 -0.0680 -0.1432 -0.1637
  375loPI   C2A 5992   4.423   3.770   9.479  0.0090 -0.1307  0.1161
  375loPI   C3A 5993   4.524   3.754   9.081 -0.0644  0.1183  0.2965
  375loPI   C4A 5994   4.765   3.430   8.836  0.0564 -0.0062 -0.1518
  375loPI   C5A 5995   4.817   2.992   8.729 -0.0263 -0.2489 -0.1020
  375loPI   C6A 5996   5.142   2.807   8.584 -0.0018  0.0328  0.0030
  375loPI   C1B 5997   4.128   3.468   9.886  0.0950  0.0429 -0.1841
  375loPI   C2B 5998   4.015   3.494   9.373 -0.2298  0.0072 -0.1397
  375loPI   C3B 5999   3.858   3.514   8.948 -0.0069 -0.0834 -0.0740
  375loPI   C4B 6000   3.855   3.550   8.499 -0.1415  0.1977  0.2571
  376loPI    C1 6001  14.416  12.389  11.238 -0.0928 -0.1653 -0.1012
  376loPI    C2 6002  14.449  12.003  11.338  0.3020 -0.1131 -0.0165
  376loPI    C3 6003  14.259  12.257  11.582  0.0203 -0.2556 -0.0836
  376loPI   PO4 6004  14.344  12.368  10.963  0.1093 -0.2302  0.0490
  376loPI   GL1 6005  14.086  12.570  10.604 -0.2309  0.0208  0.1406
  376loPI   GL2 6006  14.017  12.295  10.514  0.3878 -0.0806 -0.1574
  376loPI   C1A 6007  13.964  12.721  10.235 -0.0364  0.3263 -0.0026
  376loPI   C2A 6008  13.951  12.767   9.804  0.1295 -0.1106 -0.1314
  376loPI   C3A 6009  14.022  12.814   9.389  0.0968  0.2448 -0.0258
  376loPI   C4A 6010  14.051  12.814   8.973 -0.1060  0.2467  0.0141
  376loPI   C5A 6011  14.064  12.628   8.526  0.2219  0.2308  0.1145
  376loPI   C6A 6012  13.771  12.652   8.204 -0.4153  0.0745  0.1910
  376loPI   C1B 6013  14.199  12.201  10.206 -0.1473 -0.0658  0.2264
  376loPI   C2B 6014  14.107  12.347   9.807  0.1470  0.3076  0.1618
  376loPI   C3B 6015  13.887  12.340   9.439 -0.1475  0.0556 -0.2416
  376loPI   C4B 6016  13.892  12.362   9.072 -0.0853 -0.0378 -0.2395
  377loPI    C1 6017  11.789   8.087  10.983 -0.0905  0.0020 -0.1171
  377loPI    C2 6018  11.957   8.371  11.209 -0.1251  0.1081 -0.2234
  377loPI    C3 6019  11.847   8.023  11.373  0.0899  0.0827 -0.1299
  377loPI   PO4 6020  11.995   7.986  10.764  0.2461  0.4187 -0.0452
  377loPI   GL1 6021  11.863   7.991  10.340 -0.1634  0.0804 -0.0015
  377loPI   GL2 6022  11.912   7.683  10.377  0.0559  0.0477 -0.3861
  377loPI   C1A 6023  11.691   7.834   9.944 -0.0099  0.0031 -0.2762
  377loPI   C2A 6024  11.593   7.821   9.531 -0.0389  0.0872  0.1144
  377loPI   C3A 6025  11.464   7.754   9.083  0.0133 -0.0508  0.0235
  377loPI   C4A 6026  11.212   7.852   8.636  0.1746 -0.1528  0.2016
  377loPI   C5A 6027  11.094   8.189   8.317  0.2429  0.1184 -0.0919
  377loPI   C6A 6028  11.088   8.598   8.173  0.2365  0.1579  0.2218
  377loPI   C1B 6029  12.200   7.660  10.033  0.1037  0.2711  0.1216
  377loPI   C2B 6030  12.316   7.808   9.580  0.1917  0.1070 -0.2187
  377loPI   C3B 6031  12.096   7.945   9.234 -0.4160 -0.0981 -0.1716
  377loPI   C4B 6032  11.800   8.186   8.993  0.3343  0.1079  0.1249
  378loPI    C1 6033  16.007   4.242  10.957  0.1673  0.1915 -0.1169
  378loPI    C2 6034  15.768   4.178  11.271  0.1131 -0.4340 -0.2730
  378loPI    C3 6035  15.893   4.548  11.188 -0.1993 -0.2014  0.2417
  378loPI   PO4 6036  15.847   4.217  10.759  0.1840  0.1118 -0.0873
  378loPI   GL1 6037  15.904   4.154  10.397 -0.2822  0.1276  0.0105
  378loPI   GL2 6038  15.849   4.472  10.275  0.1692  0.0937 -0.3092
  378loPI   C1A 6039  15.894   4.070   9.991 -0.0294 -0.1557  0.1348
  378loPI   C2A 6040  15.714   4.094   9.561 -0.1251  0.0700 -0.1073
  378loPI   C3A 6041  15.599   3.783   9.106  0.2725  0.1163 -0.3265
  378loPI   C4A 6042  15.346   3.272   8.977  0.1512 -0.0383  0.2184
  378loPI   C5A 6043  15.220   2.913   8.730 -0.0742 -0.0433  0.0047
  378loPI   C6A 6044  15.147   2.582   8.458 -0.3900  0.1147  0.1197
  378loPI   C1B 6045  15.449   4.264  10.195 -0.0006 -0.0810 -0.1684
  378loPI   C2B 6046  15.330   4.235   9.836 -0.0374  0.1225 -0.1470
  378loPI   C3B 6047  15.275   4.171   9.368  0.0638  0.5745 -0.0948
  378loPI   C4B 6048  15.324   4.175   8.973  0.4266  0.2177 -0.1121
  379loPI    C1 6049   0.663   5.520  10.797 -0.0348  0.0349  0.0725
  379loPI    C2 6050   0.378   5.498  11.076  0.1128  0.0063  0.2227
  379loPI    C3 6051   0.732   5.324  11.138  0.1758  0.0714  0.0521
  379loPI   PO4 6052   0.638   5.801  10.602 -0.1909  0.4518  0.0546
  379loPI   GL1 6053   0.824   5.826  10.116 -0.0788  0.3240 -0.1392
  379loPI   GL2 6054   0.939   5.998   9.965 -0.2248 -0.0038 -0.0764
  379loPI   C1A 6055   0.319   5.694   9.916  0.0735  0.0801 -0.1021
  379loPI   C2A 6056   0.102   5.439   9.651 -0.0861  0.2012 -0.4099
  379loPI   C3A 6057   0.013   5.483   9.186 -0.2149 -0.1459 -0.2846
  379loPI   C4A 6058  -0.204   5.564   8.791  0.0373  0.0174  0.1316
  379loPI   C5A 6059  -0.383   5.305   8.375  0.2795  0.3880 -0.0389
  379loPI   C6A 6060  -0.442   4.906   8.197  0.0704  0.0699 -0.1167
  379loPI   C1B 6061   0.943   5.898   9.548 -0.0155  0.1291  0.0205
  379loPI   C2B 6062   1.011   5.772   9.111 -0.0025  0.0983  0.1159
  379loPI   C3B 6063   1.115   6.113   8.804  0.2403 -0.2557 -0.2439
  379loPI   C4B 6064   1.071   6.106   8.375 -0.0538  0.1920  0.0666
  380loPI    C1 6065  16.945  10.723  10.521  0.0662 -0.1205  0.1278
  380loPI    C2 6066  16.840  10.997  10.793 -0.0549  0.0595 -0.0964
  380loPI    C3 6067  16.738  10.614  10.845 -0.0801  0.0929  0.1087
  380loPI   PO4 6068  16.841  10.838  10.333  0.1339 -0.1345  0.0672
  380loPI   GL1 6069  16.758  10.934   9.866 -0.2931 -0.0203  0.2030
  380loPI   GL2 6070  16.942  11.160   9.945  0.2442  0.0507  0.0022
  380loPI   C1A 6071  16.565  10.868   9.419  0.3624  0.0432 -0.1459
  380loPI   C2A 6072  16.560  10.903   9.023  0.0868 -0.0620 -0.2711
  380loPI   C3A 6073  16.579  10.939   8.562  0.0309 -0.0111 -0.0264
  380loPI   C4A 6074  16.580  10.898   8.172 -0.1030 -0.2022 -0.0474
  380loPI   C5A 6075  16.832  11.223   7.955 -0.0536 -0.0989  0.0727
  380loPI   C6A 6076  17.063  11.461   7.714  0.3503 -0.0015 -0.0829
  380loPI   C1B 6077  16.976  11.139   9.488  0.2152 -0.0252 -0.0249
  380loPI   C2B 6078  17.021  11.226   9.024 -0.1115  0.5229 -0.4334
  380loPI   C3B 6079  16.995  11.344   8.620 -0.2039  0.1493  0.3526
  380loPI   C4B 6080  17.153  11.511   8.177  0.2677 -0.1517 -0.0932
  381loPI    C1 6081  12.214   6.823  10.626 -0.0438  0.0790 -0.1808
  381loPI    C2 6082  12.613   6.840  10.605 -0.0394 -0.0819 -0.2374
  381loPI    C3 6083  12.414   7.097  10.838  0.0976 -0.0072 -0.2017
  381loPI   PO4 6084  12.119   6.551  10.628  0.1441  0.0435 -0.0905
  381loPI   GL1 6085  12.077   6.230  10.211  0.1522 -0.0654  0.0566
  381loPI   GL2 6086  11.765   6.453  10.276 -0.0736 -0.0594  0.1926
  381loPI   C1A 6087  11.916   5.942   9.811  0.0296 -0.1954  0.1322
  381loPI   C2A 6088  11.788   5.915   9.377  0.3058 -0.2959 -0.3333
  381loPI   C3A 6089  11.758   5.538   9.254  0.2917 -0.0129 -0.1054
  381loPI   C4A 6090  11.702   5.266   8.947 -0.2156 -0.0530  0.1863
  381loPI   C5A 6091  11.873   4.837   8.895  0.0558  0.1040  0.1893
  381loPI   C6A 6092  12.009   4.358   8.921  0.0065 -0.1918 -0.2862
  381loPI   C1B 6093  11.778   6.419   9.779 -0.4236  0.0187 -0.0271
  381loPI   C2B 6094  11.765   6.472   9.249 -0.0638  0.4072  0.0153
  381loPI   C3B 6095  11.775   6.439   8.808 -0.2108 -0.1365  0.2051
  381loPI   C4B 6096  12.098   6.305   8.525  0.3982  0.0414  0.2145
  382loPI    C1 6097   6.481   9.060  10.914 -0.0860  0.0086 -0.0182
  382loPI    C2 6098   6.836   8.893  10.993 -0.0746 -0.1050 -0.2976
  382loPI    C3 6099   6.566   8.936  11.285  0.1372 -0.0908 -0.1006
  382loPI   PO4 6100   6.461   8.973  10.629 -0.0156 -0.1564  0.1177
  382loPI   GL1 6101   6.538   9.036  10.215 -0.0209  0.0124  0.2274
  382loPI   GL2 6102   6.925   8.968  10.071 -0.2900 -0.2355 -0.0891
  382loPI   C1A 6103   6.576   9.204   9.865  0.0032 -0.0089  0.0334
  382loPI   C2A 6104   6.651   9.553   9.597  0.3922 -0.0354 -0.2074
  382loPI   C3A 6105   6.645   9.607   9.127  0.1651 -0.1134 -0.0437
  382loPI   C4A 6106   6.610   9.858   8.696 -0.2442  0.1096  0.0710
  382loPI   C5A 6107   6.594   9.959   8.294 -0.1677 -0.0142  0.1965
  382loPI   C6A 6108   6.517   9.988   7.955  0.2728  0.0094  0.0796
  382loPI   C1B 6109   6.881   8.775   9.772  0.2045 -0.0735  0.2231
  382loPI   C2B 6110   7.058   8.446   9.592 -0.0039 -0.0478  0.1086
  382loPI   C3B 6111   7.286   8.113   9.408 -0.1543 -0.4165 -0.1470
  382loPI   C4B 6112   7.432   7.826   9.124 -0.1856  0.2657  0.2146
  383loPI    C1 6113  16.458  14.599  11.085  0.0063 -0.0247 -0.0113
  383loPI    C2 6114  16.813  14.474  11.219  0.0012  0.2231  0.2413
  383loPI    C3 6115  16.481  14.393  11.427 -0.0719  0.1378  0.0929
  383loPI   PO4 6116  16.522  14.573  10.741  0.0578 -0.0965  0.0525
  383loPI   GL1 6117  16.487  14.228  10.416  0.0830  0.1221 -0.2168
  383loPI   GL2 6118  16.287  14.381  10.255  0.0373  0.1413  0.3701
  383loPI   C1A 6119  16.651  14.120   9.976 -0.5907 -0.1627 -0.0928
  383loPI   C2A 6120  16.595  13.985   9.579  0.1612 -0.0153 -0.1447
  383loPI   C3A 6121  16.604  14.096   9.110  0.1290  0.4026 -0.0650
  383loPI   C4A 6122  16.579  14.026   8.657  0.2185 -0.0978 -0.0704
  383loPI   C5A 6123  16.676  13.996   8.144 -0.4513 -0.1600 -0.0718
  383loPI   C6A 6124  16.956  14.340   7.919  0.0488  0.0318  0.0082
  383loPI   C1B 6125  16.221  14.370   9.883 -0.1989 -0.2933 -0.1904
  383loPI   C2B 6126  16.184  14.432   9.416  0.3496 -0.0182 -0.2599
  383loPI   C3B 6127  16.180  14.481   9.002  0.0761  0.3233  0.0800
  383loPI   C4B 6128  16.382  14.546   8.529 -0.1127 -0.0182 -0.1565
  384loPI    C1 6129   1.222   3.668  10.849 -0.0280 -0.0718  0.0483
  384loPI    C2 6130   0.868   3.769  11.005 -0.0376  0.1190 -0.0937
  384loPI    C3 6131   1.134   3.568  11.226 -0.1310  0.2061  0.1001
  384loPI   PO4 6132   1.225   3.921  10.612 -0.1347  0.1467  0.2398
  384loPI   GL1 6133   1.130   3.867  10.222 -0.4391  0.1862  0.2669
  384loPI   GL2 6134   1.504   3.813  10.159  0.0826  0.0387  0.0165
  384loPI   C1A 6135   1.175   3.895   9.809  0.0532  0.1415  0.2684
  384loPI   C2A 6136   1.252   3.892   9.353 -0.1838 -0.0789 -0.0896
  384loPI   C3A 6137   1.123   3.744   8.957  0.1304 -0.2633 -0.2290
  384loPI   C4A 6138   1.236   3.901   8.590  0.2009 -0.1167  0.2199
  384loPI   C5A 6139   1.433   3.630   8.314 -0.1270  0.1496 -0.2193
  384loPI   C6A 6140   1.598   3.226   8.251  0.1810  0.0544 -0.0159
  384loPI   C1B 6141   1.649   3.617   9.930  0.0224  0.2496 -0.0641
  384loPI   C2B 6142   1.577   3.508   9.528  0.0848  0.0774  0.3114
  384loPI   C3B 6143   1.362   3.375   9.148 -0.3123 -0.0757 -0.1690
  384loPI   C4B 6144   1.305   3.180   8.734  0.0966  0.0439  0.0460
  385loPI    C1 6145   6.517   8.554  10.985  0.0153 -0.1697  0.0329
  385loPI    C2 6146   6.191   8.511  11.213  0.0408  0.0977  0.1242
  385loPI    C3 6147   6.552   8.421  11.361  0.0205 -0.1009  0.0569
  385loPI   PO4 6148   6.515   8.476  10.741  0.0581 -0.2326 -0.3099
  385loPI   GL1 6149   6.499   8.409  10.383 -0.0745 -0.1309  0.1992
  385loPI   GL2 6150   6.300   8.576  10.266 -0.0680 -0.3170 -0.0117
  385loPI   C1A 6151   6.581   8.280   9.971 -0.3932 -0.0115 -0.0499
  385loPI   C2A 6152   6.521   8.505   9.530 -0.1808  0.2779  0.3788
  385loPI   C3A 6153   6.511   8.550   9.115 -0.2194 -0.0678 -0.1469
  385loPI   C4A 6154   6.750   8.638   8.786 -0.0336 -0.0655 -0.0673
  385loPI   C5A 6155   7.024   8.481   8.478 -0.0700 -0.1235 -0.2299
  385loPI   C6A 6156   6.888   8.215   8.218 -0.2756 -0.1601  0.1239
  385loPI   C1B 6157   6.232   8.743   9.853 -0.0648 -0.0600 -0.1478
  385loPI   C2B 6158   6.408   8.974   9.389  0.1806 -0.0735 -0.0300
  385loPI   C3B 6159   6.462   9.149   9.092  0.0127  0.0306  0.1533
  385loPI   C4B 6160   6.628   9.275   8.730 -0.0102  0.2798  0.0527
  386loPI    C1 6161  12.445  15.382  11.027  0.0140  0.0015  0.1917
  386loPI    C2 6162  12.733  15.647  11.109 -0.0439  0.0580  0.2129
  386loPI    C3 6163  12.459  15.557  11.386  0.1452 -0.2412  0.3070
  386loPI   PO4 6164  12.402  15.391  10.821  0.2984  0.0632 -0.1257
  386loPI   GL1 6165  12.398  15.249  10.459  0.1490  0.1088 -0.3076
  386loPI   GL2 6166  12.131  15.140  10.424 -0.0757  0.2724 -0.3915
  386loPI   C1A 6167  12.450  15.430  10.114 -0.1266 -0.0008  0.0271
  386loPI   C2A 6168  12.303  15.329   9.662 -0.1982  0.1911 -0.1039
  386loPI   C3A 6169  12.051  15.246   9.334  0.1804 -0.0001 -0.1147
  386loPI   C4A 6170  12.003  15.252   8.858 -0.0781  0.1376 -0.1325
  386loPI   C5A 6171  12.162  15.400   8.457  0.0471  0.2756  0.0069
  386loPI   C6A 6172  11.989  15.532   8.154 -0.0708  0.0841  0.0490
  386loPI   C1B 6173  12.104  15.079  10.024  0.0595 -0.0160 -0.4915
  386loPI   C2B 6174  11.897  14.982   9.731  0.2960  0.0500 -0.1722
  386loPI   C3B 6175  11.529  14.691   9.714 -0.1405 -0.1014 -0.1318
  386loPI   C4B 6176  11.581  14.240   9.732  0.0502  0.0702 -0.0445
  387loPI    C1 6177   7.498  13.980  10.868  0.0992  0.0866  0.0267
  387loPI    C2 6178   7.303  13.816  11.176  0.0128 -0.0616 -0.1054
  387loPI    C3 6179   7.697  13.882  11.200  0.0368 -0.2291 -0.0260
  387loPI   PO4 6180   7.405  14.154  10.765 -0.0920  0.0269  0.2524
  387loPI   GL1 6181   7.338  14.390  10.428  0.1061  0.1956 -0.0128
  387loPI   GL2 6182   7.625  14.558  10.285 -0.2217  0.1339 -0.2826
  387loPI   C1A 6183   7.122  14.071  10.130 -0.1555  0.3922 -0.3511
  387loPI   C2A 6184   7.143  13.949   9.643  0.0473  0.0086 -0.0321
  387loPI   C3A 6185   7.359  14.041   9.208  0.1561  0.2672  0.1817
  387loPI   C4A 6186   7.290  14.138   8.835 -0.1285  0.0877 -0.2879
  387loPI   C5A 6187   7.021  14.151   8.426 -0.1663  0.1131  0.2891
  387loPI   C6A 6188   6.658  13.947   8.205  0.2047 -0.0440  0.3326
  387loPI   C1B 6189   7.579  14.383   9.969 -0.1626  0.1446  0.2131
  387loPI   C2B 6190   7.766  14.323   9.576  0.1806 -0.0020 -0.2730
  387loPI   C3B 6191   7.748  14.433   9.174  0.1704  0.0948  0.2967
  387loPI   C4B 6192   7.677  14.531   8.771  0.0456 -0.0820 -0.1506
  388loPI    C1 6193   9.846   6.966  10.641 -0.2770 -0.0025 -0.1566
  388loPI    C2 6194   9.860   7.045  11.033  0.2998  0.0102 -0.1713
  388loPI    C3 6195   9.845   6.666  10.905 -0.1833  0.0125 -0.1387
  388loPI   PO4 6196   9.679   7.192  10.524  0.3064 -0.0607 -0.3198
  388loPI   GL1 6197   9.569   7.586  10.429 -0.0416 -0.0408  0.0911
  388loPI   GL2 6198   9.548   7.801  10.467 -0.2827  0.0681  0.2520
  388loPI   C1A 6199   9.312   7.502   9.980  0.0179  0.2779  0.0136
  388loPI   C2A 6200   9.265   7.413   9.654 -0.1797  0.1459  0.1211
  388loPI   C3A 6201   9.052   7.318   9.355 -0.1660  0.0198  0.2650
  388loPI   C4A 6202   8.883   7.415   8.964 -0.2438 -0.0502  0.3604
  388loPI   C5A 6203   8.772   7.650   8.632  0.1087 -0.1417 -0.0488
  388loPI   C6A 6204   8.592   7.618   8.244 -0.3714  0.0188  0.1457
  388loPI   C1B 6205   9.780   7.821  10.075 -0.1082  0.0815  0.0748
  388loPI   C2B 6206   9.730   7.866   9.644 -0.0765 -0.1118  0.1518
  388loPI   C3B 6207   9.789   7.921   9.106  0.5149 -0.1026  0.0077
  388loPI   C4B 6208   9.789   7.717   8.684  0.0088 -0.5214 -0.1270
  389loPI    C1 6209   8.537  11.742  11.073 -0.1158 -0.1528  0.1044
  389loPI    C2 6210   8.818  11.883  11.321  0.0140  0.0133 -0.1325
  389loPI    C3 6211   8.431  11.911  11.419  0.0557  0.2312 -0.0240
  389loPI   PO4 6212   8.657  11.804  10.839 -0.0981 -0.0349 -0.4479
  389loPI   GL1 6213   8.647  11.665  10.424  0.2062  0.1796 -0.1948
  389loPI   GL2 6214   8.537  11.383  10.330  0.1560  0.3362  0.0309
  389loPI   C1A 6215   8.452  11.791   9.956  0.1818  0.0386 -0.1555
  389loPI   C2A 6216   8.256  11.703   9.629 -0.1462  0.0641 -0.2516
  389loPI   C3A 6217   8.122  11.522   9.229  0.1505  0.0048 -0.1662
  389loPI   C4A 6218   8.109  11.544   8.751  0.1393  0.0512 -0.0349
  389loPI   C5A 6219   8.179  11.525   8.314  0.0801 -0.0465 -0.1937
  389loPI   C6A 6220   7.933  11.583   8.015 -0.2234  0.3478  0.1057
  389loPI   C1B 6221   8.499  11.304   9.960 -0.1285  0.1253  0.3263
  389loPI   C2B 6222   8.674  11.448   9.608 -0.0015 -0.0151 -0.2922
  389loPI   C3B 6223   8.633  11.691   9.232  0.1912 -0.2905  0.5107
  389loPI   C4B 6224   8.627  11.761   8.702  0.0430  0.2041 -0.1250
  390loPI    C1 6225  17.714   7.460  10.560 -0.0263 -0.0011  0.0598
  390loPI    C2 6226  17.623   7.812  10.725  0.2560  0.0293  0.1561
  390loPI    C3 6227  17.800   7.529  10.944  0.1631 -0.1200  0.0402
  390loPI   PO4 6228  17.935   7.498  10.359 -0.0851 -0.0039  0.0468
  390loPI   GL1 6229  17.922   7.571  10.001 -0.1863 -0.1623 -0.1342
  390loPI   GL2 6230  18.156   7.544   9.857  0.2526  0.0171 -0.4328
  390loPI   C1A 6231  17.687   7.533   9.619 -0.1199  0.0348 -0.1690
  390loPI   C2A 6232  17.743   7.464   9.216 -0.0141  0.0107  0.3574
  390loPI   C3A 6233  17.764   7.318   8.823 -0.2617 -0.0541 -0.0469
  390loPI   C4A 6234  17.664   7.293   8.362  0.0173 -0.2276  0.4211
  390loPI   C5A 6235  17.513   7.229   7.935 -0.1172  0.3040 -0.4248
  390loPI   C6A 6236  17.598   7.122   7.518 -0.1452  0.1138 -0.0559
  390loPI   C1B 6237  18.197   7.487   9.334  0.3979  0.1298 -0.2486
  390loPI   C2B 6238  18.073   7.669   8.916  0.0623 -0.1464  0.1272
  390loPI   C3B 6239  17.880   7.727   8.543  0.0770  0.0652 -0.1644
  390loPI   C4B 6240  17.722   7.897   8.228  0.0308  0.0022  0.0481
  391loPI    C1 6241  12.807  14.627  11.203 -0.2265  0.1517 -0.1835
  391loPI    C2 6242  12.969  14.408  11.496 -0.0374  0.1236 -0.3070
  391loPI    C3 6243  12.730  14.716  11.585 -0.2484 -0.0871 -0.1307
  391loPI   PO4 6244  12.718  14.434  10.968  0.2371  0.0402  0.0427
  391loPI   GL1 6245  12.563  14.309  10.548  0.1926  0.1672  0.0784
  391loPI   GL2 6246  12.882  14.349  10.472 -0.2115 -0.0035  0.1492
  391loPI   C1A 6247  12.379  14.255  10.206  0.0177  0.0667  0.0322
  391loPI   C2A 6248  12.444  14.315   9.785 -0.0553  0.1511  0.3557
  391loPI   C3A 6249  12.411  14.348   9.515  0.1170  0.0185  0.0239
  391loPI   C4A 6250  12.585  14.508   9.026 -0.1667 -0.0209  0.0526
  391loPI   C5A 6251  12.944  14.340   8.818  0.1176 -0.0972 -0.3348
  391loPI   C6A 6252  12.869  13.984   8.562 -0.0490 -0.0725 -0.0610
  391loPI   C1B 6253  12.918  14.552  10.052  0.0465 -0.3049 -0.0266
  391loPI   C2B 6254  12.896  14.523   9.578  0.0382  0.1037  0.3974
  391loPI   C3B 6255  13.057  14.653   9.187  0.1426  0.1437 -0.0192
  391loPI   C4B 6256  12.902  14.865   8.786  0.1771 -0.0737  0.0162
  392loPI    C1 6257  17.728  12.968  10.948 -0.2620 -0.2287 -0.2111
  392loPI    C2 6258  17.969  12.652  10.899  0.0383 -0.0757  0.2177
  392loPI    C3 6259  17.677  12.641  11.172 -0.1117 -0.0705  0.0595
  392loPI   PO4 6260  17.835  13.109  10.766 -0.1734  0.0623  0.3093
  392loPI   GL1 6261  17.849  13.359  10.422  0.1313 -0.1719 -0.1959
  392loPI   GL2 6262  18.084  13.035  10.255 -0.1592  0.0050  0.0242
  392loPI   C1A 6263  17.924  13.494  10.033  0.0517  0.3754  0.0493
  392loPI   C2A 6264  17.817  13.497   9.622 -0.1595  0.5661 -0.0691
  392loPI   C3A 6265  17.853  13.464   9.178  0.2993  0.3231  0.3912
  392loPI   C4A 6266  17.938  13.623   8.746 -0.0633  0.1438 -0.0086
  392loPI   C5A 6267  17.888  13.737   8.339  0.3361 -0.0735  0.0410
  392loPI   C6A 6268  17.768  13.894   8.038 -0.0669  0.0587 -0.2805
  392loPI   C1B 6269  18.116  12.978   9.724 -0.0148 -0.0181 -0.2743
  392loPI   C2B 6270  18.172  13.097   9.323  0.3187 -0.3348 -0.3543
  392loPI   C3B 6271  18.205  13.232   8.946  0.1593  0.4780 -0.1949
  392loPI   C4B 6272  18.220  13.298   8.591 -0.0664  0.2092  0.1215
  393loPI    C1 6273   9.224  16.349  11.138  0.1528  0.1419 -0.0860
  393loPI    C2 6274   9.489  16.384  11.436  0.0558  0.1683 -0.0022
  393loPI    C3 6275   9.184  16.126  11.468  0.1795 -0.0031 -0.1797
  393loPI   PO4 6276   9.084  16.572  11.100  0.0269  0.2339 -0.3097
  393loPI   GL1 6277   8.857  16.726  10.691  0.1059 -0.2235 -0.0329
  393loPI   GL2 6278   8.888  16.954  10.446  0.0091  0.0389  0.1535
  393loPI   C1A 6279   8.555  16.653  10.271  0.1981 -0.4455  0.0012
  393loPI   C2A 6280   8.420  16.632   9.815 -0.0001  0.1390 -0.1764
  393loPI   C3A 6281   8.323  16.640   9.312 -0.0271  0.3865 -0.0944
  393loPI   C4A 6282   8.484  16.465   8.987 -0.1088 -0.0284 -0.1286
  393loPI   C5A 6283   8.352  16.193   8.676 -0.0134  0.3325  0.0374
  393loPI   C6A 6284   8.267  15.969   8.256 -0.1072 -0.2981 -0.1770
  393loPI   C1B 6285   8.828  17.052  10.036 -0.2015  0.1836  0.0809
  393loPI   C2B 6286   8.755  16.946   9.587  0.2456 -0.0633 -0.0525
  393loPI   C3B 6287   8.835  16.919   9.108 -0.3821  0.0921 -0.1208
  393loPI   C4B 6288   9.261  16.725   9.031 -0.1881 -0.2973 -0.1458
  394loPI    C1 6289   9.747  17.232  10.841 -0.0319  0.0588 -0.2205
  394loPI    C2 6290   9.559  17.244  11.194  0.1607  0.0669 -0.1168
  394loPI    C3 6291   9.950  17.161  11.179  0.1940  0.2529 -0.3131
  394loPI   PO4 6292   9.629  17.065  10.721 -0.0652  0.1849 -0.0815
  394loPI   GL1 6293   9.445  16.987  10.348  0.0444 -0.1393 -0.1257
  394loPI   GL2 6294   9.295  17.268  10.170  0.3741 -0.2971 -0.2287
  394loPI   C1A 6295   9.428  16.854   9.949  0.2074 -0.0912 -0.1446
  394loPI   C2A 6296   9.438  16.890   9.520 -0.0007  0.0867 -0.2198
  394loPI   C3A 6297   9.695  17.020   9.141  0.1126  0.1933 -0.5962
  394loPI   C4A 6298   9.754  17.087   8.812 -0.0752  0.1163  0.1837
  394loPI   C5A 6299   9.421  16.862   8.624 -0.1294  0.0680  0.0055
  394loPI   C6A 6300   9.231  16.844   8.297 -0.1938  0.2657 -0.2770
  394loPI   C1B 6301   9.194  17.263   9.739  0.3226 -0.0306  0.0578
  394loPI   C2B 6302   9.120  17.205   9.338  0.0760 -0.0226  0.2890
  394loPI   C3B 6303   9.258  17.239   8.869  0.0075 -0.1566  0.0043
  394loPI   C4B 6304   9.210  17.272   8.379 -0.0276  0.1857  0.0731
  395loPI    C1 6305   5.633   9.740  10.570  0.0432  0.0694 -0.0129
  395loPI    C2 6306   5.486   9.376  10.643 -0.2669  0.1964  0.0127
  395loPI    C3 6307   5.572   9.621  10.947  0.1043  0.0858  0.0022
  395loPI   PO4 6308   5.463   9.801  10.352 -0.2454  0.3806  0.0354
  395loPI   GL1 6309   5.543  10.055   9.988 -0.1156  0.0368 -0.4332
  395loPI   GL2 6310   5.123   9.879   9.992 -0.1410  0.0792 -0.2026
  395loPI   C1A 6311   5.778  10.084   9.568 -0.2504  0.0279  0.0548
  395loPI   C2A 6312   6.041  10.081   9.294 -0.0303 -0.0149  0.0796
  395loPI   C3A 6313   6.155  10.119   8.954 -0.3466 -0.0564 -0.3933
  395loPI   C4A 6314   6.191  10.161   8.498 -0.1205 -0.2808 -0.0457
  395loPI   C5A 6315   6.091  10.351   8.096  0.0066  0.3705 -0.0208
  395loPI   C6A 6316   5.812  10.481   7.858 -0.0048 -0.1648  0.2663
  395loPI   C1B 6317   5.189  10.126   9.631 -0.0117  0.1175 -0.2681
  395loPI   C2B 6318   5.381  10.097   9.287 -0.0659 -0.1720  0.0311
  395loPI   C3B 6319   5.632  10.107   8.991  0.1733 -0.0718  0.3017
  395loPI   C4B 6320   5.695   9.913   8.535 -0.1780  0.3407 -0.0309
  396loPI    C1 6321   7.179  16.658  10.898  0.0041 -0.2140  0.2353
  396loPI    C2 6322   6.997  17.009  10.959  0.2695 -0.0058 -0.1288
  396loPI    C3 6323   6.836  16.672  11.103 -0.0302  0.2525  0.1567
  396loPI   PO4 6324   7.198  16.686  10.605  0.0940  0.2049  0.0529
  396loPI   GL1 6325   7.180  16.958  10.328 -0.4282 -0.0487 -0.0288
  396loPI   GL2 6326   7.192  17.165  10.089  0.0391  0.1776  0.2446
  396loPI   C1A 6327   6.971  16.731   9.957 -0.3733 -0.2921 -0.0645
  396loPI   C2A 6328   7.007  16.810   9.538 -0.0289 -0.4245 -0.0000
  396loPI   C3A 6329   7.052  16.630   9.158 -0.1302 -0.1455 -0.1820
  396loPI   C4A 6330   6.987  16.545   8.858  0.0546 -0.0282  0.0292
  396loPI   C5A 6331   6.958  16.671   8.483 -0.1040 -0.0636  0.2846
  396loPI   C6A 6332   7.171  16.919   8.185 -0.1761 -0.3842  0.2214
  396loPI   C1B 6333   7.405  17.425   9.781  0.0375 -0.0843 -0.1864
  396loPI   C2B 6334   7.304  17.684   9.354 -0.0354  0.5462  0.2950
  396loPI   C3B 6335   7.260  17.771   8.872 -0.1494 -0.0831  0.0884
  396loPI   C4B 6336   7.045  17.686   8.545 -0.2273 -0.3285 -0.0259
  397loPI    C1 6337   0.120  13.530  10.935  0.0171 -0.2862 -0.0314
  397loPI    C2 6338   0.199  13.207  11.156  0.2228 -0.0585  0.2354
  397loPI    C3 6339   0.298  13.570  11.291  0.0472  0.1131 -0.0865
  397loPI   PO4 6340   0.209  13.511  10.717 -0.1871  0.0329 -0.0939
  397loPI   GL1 6341   0.602  13.600  10.508  0.0683 -0.2484 -0.0618
  397loPI   GL2 6342   0.772  13.417  10.429 -0.2973  0.1150  0.0399
  397loPI   C1A 6343   0.446  13.416  10.075 -0.1177  0.1407  0.0293
  397loPI   C2A 6344   0.378  13.521   9.709  0.1258  0.0449 -0.1773
  397loPI   C3A 6345   0.419  13.607   9.263  0.2281 -0.0826 -0.1631
  397loPI   C4A 6346   0.467  13.767   8.825  0.0264 -0.1012 -0.0674
  397loPI   C5A 6347   0.587  13.730   8.469  0.0529  0.0369 -0.2531
  397loPI   C6A 6348   0.832  13.619   8.109  0.0412  0.0554  0.1307
  397loPI   C1B 6349   0.884  13.607  10.061 -0.0445  0.1384  0.1194
  397loPI   C2B 6350   0.840  13.602   9.596  0.0444 -0.0227  0.1274
  397loPI   C3B 6351   0.881  13.759   9.291 -0.1573 -0.2380 -0.1378
  397loPI   C4B 6352   0.976  13.781   8.861 -0.2568 -0.2358 -0.0512
  398loPI    C1 6353   9.078   8.880  11.130 -0.2118 -0.5487 -0.0969
  398loPI    C2 6354   9.209   8.805  11.501 -0.1167 -0.0646 -0.0260
  398loPI    C3 6355   8.828   8.910  11.442 -0.0839  0.0471 -0.0408
  398loPI   PO4 6356   9.201   9.015  11.051  0.0845 -0.1621 -0.0313
  398loPI   GL1 6357   9.128   9.231  10.756 -0.0807 -0.0624 -0.0408
  398loPI   GL2 6358   9.031   9.002  10.560  0.1704 -0.0525  0.0108
  398loPI   C1A 6359   9.119   9.491  10.372  0.3185  0.0044  0.1771
  398loPI   C2A 6360   9.084   9.636  10.032 -0.3174 -0.1662 -0.0430
  398loPI   C3A 6361   8.963   9.595   9.721 -0.3468  0.1800  0.2128
  398loPI   C4A 6362   8.849   9.613   9.267 -0.1536  0.3551 -0.2037
  398loPI   C5A 6363   8.954   9.771   8.880  0.0234  0.0275  0.0678
  398loPI   C6A 6364   8.914   9.457   8.465  0.2868 -0.0714 -0.0959
  398loPI   C1B 6365   9.093   8.994  10.125 -0.0651 -0.1073 -0.2280
  398loPI   C2B 6366   9.187   8.910   9.687  0.0425  0.0415 -0.0399
  398loPI   C3B 6367   9.169   8.832   9.179  0.0239 -0.0505 -0.1280
  398loPI   C4B 6368   9.275   8.657   8.844  0.2463  0.0490 -0.3827
  399loPI    C1 6369   9.729   3.977  10.656  0.1403 -0.1075  0.1739
  399loPI    C2 6370   9.569   4.028  11.019  0.1952 -0.2041  0.2120
  399loPI    C3 6371   9.582   3.663  10.855  0.0048 -0.1338  0.0350
  399loPI   PO4 6372   9.727   4.102  10.499  0.0449  0.1510  0.3849
  399loPI   GL1 6373   9.731   4.002  10.083  0.1095 -0.0721  0.1375
  399loPI   GL2 6374  10.078   4.051  10.111 -0.1694  0.1849  0.1465
  399loPI   C1A 6375   9.663   3.864   9.644  0.1072 -0.0694 -0.1951
  399loPI   C2A 6376   9.696   3.884   9.229 -0.0133  0.0277  0.0269
  399loPI   C3A 6377   9.857   4.019   8.845 -0.1578 -0.3328 -0.3308
  399loPI   C4A 6378   9.906   4.343   8.504  0.0287  0.0207  0.0866
  399loPI   C5A 6379   9.904   4.331   8.140  0.2789 -0.3054 -0.1091
  399loPI   C6A 6380   9.665   4.417   7.667  0.1847  0.2522 -0.0896
  399loPI   C1B 6381  10.098   4.134   9.592 -0.5953  0.0842  0.2095
  399loPI   C2B 6382  10.258   4.118   9.172  0.0614  0.1032  0.0019
  399loPI   C3B 6383  10.408   4.317   8.776 -0.1815 -0.0073 -0.1058
  399loPI   C4B 6384  10.655   4.417   8.456  0.1568  0.1033 -0.0884
  400loPI    C1 6385   9.906  17.663  10.864  0.2127 -0.0074  0.0895
  400loPI    C2 6386   9.905  17.634  11.263 -0.0223 -0.0643  0.0859
  400loPI    C3 6387   9.564  17.708  11.067  0.1412  0.2550 -0.0843
  400loPI   PO4 6388  10.034  17.736  10.802  0.1598 -0.0025  0.0589
  400loPI   GL1 6389  10.210  17.689  10.399 -0.4019 -0.1577 -0.2297
  400loPI   GL2 6390   9.979  17.841  10.134 -0.0553 -0.1573 -0.2402
  400loPI   C1A 6391  10.366  17.584   9.995  0.1385  0.0491 -0.0899
  400loPI   C2A 6392  10.428  17.614   9.601  0.0396  0.1084  0.1462
  400loPI   C3A 6393  10.469  17.612   9.138  0.1270 -0.3270 -0.0732
  400loPI   C4A 6394  10.672  17.484   8.777 -0.1869  0.2159  0.0931
  400loPI   C5A 6395  10.989  17.505   8.466  0.1445 -0.1125 -0.0285
  400loPI   C6A 6396  11.279  17.571   8.271 -0.1067 -0.1253  0.1065
  400loPI   C1B 6397  10.003  17.867   9.719 -0.1361  0.2909 -0.0953
  400loPI   C2B 6398  10.004  17.826   9.305  0.0368 -0.0351 -0.1070
  400loPI   C3B 6399  10.057  17.826   8.884  0.0272 -0.0357 -0.1877
  400loPI   C4B 6400  10.042  17.801   8.401  0.1307 -0.0420 -0.2727
  401loPI    C1 6401   9.537   8.719  10.825 -0.0860  0.0999 -0.0299
  401loPI    C2 6402   9.455   8.478  11.134  0.1363 -0.0177 -0.0612
  401loPI    C3 6403   9.606   8.842  11.199 -0.2281  0.1288 -0.0124
  401loPI   PO4 6404   9.440   8.736  10.684  0.1367  0.0990 -0.2270
  401loPI   GL1 6405   9.535   8.811  10.303  0.1139 -0.1743 -0.2929
  401loPI   GL2 6406   9.490   9.153  10.338 -0.0560 -0.1271 -0.2299
  401loPI   C1A 6407   9.709   8.960   9.900 -0.1026  0.0651  0.0670
  401loPI   C2A 6408   9.682   9.117   9.510  0.0142  0.0121 -0.0017
  401loPI   C3A 6409   9.659   8.859   9.261  0.0588 -0.0726  0.0958
  401loPI   C4A 6410   9.681   8.956   8.814 -0.1661  0.2053  0.1686
  401loPI   C5A 6411   9.296   9.058   8.460 -0.1997  0.0051 -0.3098
  401loPI   C6A 6412   8.886   8.924   8.214  0.2370  0.2460 -0.0376
  401loPI   C1B 6413   9.392   9.341   9.877  0.3124  0.4853  0.1645
  401loPI   C2B 6414   9.255   9.317   9.363 -0.2391 -0.1778 -0.2030
  401loPI   C3B 6415   9.275   9.230   8.972  0.0608 -0.3416  0.3795
  401loPI   C4B 6416   9.687   9.426   8.651  0.1362  0.0668 -0.3394
  402loPI    C1 6417  17.245  13.881  10.818  0.0898 -0.0251  0.1006
  402loPI    C2 6418  17.535  13.986  11.072  0.1140  0.1433  0.0048
  402loPI    C3 6419  17.152  14.041  11.172  0.1204  0.1041  0.0509
  402loPI   PO4 6420  17.277  14.012  10.623 -0.3509  0.3814 -0.3686
  402loPI   GL1 6421  16.957  14.082  10.351  0.2231  0.1980  0.0951
  402loPI   GL2 6422  17.021  13.793  10.077 -0.0112 -0.0349  0.1660
  402loPI   C1A 6423  17.139  14.211   9.872 -0.1272  0.0020  0.2706
  402loPI   C2A 6424  17.248  14.255   9.380 -0.0024  0.2228 -0.0270
  402loPI   C3A 6425  17.081  14.207   8.934 -0.3047 -0.1300 -0.2031
  402loPI   C4A 6426  16.958  14.319   8.462 -0.1075  0.0243 -0.1911
  402loPI   C5A 6427  17.309  14.584   8.169 -0.0369 -0.0258 -0.2001
  402loPI   C6A 6428  17.308  14.679   7.773 -0.0450 -0.1485  0.1877
  402loPI   C1B 6429  17.065  13.806   9.643 -0.0646  0.2225  0.3685
  402loPI   C2B 6430  17.027  13.832   9.186  0.0710  0.2361 -0.1529
  402loPI   C3B 6431  17.013  13.759   8.728 -0.0609  0.1702 -0.2325
  402loPI   C4B 6432  16.802  13.571   8.361 -0.0896  0.2887  0.0980
  403loPI    C1 6433  12.875  16.359  10.805 -0.0245  0.1903 -0.3928
  403loPI    C2 6434  13.076  16.420  11.146 -0.3287  0.2119 -0.2133
  403loPI    C3 6435  13.201  16.591  10.807 -0.1409  0.3587 -0.0724
  403loPI   PO4 6436  12.815  16.040  10.779 -0.2102 -0.2290 -0.1133
  403loPI   GL1 6437  12.531  15.984  10.448  0.2123 -0.0824 -0.1027
  403loPI   GL2 6438  12.692  15.723  10.466 -0.0122 -0.0141 -0.1599
  403loPI   C1A 6439  12.395  15.919  10.127 -0.2520  0.1408 -0.0482
  403loPI   C2A 6440  12.419  15.813   9.746 -0.0866  0.0040 -0.1536
  403loPI   C3A 6441  12.188  15.806   9.432 -0.1663 -0.1487  0.2458
  403loPI   C4A 6442  11.973  15.734   9.103  0.0236  0.3489 -0.0094
  403loPI   C5A 6443  11.932  15.892   8.547 -0.0468 -0.0448 -0.1006
  403loPI   C6A 6444  11.469  15.850   8.371 -0.0996 -0.0766 -0.2891
  403loPI   C1B 6445  12.872  15.593  10.119 -0.3711 -0.0489  0.2138
  403loPI   C2B 6446  12.817  15.534   9.679  0.2344  0.0570 -0.0632
  403loPI   C3B 6447  12.711  15.643   9.227 -0.2884 -0.0194 -0.0138
  403loPI   C4B 6448  12.832  15.911   8.970 -0.5496  0.0584 -0.0292
  404loPI    C1 6449  17.463   1.008  11.070 -0.0310 -0.1093 -0.0146
  404loPI    C2 6450  17.639   0.914  11.416  0.0185 -0.1101 -0.0399
  404loPI    C3 6451  17.242   0.881  11.378  0.0251 -0.2178 -0.0189
  404loPI   PO4 6452  17.603   0.940  10.942 -0.0406 -0.0085 -0.0174
  404loPI   GL1 6453  18.001   0.883  10.749 -0.2437 -0.2725  0.2054
  404loPI   GL2 6454  18.109   1.168  10.707 -0.3934 -0.0326  0.1220
  404loPI   C1A 6455  17.852   0.787  10.337  0.2012 -0.2797  0.1241
  404loPI   C2A 6456  17.869   0.639   9.838 -0.0404 -0.2349 -0.1336
  404loPI   C3A 6457  17.827   0.775   9.373 -0.0678  0.0210 -0.0031
  404loPI   C4A 6458  17.782   0.894   8.997 -0.0183 -0.0882 -0.0297
  404loPI   C5A 6459  17.814   0.634   8.594 -0.4296 -0.1667 -0.0327
  404loPI   C6A 6460  17.931   0.190   8.433  0.0164 -0.1477  0.0903
  404loPI   C1B 6461  17.967   1.358  10.501  0.2947 -0.0709 -0.2015
  404loPI   C2B 6462  17.973   1.285  10.124 -0.2888  0.0838  0.1142
  404loPI   C3B 6463  17.794   1.140   9.740  0.0784 -0.0673 -0.0711
  404loPI   C4B 6464  17.603   1.244   9.377 -0.0575  0.2083 -0.0656
  405loPI    C1 6465  15.378   5.262  11.222  0.0476  0.0232 -0.2821
  405loPI    C2 6466  15.645   4.980  11.127  0.2427  0.0811  0.0776
  405loPI    C3 6467  15.767   5.354  11.199  0.0428  0.1477  0.0756
  405loPI   PO4 6468  15.163   5.370  11.026 -0.2072 -0.2102 -0.0306
  405loPI   GL1 6469  14.950   5.484  10.632 -0.1900 -0.1099  0.1494
  405loPI   GL2 6470  14.963   5.224  10.416 -0.0030  0.1374  0.0459
  405loPI   C1A 6471  14.976   5.841  10.346 -0.0176 -0.1699 -0.1463
  405loPI   C2A 6472  14.861   5.967   9.975  0.4959 -0.1471  0.1211
  405loPI   C3A 6473  14.664   5.875   9.486  0.0781 -0.0434  0.2235
  405loPI   C4A 6474  14.766   6.097   9.072 -0.0020  0.0820 -0.2660
  405loPI   C5A 6475  14.754   6.182   8.681  0.1605  0.1446  0.1862
  405loPI   C6A 6476  14.712   5.935   8.334 -0.1444 -0.1701 -0.1398
  405loPI   C1B 6477  14.964   5.158   9.943 -0.1436  0.1048  0.1377
  405loPI   C2B 6478  14.773   5.154   9.481  0.3986 -0.3844 -0.2057
  405loPI   C3B 6479  14.773   5.124   9.121 -0.0016 -0.0761  0.4220
  405loPI   C4B 6480  14.673   5.051   8.699  0.1940 -0.0849  0.0233
  406POPI    C1 6481  12.211  13.211  11.060  0.1108 -0.1605 -0.3016
  406POPI    C2 6482  11.927  12.991  11.237 -0.0223  0.2306 -0.0156
  406POPI    C3 6483  12.302  12.980  11.374  0.0489 -0.0857 -0.2277
  406POPI   PO4 6484  12.136  13.101  10.808  0.2009  0.0573 -0.0079
  406POPI   GL1 6485  12.121  13.176  10.414 -0.2706  0.1250 -0.0779
  406POPI   GL2 6486  12.476  13.173  10.297  0.4034 -0.1149  0.0249
  406POPI   C1A 6487  12.075  12.921  10.053 -0.2529  0.2011 -0.2461
  406POPI   D2A 6488  11.994  12.893   9.643 -0.3692  0.0350 -0.0502
  406POPI   C3A 6489  12.340  12.980   9.362 -0.1213 -0.0576 -0.0135
  406POPI   C4A 6490  12.612  12.947   9.013 -0.0666  0.0622 -0.0721
  406POPI   C1B 6491  12.453  13.219   9.864 -0.6202 -0.0106 -0.0917
  406POPI   C2B 6492  12.774  13.254   9.513 -0.1879  0.1240 -0.1252
  406POPI   C3B 6493  13.035  13.167   9.116  0.1691  0.0413 -0.0338
  406POPI   C4B 6494  13.080  13.017   8.728 -0.0287 -0.0606 -0.0473
  407POPI    C1 6495   5.778  17.286  11.231  0.1195 -0.2816  0.0612
  407POPI    C2 6496   5.716  17.408  11.607  0.3254 -0.0304  0.0165
  407POPI    C3 6497   5.665  17.023  11.510  0.1480 -0.0734  0.2718
  407POPI   PO4 6498   5.683  17.524  11.030 -0.4221 -0.1042  0.0627
  407POPI   GL1 6499   5.850  17.769  10.568  0.0249 -0.1045 -0.3618
  407POPI   GL2 6500   5.749  18.058  10.513  0.0234  0.1957 -0.1119
  407POPI   C1A 6501   5.603  17.439  10.334  0.3180  0.0969  0.1028
  407POPI   D2A 6502   5.411  17.015  10.379 -0.3067 -0.0871 -0.0293
  407POPI   C3A 6503   5.582  16.763  10.162 -0.2974  0.0191 -0.0226
  407POPI   C4A 6504   5.498  16.776   9.863 -0.5784  0.0371 -0.3105
  407POPI   C1B 6505   5.637  17.862  10.098 -0.1867 -0.0264 -0.0734
  407POPI   C2B 6506   5.678  17.815   9.599  0.1075  0.1997 -0.1885
  407POPI   C3B 6507   5.666  17.733   9.158 -0.0616  0.1080 -0.1663
  407POPI   C4B 6508   5.733  17.433   8.840 -0.1485  0.0047  0.1778
  408POPI    C1 6509   2.766  10.846  11.047  0.1766  0.0247  0.1685
  408POPI    C2 6510   2.487  11.082  11.211  0.0156 -0.0555  0.0131
  408POPI    C3 6511   2.585  10.737  11.387  0.0194 -0.0255  0.0698
  408POPI   PO4 6512   2.689  10.901  10.746  0.2127 -0.2281  0.1373
  408POPI   GL1 6513   2.650  10.687  10.281  0.0944 -0.0836 -0.1026
  408POPI   GL2 6514   2.297  10.794  10.408  0.3072  0.2471 -0.2486
  408POPI   C1A 6515   2.689  10.555   9.946 -0.0376 -0.3211  0.1072
  408POPI   D2A 6516   2.650  10.393   9.529  0.0118 -0.1144  0.0994
  408POPI   C3A 6517   2.871  10.305   9.118 -0.0406  0.2015 -0.0250
  408POPI   C4A 6518   2.845  10.071   8.706 -0.0694 -0.2511 -0.1234
  408POPI   C1B 6519   2.258  10.970  10.018  0.2727 -0.0444  0.0199
  408POPI   C2B 6520   2.084  11.140   9.647 -0.0075  0.2227  0.3412
  408POPI   C3B 6521   2.020  11.079   9.206  0.2808  0.0006 -0.0140
  408POPI   C4B 6522   1.922  10.965   8.883 -0.1374  0.0410  0.1489
  409POPI    C1 6523  10.778   4.604  10.913  0.0941  0.2847 -0.0899
  409POPI    C2 6524  10.813   4.837  11.236  0.0697  0.0485  0.0854
  409POPI    C3 6525  10.904   4.448  11.259  0.4908  0.1154 -0.3033
  409POPI   PO4 6526  10.874   4.705  10.744  0.0581  0.0676  0.1657
  409POPI   GL1 6527  11.078   4.968  10.464 -0.1734  0.0063 -0.0217
  409POPI   GL2 6528  10.796   4.690  10.270 -0.2770 -0.0560 -0.0439
  409POPI   C1A 6529  11.309   4.985  10.102 -0.0440  0.2764  0.0048
  409POPI   D2A 6530  11.391   4.748   9.705  0.1008  0.0041 -0.3324
  409POPI   C3A 6531  11.670   4.456   9.640  0.2900  0.0306  0.1961
  409POPI   C4A 6532  11.656   4.280   9.268 -0.1029 -0.2149 -0.2729
  409POPI   C1B 6533  10.875   4.770   9.797 -0.4443 -0.1908 -0.1493
  409POPI   C2B 6534  10.841   4.815   9.395 -0.1410 -0.3381  0.1209
  409POPI   C3B 6535  10.713   5.116   9.024  0.2563 -0.1400  0.0411
  409POPI   C4B 6536  10.534   5.455   8.792 -0.0179 -0.0115  0.0103
  410POPI    C1 6537   9.934  12.481  10.858  0.2402 -0.0622 -0.1898
  410POPI    C2 6538   9.621  12.456  11.106  0.1538 -0.2458 -0.3150
  410POPI    C3 6539   9.936  12.683  11.203 -0.1388  0.1727 -0.3181
  410POPI   PO4 6540   9.828  12.421  10.610 -0.2810  0.2943  0.2397
  410POPI   GL1 6541   9.834  12.255  10.260  0.0122  0.1763 -0.1778
  410POPI   GL2 6542   9.809  11.869  10.228 -0.0046 -0.1456 -0.1585
  410POPI   C1A 6543   9.712  12.368   9.895  0.1700 -0.0330  0.1820
  410POPI   D2A 6544   9.688  12.265   9.494  0.0978 -0.1643  0.3563
  410POPI   C3A 6545   9.765  12.440   9.134 -0.0559 -0.2913 -0.1268
  410POPI   C4A 6546   9.870  12.627   8.753 -0.3238  0.2303  0.0171
  410POPI   C1B 6547   9.787  11.865   9.820 -0.0917  0.1037  0.0125
  410POPI   C2B 6548   9.782  11.739   9.431  0.0535  0.1070  0.2307
  410POPI   C3B 6549   9.878  11.769   9.039 -0.1161 -0.0914  0.2449
  410POPI   C4B 6550   9.822  11.842   8.550 -0.0701 -0.0749  0.2375
  411POPI    C1 6551  14.149   8.623  11.005 -0.0082 -0.0671  0.1738
  411POPI    C2 6552  13.852   8.762  11.234  0.1311  0.0857  0.2641
  411POPI    C3 6553  13.983   8.387  11.282  0.0365  0.0582  0.3087
  411POPI   PO4 6554  14.157   8.775  10.746  0.2724  0.1377 -0.2918
  411POPI   GL1 6555  14.486   8.940  10.420  0.1309 -0.1008  0.1755
  411POPI   GL2 6556  14.402   8.667  10.269  0.0042 -0.1472 -0.2510
  411POPI   C1A 6557  14.204   9.078  10.061  0.0327  0.0917 -0.1232
  411POPI   D2A 6558  13.974   9.044   9.607  0.1349 -0.1854 -0.2806
  411POPI   C3A 6559  13.973   9.288   9.197 -0.1426  0.0814 -0.1155
  411POPI   C4A 6560  13.855   9.265   8.775 -0.0886 -0.0829 -0.1979
  411POPI   C1B 6561  14.556   8.832   9.814  0.0394  0.0124 -0.4666
  411POPI   C2B 6562  14.442   9.045   9.532 -0.1318 -0.2218 -0.0968
  411POPI   C3B 6563  14.482   9.141   8.958 -0.1602  0.0057 -0.1172
  411POPI   C4B 6564  14.343   9.157   8.499 -0.1192  0.0303 -0.3517
  412POPI    C1 6565   7.975  13.515  11.064 -0.2491 -0.0979 -0.0163
  412POPI    C2 6566   8.186  13.237  11.259  0.0146  0.1596  0.0735
  412POPI    C3 6567   7.929  13.470  11.459  0.0382  0.2009  0.0558
  412POPI   PO4 6568   7.779  13.496  10.794  0.0618  0.0637 -0.0053
  412POPI   GL1 6569   7.559  13.512  10.421 -0.2572 -0.2558 -0.0720
  412POPI   GL2 6570   7.383  13.385  10.244 -0.1001 -0.2077 -0.0978
  412POPI   C1A 6571   7.758  13.373   9.965  0.0432  0.0967 -0.2664
  412POPI   D2A 6572   7.558  13.280   9.490  0.1751  0.0461  0.1087
  412POPI   C3A 6573   7.505  13.539   9.137 -0.2715  0.1630 -0.2624
  412POPI   C4A 6574   7.653  13.624   8.679  0.0224 -0.2787 -0.2716
  412POPI   C1B 6575   7.259  13.510   9.823  0.0681  0.1603 -0.1871
  412POPI   C2B 6576   7.014  13.585   9.349 -0.0551 -0.2876  0.0257
  412POPI   C3B 6577   7.014  13.612   8.937 -0.2145  0.2869 -0.0106
  412POPI   C4B 6578   7.161  13.674   8.511  0.1847  0.0492 -0.4074
  413POPI    C1 6579   3.531  14.913  11.183 -0.2720 -0.0020 -0.0558
  413POPI    C2 6580   3.665  14.608  10.961 -0.0615  0.1044 -0.0776
  413POPI    C3 6581   3.804  14.661  11.332 -0.2712  0.0388  0.0122
  413POPI   PO4 6582   3.606  15.137  11.037 -0.2877 -0.0324 -0.2559
  413POPI   GL1 6583   3.694  15.162  10.631 -0.0047  0.0405 -0.2942
  413POPI   GL2 6584   3.860  14.876  10.666 -0.1212 -0.1547 -0.4294
  413POPI   C1A 6585   3.870  15.194  10.201  0.0933 -0.1547  0.1114
  413POPI   D2A 6586   4.115  14.962   9.829  0.2956  0.2235  0.1561
  413POPI   C3A 6587   4.148  15.025   9.381  0.1010  0.0540 -0.0686
  413POPI   C4A 6588   3.848  15.387   9.162  0.2018 -0.1942  0.2953
  413POPI   C1B 6589   3.616  14.772  10.283 -0.0570  0.0128 -0.3411
  413POPI   C2B 6590   3.538  14.912   9.908  0.0170  0.0875 -0.0725
  413POPI   C3B 6591   3.690  14.785   9.509  0.1586 -0.1095 -0.2044
  413POPI   C4B 6592   3.904  14.702   9.078 -0.1766  0.2952  0.0626
  414POPI    C1 6593  10.177   2.354  10.590 -0.0460  0.0455 -0.0125
  414POPI    C2 6594  10.215   1.966  10.499  0.2699  0.0907 -0.0846
  414POPI    C3 6595  10.271   2.090  10.875  0.2203  0.0739 -0.0716
  414POPI   PO4 6596  10.010   2.465  10.529  0.0015 -0.0527 -0.2372
  414POPI   GL1 6597   9.902   2.241  10.152  0.1978  0.1160  0.1977
  414POPI   GL2 6598   9.975   2.372   9.993 -0.0728 -0.5486 -0.0193
  414POPI   C1A 6599   9.659   2.123   9.693  0.0394  0.1622 -0.1624
  414POPI   D2A 6600   9.540   2.106   9.318  0.2227 -0.0081  0.2606
  414POPI   C3A 6601   9.732   1.926   8.918  0.0256 -0.1566  0.1183
  414POPI   C4A 6602  10.151   1.883   8.630  0.0225  0.1201 -0.1234
  414POPI   C1B 6603  10.073   2.488   9.546 -0.3572 -0.1036 -0.2531
  414POPI   C2B 6604  10.359   2.653   9.155  0.1982  0.0203 -0.3279
  414POPI   C3B 6605  10.753   2.736   8.919  0.0466  0.0576 -0.0373
  414POPI   C4B 6606  10.951   2.464   8.676 -0.1397 -0.0681 -0.0183
  415POPI    C1 6607  17.245   9.399  10.381 -0.1338 -0.2058  0.1637
  415POPI    C2 6608  16.936   9.145  10.381 -0.4724  0.1957  0.1538
  415POPI    C3 6609  16.947   9.447  10.643 -0.0444  0.1406  0.2070
  415POPI   PO4 6610  17.237   9.396  10.044  0.2971  0.0442 -0.0184
  415POPI   GL1 6611  16.992   9.543   9.663 -0.0695  0.1858  0.1407
  415POPI   GL2 6612  16.899   9.843   9.629  0.0146 -0.0473  0.4075
  415POPI   C1A 6613  16.875   9.310   9.292 -0.0530 -0.1375  0.0223
  415POPI   D2A 6614  16.914   9.165   8.955 -0.2354  0.1539 -0.0983
  415POPI   C3A 6615  16.707   8.908   8.716  0.2571  0.1106 -0.0560
  415POPI   C4A 6616  16.642   8.535   8.369  0.0835 -0.2408 -0.2074
  415POPI   C1B 6617  16.734   9.799   9.248  0.0230 -0.0599  0.2071
  415POPI   C2B 6618  16.669   9.648   8.821  0.0034  0.1164 -0.0736
  415POPI   C3B 6619  16.713   9.426   8.467  0.0191 -0.0591 -0.1463
  415POPI   C4B 6620  16.943   9.107   8.296 -0.2774 -0.0441  0.2268
  416POPI    C1 6621   0.431   4.972  10.976 -0.0730 -0.3093  0.2000
  416POPI    C2 6622   0.608   4.641  10.836  0.1181 -0.1089 -0.0418
  416POPI    C3 6623   0.686   4.768  11.207  0.3141 -0.1444 -0.0696
  416POPI   PO4 6624   0.404   5.117  10.622  0.4991 -0.0515 -0.1252
  416POPI   GL1 6625   0.611   5.420  10.293  0.2269 -0.3630  0.1233
  416POPI   GL2 6626   0.965   5.218  10.150 -0.1138  0.2199  0.0401
  416POPI   C1A 6627   0.674   5.395   9.780  0.2279 -0.0415 -0.2426
  416POPI   D2A 6628   0.575   5.535   9.430 -0.1436  0.0607  0.1386
  416POPI   C3A 6629   0.751   5.305   9.128  0.1042  0.3762  0.1414
  416POPI   C4A 6630   0.740   5.118   8.797 -0.2596 -0.1148  0.1382
  416POPI   C1B 6631   0.859   4.918   9.900 -0.1340 -0.0678 -0.1230
  416POPI   C2B 6632   0.767   4.860   9.440  0.0331 -0.2323 -0.1323
  416POPI   C3B 6633   0.655   4.688   9.069  0.0046 -0.1053  0.1987
  416POPI   C4B 6634   0.369   4.773   8.735  0.2601 -0.0960 -0.5872
  417POPI    C1 6635   1.221   1.187  11.116 -0.3654  0.1227 -0.2114
  417POPI    C2 6636   0.938   1.316  11.368 -0.0173  0.0273  0.2419
  417POPI    C3 6637   1.035   0.928  11.357  0.0363  0.0455  0.0248
  417POPI   PO4 6638   1.182   1.259  10.943 -0.1244  0.2607 -0.0165
  417POPI   GL1 6639   1.183   1.530  10.598 -0.1801  0.0154 -0.0618
  417POPI   GL2 6640   1.380   1.306  10.380  0.0305 -0.0680  0.0440
  417POPI   C1A 6641   0.894   1.559  10.252 -0.0860 -0.1831  0.1945
  417POPI   D2A 6642   1.027   1.650   9.976  0.0832 -0.0478 -0.0663
  417POPI   C3A 6643   1.422   1.517   9.782 -0.0905  0.2429  0.1272
  417POPI   C4A 6644   1.583   1.574   9.280  0.4069  0.1079 -0.1107
  417POPI   C1B 6645   1.344   1.052   9.914 -0.3550  0.0788 -0.2130
  417POPI   C2B 6646   1.335   1.106   9.413 -0.0383  0.2264  0.0116
  417POPI   C3B 6647   1.215   1.306   9.002 -0.2759  0.1614  0.1297
  417POPI   C4B 6648   1.357   1.443   8.629  0.1776  0.2203  0.2913
  418POPI    C1 6649  17.224   1.865  11.127 -0.1744 -0.0981 -0.0937
  418POPI    C2 6650  17.016   1.742  11.446  0.2611 -0.0450  0.2217
  418POPI    C3 6651  17.234   2.077  11.466  0.3954 -0.1096 -0.0927
  418POPI   PO4 6652  17.341   1.688  11.014  0.0794  0.0723  0.0117
  418POPI   GL1 6653  17.307   1.471  10.603  0.1661  0.1302 -0.4540
  418POPI   GL2 6654  17.515   1.211  10.550 -0.1616 -0.0763  0.4335
  418POPI   C1A 6655  17.086   1.493  10.410 -0.1164 -0.4804  0.0060
  418POPI   D2A 6656  17.233   1.703   9.954 -0.0248  0.1832  0.2862
  418POPI   C3A 6657  16.842   1.903   9.766  0.0302  0.3161 -0.0108
  418POPI   C4A 6658  16.516   1.969   9.454  0.4827 -0.1666  0.1341
  418POPI   C1B 6659  17.490   1.258  10.120 -0.0944  0.0485 -0.2202
  418POPI   C2B 6660  17.207   1.207   9.692 -0.2698 -0.2140  0.0582
  418POPI   C3B 6661  17.176   1.547   9.423 -0.0195  0.0102  0.0961
  418POPI   C4B 6662  16.869   1.826   9.175 -0.0899 -0.2157  0.1314
  419POPI    C1 6663   0.901  11.177  10.769 -0.1130  0.1498 -0.1201
  419POPI    C2 6664   0.981  11.549  10.892 -0.1492  0.1071  0.0354
  419POPI    C3 6665   1.085  11.236  11.119 -0.1325  0.0224 -0.0877
  419POPI   PO4 6666   1.024  11.091  10.535  0.0646 -0.0587 -0.1796
  419POPI   GL1 6667   1.144  11.263  10.175 -0.4102  0.1010 -0.1739
  419POPI   GL2 6668   1.053  10.923  10.043 -0.3594  0.2830 -0.0719
  419POPI   C1A 6669   0.868  11.516   9.933  0.0840  0.1545 -0.2933
  419POPI   D2A 6670   0.841  11.764   9.626 -0.1379  0.0668 -0.3225
  419POPI   C3A 6671   0.808  11.831   9.198  0.0722  0.0092 -0.3526
  419POPI   C4A 6672   0.737  11.999   8.827 -0.5370 -0.1372 -0.1147
  419POPI   C1B 6673   1.064  11.157   9.683 -0.1401 -0.0764  0.0090
  419POPI   C2B 6674   1.059  11.324   9.388  0.0187 -0.2522  0.1237
  419POPI   C3B 6675   0.973  11.418   8.937 -0.1546 -0.1639  0.2855
  419POPI   C4B 6676   1.106  11.668   8.640  0.1217 -0.1833 -0.2742
  420POPI    C1 6677  13.895  11.331  10.808  0.0188 -0.0829 -0.0645
  420POPI    C2 6678  13.635  11.630  10.755 -0.0022 -0.1231 -0.1928
  420POPI    C3 6679  13.792  11.563  11.117 -0.1076 -0.0477 -0.1324
  420POPI   PO4 6680  13.955  11.294  10.611 -0.3688  0.3145  0.1296
  420POPI   GL1 6681  13.832  11.561  10.299  0.2456  0.2570 -0.1765
  420POPI   GL2 6682  13.966  11.785  10.425 -0.0053  0.1761 -0.2108
  420POPI   C1A 6683  13.892  11.493   9.862  0.1460  0.0185  0.0228
  420POPI   D2A 6684  13.989  11.580   9.423 -0.0252 -0.0704 -0.0782
  420POPI   C3A 6685  13.782  11.898   9.291  0.4284  0.2689  0.0422
  420POPI   C4A 6686  13.458  12.179   9.070  0.0022  0.0023 -0.4555
  420POPI   C1B 6687  13.837  11.982  10.024  0.2032 -0.0335  0.0062
  420POPI   C2B 6688  13.643  12.356   9.994 -0.2119  0.0536  0.0861
  420POPI   C3B 6689  13.433  12.512   9.692 -0.1495 -0.2442 -0.1565
  420POPI   C4B 6690  13.214  12.894   9.610  0.3157 -0.1409 -0.2840
  421POPI    C1 6691   4.146   9.662  10.855  0.0817  0.2739 -0.2141
  421POPI    C2 6692   4.538   9.583  10.877  0.0854  0.3122 -0.1390
  421POPI    C3 6693   4.297   9.492  11.184 -0.0024  0.0837 -0.2725
  421POPI   PO4 6694   4.069   9.624  10.549  0.1450  0.2637  0.2207
  421POPI   GL1 6695   4.129   9.584  10.092  0.2251 -0.0667  0.1074
  421POPI   GL2 6696   4.217   9.272   9.960  0.0800  0.1637  0.1378
  421POPI   C1A 6697   3.907   9.572   9.667 -0.0074  0.0351 -0.0082
  421POPI   D2A 6698   4.047   9.557   9.243 -0.1908  0.0124 -0.1443
  421POPI   C3A 6699   4.067   9.764   8.868 -0.3146  0.3170  0.0293
  421POPI   C4A 6700   4.325   9.568   8.513  0.2992  0.1619  0.1776
  421POPI   C1B 6701   4.409   9.400   9.596  0.1615  0.2714 -0.1575
  421POPI   C2B 6702   4.558   9.664   9.244  0.3208 -0.1246  0.3712
  421POPI   C3B 6703   4.732   9.636   8.769  0.3052  0.0973  0.2124
  421POPI   C4B 6704   4.801   9.590   8.325  0.1741  0.0745 -0.0550
  422POPI    C1 6705  13.213  13.604  11.179 -0.3294 -0.0030  0.0195
  422POPI    C2 6706  13.561  13.523  11.359 -0.1979 -0.1148 -0.2797
  422POPI    C3 6707  13.282  13.238  11.325 -0.1920 -0.1160 -0.3183
  422POPI   PO4 6708  13.296  13.751  10.989  0.0348 -0.1348  0.1288
  422POPI   GL1 6709  13.323  13.638  10.550 -0.1619  0.2428  0.0690
  422POPI   GL2 6710  13.594  13.658  10.595 -0.0035 -0.2693  0.2372
  422POPI   C1A 6711  13.288  13.794  10.093  0.0317  0.4529  0.3454
  422POPI   D2A 6712  13.344  13.872   9.573  0.2522  0.0123 -0.0412
  422POPI   C3A 6713  13.063  13.706   9.170  0.3684  0.1223 -0.0737
  422POPI   C4A 6714  13.191  13.517   8.770 -0.0242 -0.2205  0.1067
  422POPI   C1B 6715  13.785  13.579  10.190  0.2525  0.2696  0.3643
  422POPI   C2B 6716  13.700  13.581   9.797 -0.1617 -0.0679 -0.0943
  422POPI   C3B 6717  13.837  13.631   9.357 -0.2244 -0.0953  0.4694
  422POPI   C4B 6718  13.676  13.734   8.923  0.1127 -0.3400  0.0236
  423POPI    C1 6719  11.312   2.073  10.648  0.0476 -0.0434  0.0626
  423POPI    C2 6720  11.368   1.768  10.901 -0.1002 -0.0144  0.1312
  423POPI    C3 6721  11.173   1.709  10.557  0.1624 -0.0694 -0.0104
  423POPI   PO4 6722  11.540   2.198  10.696  0.2397 -0.0539  0.0063
  423POPI   GL1 6723  11.681   2.241  10.376 -0.1440 -0.0565 -0.2119
  423POPI   GL2 6724  11.715   1.993  10.283 -0.1169 -0.1017 -0.0877
  423POPI   C1A 6725  11.489   2.536  10.118 -0.0470 -0.0922 -0.1470
  423POPI   D2A 6726  11.479   2.617   9.704  0.1914 -0.0621  0.1169
  423POPI   C3A 6727  11.083   2.739   9.522 -0.0145 -0.0491 -0.1945
  423POPI   C4A 6728  10.713   2.856   9.428  0.0021  0.3277 -0.2006
  423POPI   C1B 6729  11.723   2.008   9.853 -0.0228  0.3608  0.2262
  423POPI   C2B 6730  11.758   1.855   9.509 -0.1052  0.1064 -0.1628
  423POPI   C3B 6731  11.777   1.981   9.062  0.2048  0.3734 -0.3013
  423POPI   C4B 6732  12.047   1.979   8.632  0.0904 -0.0481  0.0189
  424POPI    C1 6733   3.196   4.981  11.070 -0.1701 -0.0883 -0.1349
  424POPI    C2 6734   3.006   4.683  11.257 -0.0492 -0.1980 -0.1846
  424POPI    C3 6735   3.345   4.830  11.409 -0.0690 -0.1359 -0.2001
  424POPI   PO4 6736   3.085   4.984  10.783  0.1240  0.0428 -0.2977
  424POPI   GL1 6737   3.240   5.089  10.330 -0.1127  0.1629  0.0518
  424POPI   GL2 6738   3.064   5.335  10.418  0.2026 -0.0335  0.0178
  424POPI   C1A 6739   3.069   5.026   9.965 -0.2754 -0.1705  0.2317
  424POPI   D2A 6740   3.001   5.069   9.507 -0.0133 -0.3937  0.2312
  424POPI   C3A 6741   3.055   4.966   9.158  0.2799 -0.3110  0.2780
  424POPI   C4A 6742   2.958   5.190   8.755 -0.0222  0.0446 -0.2243
  424POPI   C1B 6743   3.084   5.598  10.068  0.2007  0.2974  0.1541
  424POPI   C2B 6744   3.139   5.685   9.673  0.1089 -0.1815 -0.2754
  424POPI   C3B 6745   3.218   5.739   9.282  0.3595 -0.0682 -0.0254
  424POPI   C4B 6746   3.491   6.062   9.097  0.0204 -0.1430  0.1440
  425POPI    C1 6747   0.229   8.097  10.163 -0.2496  0.0491  0.0271
  425POPI    C2 6748   0.162   7.914  10.512  0.2726  0.1161  0.1702
  425POPI    C3 6749   0.430   7.765  10.255  0.0152  0.1621 -0.1319
  425POPI   PO4 6750  -0.007   8.257   9.963 -0.1970  0.3581  0.0818
  425POPI   GL1 6751  -0.149   7.993   9.739  0.2659 -0.0982 -0.2142
  425POPI   GL2 6752  -0.397   8.088   9.664  0.2947  0.1163  0.1403
  425POPI   C1A 6753  -0.086   7.926   9.322  0.0370 -0.0428 -0.0538
  425POPI   D2A 6754  -0.117   8.104   8.845 -0.3170 -0.3670  0.0655
  425POPI   C3A 6755   0.018   8.275   8.547  0.0625 -0.0716  0.1159
  425POPI   C4A 6756   0.025   8.504   8.201  0.2786  0.0109 -0.2795
  425POPI   C1B 6757  -0.217   8.380   9.295  0.0369  0.3228 -0.0462
  425POPI   C2B 6758  -0.137   8.652   8.901 -0.2111  0.0008 -0.2776
  425POPI   C3B 6759  -0.375   8.718   8.436  0.0891 -0.1455  0.2680
  425POPI   C4B 6760  -0.593   8.908   8.028 -0.0456  0.0812 -0.2156
  426POPI    C1 6761   3.778   8.812  10.708  0.1859 -0.0395  0.1521
  426POPI    C2 6762   3.588   8.604  10.991  0.1148 -0.0740  0.0796
  426POPI    C3 6763   3.942   8.772  11.070 -0.0561  0.1944  0.2903
  426POPI   PO4 6764   3.547   8.842  10.556 -0.0211 -0.1271 -0.2962
  426POPI   GL1 6765   3.564   9.027  10.189  0.1621 -0.1287  0.0729
  426POPI   GL2 6766   3.471   8.951   9.909  0.0127 -0.1942 -0.1455
  426POPI   C1A 6767   3.609   9.435  10.058 -0.2236 -0.1244  0.1049
  426POPI   D2A 6768   3.697   9.845  10.107  0.0169  0.1322  0.0007
  426POPI   C3A 6769   3.531   9.913   9.705 -0.2696 -0.2518 -0.0122
  426POPI   C4A 6770   3.524   9.833   9.370  0.2942 -0.1300  0.2791
  426POPI   C1B 6771   3.887   9.028   9.714 -0.2007  0.0778  0.0808
  426POPI   C2B 6772   4.065   9.051   9.304  0.0485 -0.0168  0.1145
  426POPI   C3B 6773   4.433   9.194   8.951 -0.0932  0.0552 -0.1765
  426POPI   C4B 6774   4.698   8.998   8.731 -0.0030  0.0126  0.0481
  427POPI    C1 6775   9.515  15.241  11.199  0.0039 -0.1625  0.0133
  427POPI    C2 6776   9.528  14.852  11.108  0.2297 -0.0976 -0.2473
  427POPI    C3 6777   9.696  14.984  11.446  0.0529 -0.2398 -0.1019
  427POPI   PO4 6778   9.462  15.419  10.914  0.4111 -0.1479  0.3103
  427POPI   GL1 6779   9.572  15.383  10.533 -0.2723 -0.2607 -0.2240
  427POPI   GL2 6780   9.987  15.230  10.525 -0.0515 -0.1996 -0.1888
  427POPI   C1A 6781   9.547  15.061  10.238  0.3140 -0.0669 -0.0077
  427POPI   D2A 6782   9.274  14.758  10.058 -0.0372 -0.1948 -0.3959
  427POPI   C3A 6783   8.918  14.867   9.779  0.0093 -0.1383  0.1193
  427POPI   C4A 6784   9.043  14.924   9.331 -0.2404  0.2341 -0.0964
  427POPI   C1B 6785  10.001  15.094  10.130  0.1920 -0.2538 -0.1726
  427POPI   C2B 6786   9.780  15.019   9.796 -0.0169  0.1719  0.2036
  427POPI   C3B 6787   9.403  15.137   9.639  0.2319  0.1817  0.3185
  427POPI   C4B 6788   9.153  15.446   9.816 -0.1339  0.4313 -0.1206
  428POPI    C1 6789  16.620   6.079  10.541 -0.0756  0.1429  0.1507
  428POPI    C2 6790  16.439   6.432  10.486 -0.0865  0.1102 -0.0295
  428POPI    C3 6791  16.422   6.252  10.842  0.0227  0.3489  0.0991
  428POPI   PO4 6792  16.672   5.984  10.288 -0.2318 -0.1749  0.1065
  428POPI   GL1 6793  16.743   6.025   9.877  0.0884  0.0849  0.3510
  428POPI   GL2 6794  17.097   5.895   9.732  0.1489  0.1074  0.2446
  428POPI   C1A 6795  16.636   5.647   9.579  0.1891 -0.1749 -0.1229
  428POPI   D2A 6796  16.541   5.533   9.160 -0.0489 -0.1871 -0.1653
  428POPI   C3A 6797  16.402   5.755   8.739 -0.1099  0.0688 -0.0061
  428POPI   C4A 6798  16.421   5.639   8.296  0.2353  0.0775 -0.2457
  428POPI   C1B 6799  17.033   5.776   9.277 -0.0362 -0.2116  0.0401
  428POPI   C2B 6800  16.981   5.982   8.888  0.0190  0.1932 -0.0424
  428POPI   C3B 6801  16.852   5.986   8.472  0.1367  0.0886  0.1914
  428POPI   C4B 6802  16.685   6.056   8.070  0.2427 -0.0325 -0.2163
  429POPI    C1 6803   5.907   8.193  10.948  0.0140 -0.0142 -0.0481
  429POPI    C2 6804   5.596   8.364  10.764 -0.0814 -0.0731  0.0572
  429POPI    C3 6805   5.534   8.088  11.047  0.0684 -0.1511  0.0150
  429POPI   PO4 6806   6.046   8.177  10.733  0.0707  0.0869 -0.0933
  429POPI   GL1 6807   6.031   7.965  10.301 -0.1917 -0.3341 -0.1688
  429POPI   GL2 6808   5.880   8.167  10.291  0.1090  0.0373 -0.0560
  429POPI   C1A 6809   6.185   8.151   9.807  0.0401  0.1366 -0.1521
  429POPI   D2A 6810   6.276   8.092   9.359 -0.1952  0.2198 -0.1624
  429POPI   C3A 6811   6.219   8.111   8.879  0.1933 -0.0401  0.2638
  429POPI   C4A 6812   6.457   8.312   8.526  0.1853  0.2511  0.1724
  429POPI   C1B 6813   5.674   7.933   9.906  0.0624 -0.4118  0.3007
  429POPI   C2B 6814   5.558   7.691   9.591  0.2453 -0.2842  0.2700
  429POPI   C3B 6815   5.503   7.323   9.443  0.1256  0.2729 -0.0632
  429POPI   C4B 6816   5.162   7.061   9.512  0.0191 -0.0441 -0.1204
  430POPI    C1 6817   9.448   3.212  10.496  0.0614  0.0123  0.0444
  430POPI    C2 6818   9.159   3.397  10.702  0.0159 -0.1065  0.0881
  430POPI    C3 6819   9.413   3.151  10.890 -0.0033 -0.1873  0.0092
  430POPI   PO4 6820   9.398   3.203  10.291  0.0637  0.2075 -0.0378
  430POPI   GL1 6821   9.558   3.189   9.987  0.1497 -0.2303 -0.2781
  430POPI   GL2 6822   9.746   2.893  10.010  0.1249  0.0902  0.0136
  430POPI   C1A 6823   9.534   3.344   9.678  0.3259 -0.1047  0.0490
  430POPI   D2A 6824   9.705   3.399   9.242  0.1014  0.0991  0.0773
  430POPI   C3A 6825   9.666   3.570   8.830  0.2144 -0.2453  0.2944
  430POPI   C4A 6826   9.527   3.484   8.426 -0.0586 -0.0134  0.3291
  430POPI   C1B 6827   9.585   2.678   9.574 -0.0127  0.1905  0.0760
  430POPI   C2B 6828   9.717   2.575   9.172  0.1172  0.0226 -0.0551
  430POPI   C3B 6829   9.599   2.424   8.859  0.0491 -0.1998  0.0105
  430POPI   C4B 6830   9.388   2.108   8.712 -0.0714 -0.3106  0.1035
  431POPI    C1 6831  11.622  10.184  11.062  0.0673 -0.0729  0.2041
  431POPI    C2 6832  11.546  10.447  11.353  0.2133 -0.1285  0.2933
  431POPI    C3 6833  11.873  10.489  11.127  0.0862 -0.0700  0.1185
  431POPI   PO4 6834  11.288  10.266  10.847  0.2951  0.0175  0.0736
  431POPI   GL1 6835  11.264  10.559  10.497 -0.0283  0.0370  0.0385
  431POPI   GL2 6836  11.016  10.579  10.369  0.1628 -0.0686  0.0736
  431POPI   C1A 6837  11.515  10.407  10.241  0.0781  0.0592 -0.3341
  431POPI   D2A 6838  11.671  10.591   9.911  0.3385  0.2613 -0.1501
  431POPI   C3A 6839  11.822  10.481   9.481 -0.0099 -0.2374 -0.0663
  431POPI   C4A 6840  11.851  10.392   8.972 -0.0234  0.1766 -0.5066
  431POPI   C1B 6841  11.131  10.494   9.913  0.0345  0.1413 -0.1364
  431POPI   C2B 6842  11.195  10.465   9.439 -0.1737 -0.3078 -0.0291
  431POPI   C3B 6843  11.043  10.281   9.081 -0.1676 -0.4784  0.0376
  431POPI   C4B 6844  10.834  10.427   8.798 -0.2375  0.4422 -0.1727
  432POPI    C1 6845   3.096  17.842  11.117 -0.0765  0.2001 -0.1585
  432POPI    C2 6846   2.950  17.483  11.218  0.1542  0.1295 -0.0676
  432POPI    C3 6847   2.968  17.776  11.490  0.0678  0.1767 -0.1123
  432POPI   PO4 6848   3.140  17.832  10.928  0.1593 -0.0340  0.2275
  432POPI   GL1 6849   3.037  17.871  10.532 -0.1347  0.1473 -0.4836
  432POPI   GL2 6850   2.658  17.910  10.442 -0.3112  0.3854  0.1753
  432POPI   C1A 6851   3.105  18.163  10.266 -0.1129  0.2178 -0.1036
  432POPI   D2A 6852   3.212  18.436  10.032  0.0974 -0.3098 -0.1477
  432POPI   C3A 6853   3.400  18.416   9.592 -0.0614  0.3056  0.0367
  432POPI   C4A 6854   3.357  18.233   9.276 -0.0262  0.3431  0.0482
  432POPI   C1B 6855   2.400  17.896  10.040  0.0565 -0.1871 -0.1458
  432POPI   C2B 6856   2.358  17.988   9.659 -0.1588  0.0479 -0.0430
  432POPI   C3B 6857   2.423  18.122   9.278  0.0240 -0.0470  0.0796
  432POPI   C4B 6858   2.559  18.387   9.006  0.1222  0.1359 -0.1338
  433POPI    C1 6859   9.469  13.420  10.933 -0.2166 -0.4170  0.0510
  433POPI    C2 6860   9.238  13.543  11.236  0.0087 -0.0373  0.0748
  433POPI    C3 6861   9.621  13.449  11.301  0.0267 -0.0685 -0.0715
  433POPI   PO4 6862   9.277  13.336  10.799 -0.1240  0.1672  0.1116
  433POPI   GL1 6863   9.252  13.181  10.359  0.0475 -0.0938  0.0816
  433POPI   GL2 6864   8.982  13.126  10.440  0.1045  0.1357 -0.0292
  433POPI   C1A 6865   9.021  13.168   9.949 -0.1192  0.0955  0.1138
  433POPI   D2A 6866   8.984  12.923   9.623  0.0113 -0.1521 -0.0040
  433POPI   C3A 6867   9.095  13.051   9.107 -0.1561 -0.0138  0.0472
  433POPI   C4A 6868   9.271  13.410   8.996 -0.1957  0.0379  0.1063
  433POPI   C1B 6869   8.694  13.439  10.201  0.0838 -0.1880 -0.1229
  433POPI   C2B 6870   8.594  13.441   9.720 -0.2086  0.3058  0.1736
  433POPI   C3B 6871   8.911  13.351   9.407  0.1843  0.1437  0.0479
  433POPI   C4B 6872   9.230  13.467   9.464  0.2125 -0.1060  0.1964
  434POPI    C1 6873   4.288  16.884  10.804 -0.0562  0.0982 -0.2839
  434POPI    C2 6874   4.598  16.817  11.047 -0.0416  0.4789 -0.1918
  434POPI    C3 6875   4.567  16.615  10.704  0.0291  0.0613  0.0401
  434POPI   PO4 6876   4.259  17.179  10.820 -0.1508 -0.0013  0.1378
  434POPI   GL1 6877   4.261  17.340  10.432  0.3065 -0.0525 -0.1070
  434POPI   GL2 6878   4.293  17.544  10.344 -0.2118 -0.0980  0.0823
  434POPI   C1A 6879   3.819  17.460  10.242  0.3415 -0.0258  0.1200
  434POPI   D2A 6880   3.624  17.520   9.877 -0.3417 -0.0602 -0.3074
  434POPI   C3A 6881   3.709  17.361   9.521 -0.1430 -0.1179 -0.1167
  434POPI   C4A 6882   3.576  17.424   9.148 -0.1237 -0.0583 -0.0420
  434POPI   C1B 6883   4.513  17.413  10.003  0.0492  0.1315  0.1206
  434POPI   C2B 6884   4.801  17.286   9.627 -0.2992  0.2781 -0.0677
  434POPI   C3B 6885   5.057  17.284   9.338 -0.2449  0.1197  0.1063
  434POPI   C4B 6886   5.315  17.296   9.141 -0.1436  0.0910 -0.0588
  435POPI    C1 6887  12.606   3.032  11.027  0.1972 -0.0757 -0.0748
  435POPI    C2 6888  12.301   2.897  11.248 -0.0124 -0.0129 -0.3204
  435POPI    C3 6889  12.678   2.842  11.371 -0.1199 -0.1330 -0.0373
  435POPI   PO4 6890  12.447   3.039  10.802  0.0648  0.0281  0.2281
  435POPI   GL1 6891  12.343   3.327  10.562  0.0793 -0.0001 -0.0515
  435POPI   GL2 6892  12.225   3.145  10.323 -0.0887 -0.1617 -0.0769
  435POPI   C1A 6893  12.302   3.656  10.165  0.1201  0.2153  0.2580
  435POPI   D2A 6894  12.506   3.754   9.753 -0.0632 -0.0769 -0.0798
  435POPI   C3A 6895  12.624   4.073   9.564  0.0803  0.1278  0.0485
  435POPI   C4A 6896  12.571   4.381   9.326 -0.0582 -0.3378 -0.0709
  435POPI   C1B 6897  12.428   3.233   9.875 -0.2504  0.1427  0.0893
  435POPI   C2B 6898  12.404   3.154   9.535  0.3235 -0.1623  0.0155
  435POPI   C3B 6899  12.352   2.990   9.110  0.0982 -0.0807 -0.0337
  435POPI   C4B 6900  12.078   3.141   8.728 -0.0233 -0.2891  0.0466
  436POPI    C1 6901  17.644   9.038  10.355 -0.0192  0.1814 -0.0164
  436POPI    C2 6902  17.617   9.283  10.670  0.2738 -0.0128  0.1635
  436POPI    C3 6903  17.352   8.987  10.624 -0.2281  0.4729 -0.1823
  436POPI   PO4 6904  17.713   9.248  10.115 -0.0626 -0.1013  0.1821
  436POPI   GL1 6905  17.443   9.203   9.669 -0.1387 -0.0803  0.0192
  436POPI   GL2 6906  17.764   9.304   9.595  0.0449 -0.0646 -0.1227
  436POPI   C1A 6907  17.335   9.466   9.267  0.2846 -0.3536  0.2490
  436POPI   D2A 6908  17.136   9.673   8.989  0.1460 -0.0160  0.0002
  436POPI   C3A 6909  17.112   9.531   8.664  0.2588 -0.5659 -0.0820
  436POPI   C4A 6910  17.111   9.577   8.312 -0.2219  0.4204  0.1158
  436POPI   C1B 6911  17.874   9.642   9.374  0.0044 -0.2285  0.0150
  436POPI   C2B 6912  17.968   9.818   8.960 -0.1736 -0.1283  0.0115
  436POPI   C3B 6913  18.003   9.907   8.564 -0.0415 -0.1227 -0.0891
  436POPI   C4B 6914  17.655   9.816   8.364 -0.0928  0.2675 -0.0949
  437POPI    C1 6915  15.892   5.964  10.836 -0.0910 -0.2022 -0.0511
  437POPI    C2 6916  16.011   6.232  11.109  0.1118 -0.2068 -0.1331
  437POPI    C3 6917  15.980   5.846  11.208 -0.2496 -0.1463  0.0051
  437POPI   PO4 6918  16.059   6.000  10.573 -0.2186  0.1078  0.2056
  437POPI   GL1 6919  16.136   6.131  10.138  0.1979  0.0042  0.3991
  437POPI   GL2 6920  16.031   6.455  10.089  0.2413 -0.2523  0.0817
  437POPI   C1A 6921  16.172   5.982   9.860 -0.1345  0.1168  0.0518
  437POPI   D2A 6922  16.325   6.028   9.576  0.0326  0.1294 -0.1430
  437POPI   C3A 6923  16.213   5.984   9.133 -0.1366 -0.0881  0.0945
  437POPI   C4A 6924  15.883   6.027   8.841  0.0400 -0.0654  0.2986
  437POPI   C1B 6925  15.802   6.294   9.767  0.0527 -0.2959  0.3127
  437POPI   C2B 6926  15.739   6.256   9.307 -0.0018 -0.0572  0.0415
  437POPI   C3B 6927  15.549   6.413   8.899  0.2202 -0.2379  0.0423
  437POPI   C4B 6928  15.658   6.284   8.448  0.1561  0.0107 -0.2832
  438POPI    C1 6929  14.414  11.561  10.719 -0.2454 -0.1733  0.3243
  438POPI    C2 6930  14.727  11.382  10.892  0.0501 -0.0285 -0.0468
  438POPI    C3 6931  14.676  11.777  10.932 -0.1100 -0.0579  0.0462
  438POPI   PO4 6932  14.405  11.487  10.495  0.2673 -0.2431 -0.1946
  438POPI   GL1 6933  14.386  11.609  10.155  0.1149  0.1900 -0.0110
  438POPI   GL2 6934  14.504  11.371  10.005 -0.0747  0.0391 -0.1762
  438POPI   C1A 6935  14.316  11.840   9.830  0.2327 -0.2382  0.0084
  438POPI   D2A 6936  14.498  11.820   9.401 -0.1211  0.1680 -0.1838
  438POPI   C3A 6937  14.193  11.937   9.041 -0.2624  0.0863  0.0076
  438POPI   C4A 6938  13.799  11.929   8.775  0.0816  0.0832 -0.0486
  438POPI   C1B 6939  14.457  11.357   9.585 -0.2451  0.1141  0.2123
  438POPI   C2B 6940  14.417  11.410   9.068  0.1367  0.1498  0.2111
  438POPI   C3B 6941  14.271  11.475   8.678  0.3070  0.0215  0.3131
  438POPI   C4B 6942  14.595  11.643   8.358 -0.2504  0.0888  0.1784
  439POPI    C1 6943   7.477   5.009  10.559 -0.0805 -0.0136 -0.0212
  439POPI    C2 6944   7.358   5.383  10.637  0.0943  0.0123  0.1270
  439POPI    C3 6945   7.251   5.084  10.881  0.0327 -0.0203  0.0605
  439POPI   PO4 6946   7.347   4.975  10.231 -0.0061 -0.0248  0.2442
  439POPI   GL1 6947   6.932   4.832  10.001 -0.1195  0.0660 -0.0629
  439POPI   GL2 6948   7.114   4.577   9.991  0.0914  0.1930 -0.1303
  439POPI   C1A 6949   6.938   4.920   9.552 -0.0317 -0.0433 -0.2856
  439POPI   D2A 6950   6.820   4.964   9.211 -0.0627  0.0473  0.1618
  439POPI   C3A 6951   7.255   4.836   9.015 -0.0272 -0.0408 -0.1056
  439POPI   C4A 6952   7.516   4.909   8.700  0.1951 -0.0929  0.1345
  439POPI   C1B 6953   7.361   4.567   9.604 -0.0118  0.0354 -0.0121
  439POPI   C2B 6954   7.612   4.809   9.490  0.1763 -0.0784 -0.0412
  439POPI   C3B 6955   7.785   4.907   9.165  0.1541  0.2176 -0.0417
  439POPI   C4B 6956   8.081   5.066   8.925  0.0557  0.0589  0.0500
  440POPI    C1 6957  16.877   8.654  10.559 -0.0474  0.1109 -0.0304
  440POPI    C2 6958  16.737   8.306  10.697 -0.0649  0.2346  0.2721
  440POPI    C3 6959  16.490   8.564  10.516 -0.0592  0.1071  0.0794
  440POPI   PO4 6960  16.999   8.656  10.346  0.2374 -0.1867  0.2381
  440POPI   GL1 6961  16.910   8.576   9.948  0.2614 -0.2928 -0.2826
  440POPI   GL2 6962  17.085   8.258   9.880 -0.2695 -0.2138 -0.0734
  440POPI   C1A 6963  16.701   8.470   9.509 -0.1256  0.0855  0.5580
  440POPI   D2A 6964  16.682   8.278   9.157  0.0872  0.0968 -0.0914
  440POPI   C3A 6965  16.837   8.355   8.777  0.1786 -0.0909 -0.2551
  440POPI   C4A 6966  17.155   8.580   8.429  0.2023 -0.0663  0.1639
  440POPI   C1B 6967  17.204   8.340   9.468  0.0893  0.0692  0.0111
  440POPI   C2B 6968  17.366   8.105   9.094 -0.2925  0.2087  0.1463
  440POPI   C3B 6969  17.456   7.735   8.860  0.5054  0.0047  0.1719
  440POPI   C4B 6970  17.334   7.613   8.432 -0.0433 -0.0567 -0.0977
  441POPI    C1 6971   0.972  17.909  11.121  0.0706  0.1529  0.0849
  441POPI    C2 6972   0.635  17.742  10.986  0.2393 -0.1163 -0.0127
  441POPI    C3 6973   0.682  17.810  11.377  0.0398 -0.0002 -0.0076
  441POPI   PO4 6974   1.174  17.745  11.025 -0.1123 -0.1164 -0.1250
  441POPI   GL1 6975   1.293  17.449  10.683  0.1077 -0.1043 -0.1016
  441POPI   GL2 6976   1.015  17.451  10.492 -0.0400  0.1524 -0.0078
  441POPI   C1A 6977   1.479  17.591  10.235 -0.1455 -0.0009 -0.0631
  441POPI   D2A 6978   1.419  17.726   9.773 -0.1670  0.0119  0.1016
  441POPI   C3A 6979   1.386  17.665   9.428 -0.1351  0.0485 -0.2323
  441POPI   C4A 6980   1.325  17.679   8.968 -0.0172 -0.1040  0.0756
  441POPI   C1B 6981   0.984  17.609  10.124  0.0284 -0.5027  0.2401
  441POPI   C2B 6982   0.953  17.558   9.642  0.1065 -0.0837  0.1086
  441POPI   C3B 6983   0.831  17.579   9.240  0.2391 -0.0755 -0.1636
  441POPI   C4B 6984   0.876  17.806   8.798 -0.0352 -0.0780  0.1670
  442POPI    C1 6985   2.752  15.485  10.876 -0.0981 -0.4966 -0.0326
  442POPI    C2 6986   3.052  15.647  11.087 -0.1802  0.2540 -0.4578
  442POPI    C3 6987   2.737  15.488  11.276  0.1948  0.0138 -0.0161
  442POPI   PO4 6988   2.701  15.639  10.721 -0.1370  0.1451  0.2617
  442POPI   GL1 6989   2.705  15.736  10.275  0.3557 -0.0184  0.0749
  442POPI   GL2 6990   2.313  15.709  10.439  0.0203  0.0547 -0.0342
  442POPI   C1A 6991   2.801  15.783   9.796 -0.0220 -0.0343 -0.0846
  442POPI   D2A 6992   2.980  15.642   9.539 -0.0861  0.1726  0.0144
  442POPI   C3A 6993   2.901  15.800   9.184  0.1069 -0.2343 -0.4858
  442POPI   C4A 6994   2.854  15.966   8.699  0.0786 -0.0324  0.0661
  442POPI   C1B 6995   2.229  15.640  10.067 -0.1136 -0.2515 -0.4801
  442POPI   C2B 6996   2.169  15.859   9.722 -0.0817 -0.0255 -0.1907
  442POPI   C3B 6997   2.040  15.986   9.312 -0.0856 -0.1039 -0.0135
  442POPI   C4B 6998   1.931  16.093   9.002 -0.0096 -0.2474 -0.1236
  443POPI    C1 6999   5.317   3.659  10.737 -0.0241 -0.1032  0.1163
  443POPI    C2 7000   5.301   3.599  11.132 -0.0148 -0.0517  0.1246
  443POPI    C3 7001   5.272   3.969  10.984  0.1829 -0.0494  0.0887
  443POPI   PO4 7002   5.213   3.553  10.623  0.0148  0.1056  0.0443
  443POPI   GL1 7003   5.053   3.376  10.302  0.1145 -0.0493 -0.0160
  443POPI   GL2 7004   4.765   3.472  10.389 -0.1181  0.1551  0.1773
  443POPI   C1A 7005   5.061   3.133   9.869  0.1744  0.1160  0.1102
  443POPI   D2A 7006   4.887   3.060   9.469 -0.3255 -0.3026  0.0694
  443POPI   C3A 7007   4.799   2.703   9.207 -0.0057 -0.2173  0.0434
  443POPI   C4A 7008   4.742   2.466   8.795 -0.0074 -0.0105 -0.1097
  443POPI   C1B 7009   4.585   3.291  10.035  0.0764  0.2217 -0.0657
  443POPI   C2B 7010   4.490   3.250   9.663  0.1142  0.2930 -0.2532
  443POPI   C3B 7011   4.466   3.198   9.296  0.1548 -0.0623 -0.0056
  443POPI   C4B 7012   4.378   3.055   8.827 -0.0306 -0.1150  0.3613
  444POPI    C1 7013   7.315   0.226  10.533  0.0914 -0.1282 -0.2140
  444POPI    C2 7014   7.075   0.243  10.213 -0.0499 -0.0524 -0.1053
  444POPI    C3 7015   6.919   0.193  10.578  0.1015 -0.0186 -0.0348
  444POPI   PO4 7016   7.554   0.247  10.416 -0.4110 -0.1980 -0.1900
  444POPI   GL1 7017   7.451   0.439  10.006  0.0874 -0.1484  0.0791
  444POPI   GL2 7018   7.218   0.734  10.015 -0.1540 -0.0211 -0.1478
  444POPI   C1A 7019   7.677   0.551   9.656  0.1356 -0.1691  0.0175
  444POPI   D2A 7020   7.644   0.515   9.170  0.0824 -0.1117 -0.0985
  444POPI   C3A 7021   7.300   0.361   8.927  0.0878  0.0981  0.1213
  444POPI   C4A 7022   7.007   0.425   8.590  0.0814  0.0389  0.0254
  444POPI   C1B 7023   7.179   0.685   9.533  0.1803  0.0052  0.0791
  444POPI   C2B 7024   7.265   0.788   9.093  0.1933  0.0230  0.2193
  444POPI   C3B 7025   7.220   0.965   8.713 -0.1331 -0.0613 -0.2446
  444POPI   C4B 7026   6.937   0.878   8.491  0.2794  0.0257  0.0856
  445POPI    C1 7027   0.861   7.251  10.564 -0.1449 -0.0200 -0.0760
  445POPI    C2 7028   0.772   7.327  10.947 -0.0133 -0.0067 -0.0477
  445POPI    C3 7029   0.585   7.032  10.753 -0.0722 -0.0208  0.0302
  445POPI   PO4 7030   0.866   7.479  10.389  0.1320  0.2002 -0.0169
  445POPI   GL1 7031   0.785   7.536   9.973 -0.1323  0.1291 -0.0108
  445POPI   GL2 7032   0.596   7.322   9.779 -0.1058 -0.1296 -0.0759
  445POPI   C1A 7033   1.130   7.461   9.693  0.2348  0.1715  0.2561
  445POPI   D2A 7034   1.192   7.223   9.284  0.0226  0.1477 -0.1778
  445POPI   C3A 7035   0.978   7.389   8.935  0.0912 -0.2699 -0.1621
  445POPI   C4A 7036   0.749   7.616   8.526  0.0631  0.0971 -0.1128
  445POPI   C1B 7037   0.681   7.587   9.441 -0.2643  0.2765  0.2308
  445POPI   C2B 7038   0.574   7.724   9.004  0.1053 -0.1861  0.0329
  445POPI   C3B 7039   0.370   7.909   8.571  0.1025  0.1084 -0.1991
  445POPI   C4B 7040   0.368   7.972   8.168 -0.0757  0.0611 -0.0266
  446POPI    C1 7041  16.230  11.561  10.484  0.1489 -0.0482 -0.0139
  446POPI    C2 7042  16.122  11.836  10.753  0.4212 -0.0015  0.0515
  446POPI    C3 7043  16.358  11.533  10.862  0.0485 -0.3181  0.0023
  446POPI   PO4 7044  16.097  11.506  10.321  0.5736  0.0369 -0.3772
  446POPI   GL1 7045  15.794  11.480   9.999 -0.0179  0.3107 -0.1566
  446POPI   GL2 7046  16.054  11.382   9.839 -0.2657  0.1689  0.2764
  446POPI   C1A 7047  15.631  11.672   9.567  0.2274  0.1209 -0.2315
  446POPI   D2A 7048  15.509  11.795   9.319 -0.1458 -0.2165 -0.1603
  446POPI   C3A 7049  15.784  12.001   9.079  0.0230 -0.0564 -0.0020
  446POPI   C4A 7050  16.101  12.207   8.797  0.0516  0.1333  0.0347
  446POPI   C1B 7051  16.027  11.511   9.303 -0.2420  0.1567 -0.4280
  446POPI   C2B 7052  16.052  11.660   8.904 -0.1104  0.2121 -0.0344
  446POPI   C3B 7053  16.043  11.413   8.532  0.0313  0.2030 -0.1101
  446POPI   C4B 7054  16.437  11.352   8.290 -0.0783 -0.0126  0.0315
  447POPI    C1 7055  11.359  12.409  11.003  0.2404 -0.1372  0.0686
  447POPI    C2 7056  11.621  12.107  10.987  0.1325 -0.2247 -0.0570
  447POPI    C3 7057  11.311  12.089  11.239  0.1789 -0.1761  0.0036
  447POPI   PO4 7058  11.302  12.517  10.694 -0.1960 -0.3940 -0.1985
  447POPI   GL1 7059  11.161  12.835  10.438 -0.0618  0.0107  0.0734
  447POPI   GL2 7060  11.197  13.139  10.490 -0.1457  0.2731  0.1869
  447POPI   C1A 7061  11.186  12.945   9.989  0.0042  0.2723  0.0726
  447POPI   D2A 7062  11.186  12.894   9.650 -0.3310  0.3402 -0.0936
  447POPI   C3A 7063  11.109  13.055   9.297  0.0258 -0.0055  0.0237
  447POPI   C4A 7064  11.387  13.321   9.015 -0.0952 -0.0086 -0.2201
  447POPI   C1B 7065  11.581  13.119  10.214  0.1692  0.4884 -0.2912
  447POPI   C2B 7066  11.641  13.190   9.803 -0.2125  0.0002 -0.0625
  447POPI   C3B 7067  11.566  13.107   9.477  0.3538  0.0824 -0.1932
  447POPI   C4B 7068  11.816  12.897   9.180 -0.0881 -0.0342 -0.3823
  448POPI    C1 7069  10.848   6.866  11.185  0.0459 -0.1153 -0.1383
  448POPI    C2 7070  10.725   6.640  11.492  0.0778 -0.1963 -0.1848
  448POPI    C3 7071  11.016   6.909  11.545  0.1512 -0.2786 -0.1671
  448POPI   PO4 7072  10.672   6.768  10.992 -0.4032 -0.2172  0.1887
  448POPI   GL1 7073  10.364   6.663  10.623 -0.2644 -0.1426 -0.0243
  448POPI   GL2 7074  10.602   6.423  10.656  0.0503  0.0806 -0.0250
  448POPI   C1A 7075  10.254   6.850  10.152  0.0208  0.0213 -0.0069
  448POPI   D2A 7076  10.307   6.971   9.760  0.3699  0.1161  0.0353
  448POPI   C3A 7077  10.285   6.901   9.269  0.0999 -0.0309 -0.0331
  448POPI   C4A 7078  10.189   6.816   8.720  0.0348  0.1685 -0.0775
  448POPI   C1B 7079  10.620   6.323  10.176 -0.3148  0.1899 -0.0176
  448POPI   C2B 7080  10.540   6.023   9.895 -0.1578 -0.0813  0.2134
  448POPI   C3B 7081  10.546   6.068   9.396  0.0801  0.1425 -0.3866
  448POPI   C4B 7082  10.428   6.444   9.153 -0.1197  0.0223  0.0760
  449POPI    C1 7083  10.552   5.743  11.330  0.2775 -0.0168  0.1614
  449POPI    C2 7084  10.491   5.350  11.293  0.2954 -0.0136  0.0962
  449POPI    C3 7085  10.296   5.557  11.575  0.2104 -0.0514  0.0656
  449POPI   PO4 7086  10.752   5.695  11.054  0.2971 -0.0720 -0.2736
  449POPI   GL1 7087  10.739   5.729  10.620 -0.1703  0.0161  0.1581
  449POPI   GL2 7088  10.677   5.402  10.384  0.2201  0.0159  0.1721
  449POPI   C1A 7089  10.459   5.830  10.349  0.1342  0.1339  0.0984
  449POPI   D2A 7090  10.168   5.792  10.026 -0.1944  0.2301 -0.1510
  449POPI   C3A 7091  10.109   5.916   9.659  0.1820  0.2539  0.1332
  449POPI   C4A 7092   9.985   6.168   9.435 -0.4029  0.1271 -0.0622
  449POPI   C1B 7093  10.552   5.455  10.000  0.0811  0.0225  0.0244
  449POPI   C2B 7094  10.643   5.535   9.533  0.2283  0.1787 -0.2975
  449POPI   C3B 7095  10.785   5.700   9.155 -0.0203  0.3002  0.2020
  449POPI   C4B 7096  10.645   5.953   8.829  0.1173  0.1012  0.0302
  450POPI    C1 7097   6.433   4.072  10.735 -0.0150 -0.1377 -0.1311
  450POPI    C2 7098   6.198   3.929  11.026 -0.0577  0.3519  0.0848
  450POPI    C3 7099   6.593   3.960  11.085 -0.0269  0.1742 -0.0224
  450POPI   PO4 7100   6.158   4.123  10.502 -0.1490 -0.0300 -0.3340
  450POPI   GL1 7101   5.892   3.945  10.276  0.1114 -0.1839  0.0680
  450POPI   GL2 7102   5.600   3.760  10.258 -0.2137  0.1587 -0.2038
  450POPI   C1A 7103   5.915   3.913   9.830 -0.1357 -0.0533  0.0794
  450POPI   D2A 7104   5.880   3.937   9.387  0.1365  0.2702  0.0872
  450POPI   C3A 7105   6.220   3.873   9.124  0.0720  0.2051  0.0425
  450POPI   C4A 7106   6.375   3.582   8.810  0.0521 -0.1007  0.0996
  450POPI   C1B 7107   5.354   3.775   9.948  0.0322 -0.0677  0.1971
  450POPI   C2B 7108   5.071   3.625   9.762  0.1613  0.0172  0.1472
  450POPI   C3B 7109   4.862   3.544   9.472 -0.4162  0.0727 -0.0883
  450POPI   C4B 7110   5.095   3.714   9.066 -0.1668  0.0409 -0.0342
  451POPI    C1 7111   3.529   5.328  10.912 -0.4112  0.0782  0.0540
  451POPI    C2 7112   3.502   5.684  11.091  0.1222 -0.0144  0.3403
  451POPI    C3 7113   3.431   5.350  11.299  0.0433 -0.0954  0.1853
  451POPI   PO4 7114   3.448   5.388  10.711 -0.0142 -0.2833 -0.1770
  451POPI   GL1 7115   3.504   5.669  10.280 -0.1047 -0.3518 -0.2439
  451POPI   GL2 7116   3.745   5.414  10.219  0.0895  0.0450 -0.0067
  451POPI   C1A 7117   3.538   5.834   9.940 -0.2291 -0.1332  0.1731
  451POPI   D2A 7118   3.542   5.969   9.544  0.0688  0.0536 -0.5456
  451POPI   C3A 7119   3.820   6.346   9.313 -0.3736  0.1041 -0.0100
  451POPI   C4A 7120   4.112   6.412   8.936  0.4665  0.1580 -0.2637
  451POPI   C1B 7121   3.496   5.288   9.918  0.0294  0.0087  0.1447
  451POPI   C2B 7122   3.414   5.324   9.559 -0.0375 -0.2873  0.0725
  451POPI   C3B 7123   3.401   5.281   9.017 -0.1818 -0.1011 -0.2641
  451POPI   C4B 7124   3.593   5.237   8.651  0.1747 -0.1078 -0.0571
  452POPI    C1 7125  15.734   7.066  10.661  0.1176  0.0543  0.0983
  452POPI    C2 7126  15.474   7.220  10.922  0.1674  0.2111  0.0566
  452POPI    C3 7127  15.866   7.230  11.001  0.1719  0.1179  0.0469
  452POPI   PO4 7128  15.630   7.102  10.434 -0.1525 -0.0258  0.0883
  452POPI   GL1 7129  15.383   6.828  10.164 -0.1753 -0.2334 -0.0257
  452POPI   GL2 7130  15.571   6.561  10.200 -0.1600  0.0598  0.2671
  452POPI   C1A 7131  15.337   6.982   9.861  0.0110 -0.1327  0.0385
  452POPI   D2A 7132  15.189   6.986   9.407 -0.1824 -0.1046  0.0539
  452POPI   C3A 7133  15.193   7.107   8.946  0.0401  0.0497  0.2627
  452POPI   C4A 7134  14.942   7.259   8.614 -0.1355  0.0755 -0.0856
  452POPI   C1B 7135  15.305   6.526   9.696 -0.3119 -0.4440  0.0974
  452POPI   C2B 7136  15.283   6.499   9.340  0.0049  0.2903  0.1006
  452POPI   C3B 7137  15.095   6.563   8.955 -0.2644 -0.2898  0.1570
  452POPI   C4B 7138  15.020   6.569   8.536  0.2277 -0.2908 -0.0553
  453POPI    C1 7139   4.323   5.835  10.661 -0.1027 -0.2699 -0.0510
  453POPI    C2 7140   4.329   5.918  11.052  0.2327 -0.1016 -0.0881
  453POPI    C3 7141   4.477   5.571  10.919  0.1987 -0.1214 -0.0741
  453POPI   PO4 7142   4.110   6.132  10.605  0.0045 -0.0008 -0.1420
  453POPI   GL1 7143   4.133   6.381  10.273 -0.0862 -0.1138  0.3735
  453POPI   GL2 7144   4.305   6.680  10.157 -0.1346  0.2880  0.0963
  453POPI   C1A 7145   4.067   6.265   9.808 -0.0719 -0.1730  0.0745
  453POPI   D2A 7146   4.280   6.086   9.487 -0.1055 -0.0025 -0.3721
  453POPI   C3A 7147   4.067   5.916   9.129  0.1091  0.0395  0.0226
  453POPI   C4A 7148   4.173   5.554   8.821 -0.1399  0.2351  0.1725
  453POPI   C1B 7149   4.190   6.771   9.731  0.2593 -0.0535  0.0775
  453POPI   C2B 7150   3.999   6.831   9.344  0.2382 -0.0967 -0.3570
  453POPI   C3B 7151   3.958   6.876   8.885  0.0873 -0.1340  0.2146
  453POPI   C4B 7152   4.008   6.743   8.491  0.0320 -0.1011 -0.0228
  454POPI    C1 7153   1.602   3.908  11.086  0.0859  0.1741 -0.2984
  454POPI    C2 7154   1.272   4.126  11.148  0.0191  0.0495 -0.2112
  454POPI    C3 7155   1.421   3.900  11.443  0.1653  0.0816 -0.2598
  454POPI   PO4 7156   1.841   4.004  10.923 -0.1987  0.0448  0.2062
  454POPI   GL1 7157   1.887   4.010  10.472  0.1889  0.0973 -0.3101
  454POPI   GL2 7158   1.929   4.396  10.378 -0.0524  0.3063 -0.0851
  454POPI   C1A 7159   1.949   4.071  10.006 -0.1341  0.1391  0.1889
  454POPI   D2A 7160   1.655   3.999   9.658  0.0364  0.0531  0.3113
  454POPI   C3A 7161   1.607   4.311   9.375  0.2338 -0.3015  0.1693
  454POPI   C4A 7162   1.409   4.280   8.979 -0.2815 -0.1173  0.0281
  454POPI   C1B 7163   2.133   4.630  10.063  0.5123  0.0262 -0.2304
  454POPI   C2B 7164   2.032   4.903   9.741 -0.1231 -0.1690 -0.0660
  454POPI   C3B 7165   2.103   4.807   9.290  0.1991  0.0133  0.1130
  454POPI   C4B 7166   2.122   4.990   8.850  0.1558 -0.0960 -0.0570
  455POPI    C1 7167   6.875   3.740  10.719  0.0675 -0.1454 -0.2605
  455POPI    C2 7168   7.073   4.057  10.862 -0.2129 -0.0263 -0.1294
  455POPI    C3 7169   7.039   3.726  11.083 -0.1753 -0.0404 -0.1447
  455POPI   PO4 7170   7.026   3.650  10.457  0.3354 -0.1187  0.0988
  455POPI   GL1 7171   6.867   3.598  10.076  0.0957 -0.3713 -0.0999
  455POPI   GL2 7172   7.109   3.331  10.066 -0.0498  0.2974  0.0079
  455POPI   C1A 7173   6.640   3.709   9.762  0.1667 -0.2575  0.2817
  455POPI   D2A 7174   6.568   3.573   9.294 -0.0848  0.0109 -0.1379
  455POPI   C3A 7175   7.023   3.427   9.072  0.2384 -0.0619  0.0729
  455POPI   C4A 7176   7.265   3.531   8.910 -0.1310  0.2070 -0.0300
  455POPI   C1B 7177   7.275   3.047   9.721 -0.0953 -0.0217  0.3242
  455POPI   C2B 7178   7.185   3.082   9.289 -0.0568  0.1172  0.1587
  455POPI   C3B 7179   7.332   3.104   8.812 -0.2410  0.2992 -0.1161
  455POPI   C4B 7180   7.198   3.204   8.319  0.2870 -0.3268  0.0903
  456POPI    C1 7181   8.834  14.606  11.052  0.2092 -0.2747  0.2225
  456POPI    C2 7182   8.699  14.834  11.351  0.0533 -0.2625  0.1440
  456POPI    C3 7183   8.758  14.443  11.409  0.2645 -0.2152  0.2616
  456POPI   PO4 7184   9.064  14.735  10.963  0.0751  0.0432 -0.0568
  456POPI   GL1 7185   9.241  14.939  10.700 -0.1526  0.0428  0.0048
  456POPI   GL2 7186   9.620  14.864  10.653  0.1029 -0.3228 -0.0842
  456POPI   C1A 7187   9.067  15.230  10.380 -0.1808 -0.0179  0.2310
  456POPI   D2A 7188   8.708  15.310  10.110  0.3419  0.0698  0.0628
  456POPI   C3A 7189   8.683  15.335   9.694 -0.0968 -0.0790  0.1153
  456POPI   C4A 7190   8.951  15.405   9.264 -0.3852 -0.0156 -0.0401
  456POPI   C1B 7191   9.892  14.614  10.296 -0.2150 -0.2658 -0.0093
  456POPI   C2B 7192   9.686  14.451   9.936  0.1182  0.4817  0.2541
  456POPI   C3B 7193   9.721  14.299   9.523  0.1615  0.0661  0.0734
  456POPI   C4B 7194   9.688  14.378   9.194  0.1592  0.0577  0.1989
  457POPI    C1 7195   3.192   9.595  10.679  0.1032 -0.0476 -0.0463
  457POPI    C2 7196   3.506   9.435  10.491  0.0189 -0.0934 -0.1492
  457POPI    C3 7197   3.210   9.200  10.623  0.0834 -0.0632  0.0540
  457POPI   PO4 7198   3.247   9.888  10.473 -0.0208 -0.0995  0.1657
  457POPI   GL1 7199   3.214   9.783  10.157  0.0291  0.1867  0.2277
  457POPI   GL2 7200   3.106   9.396  10.146  0.3462 -0.1369 -0.0810
  457POPI   C1A 7201   3.024   9.716   9.738  0.1099 -0.2812 -0.0572
  457POPI   D2A 7202   3.069   9.643   9.285  0.1882 -0.1191 -0.0981
  457POPI   C3A 7203   3.101   9.494   8.972 -0.2916  0.0815  0.0634
  457POPI   C4A 7204   3.047   9.636   8.634 -0.3285 -0.2103 -0.3765
  457POPI   C1B 7205   3.336   9.385   9.646  0.2080  0.0202  0.1776
  457POPI   C2B 7206   3.592   9.331   9.233 -0.1909  0.2103 -0.1092
  457POPI   C3B 7207   3.787   9.336   8.900  0.0628  0.0318 -0.3839
  457POPI   C4B 7208   3.833   9.410   8.425  0.1461  0.2197 -0.0887
  458POPI    C1 7209  15.309  11.950  10.809  0.2170 -0.0244 -0.0536
  458POPI    C2 7210  15.234  11.601  10.988  0.1329  0.0929  0.1437
  458POPI    C3 7211  15.611  11.733  10.956  0.1517  0.0534  0.1997
  458POPI   PO4 7212  15.236  11.973  10.595  0.3508  0.1098  0.1397
  458POPI   GL1 7213  14.931  12.238  10.371 -0.1312  0.0766 -0.1142
  458POPI   GL2 7214  14.699  12.080  10.141  0.3132 -0.3459 -0.0863
  458POPI   C1A 7215  15.106  12.379   9.961 -0.1386 -0.1161  0.3797
  458POPI   D2A 7216  15.100  12.605   9.645 -0.3719 -0.1500  0.1215
  458POPI   C3A 7217  14.948  12.546   9.141  0.0430  0.1955 -0.1826
  458POPI   C4A 7218  15.110  12.422   8.676  0.2441 -0.0077 -0.3757
  458POPI   C1B 7219  14.614  12.192   9.726 -0.0951 -0.1583 -0.0742
  458POPI   C2B 7220  14.426  12.326   9.343 -0.3067  0.0238 -0.0222
  458POPI   C3B 7221  14.471  12.432   8.902  0.3902  0.0395 -0.2245
  458POPI   C4B 7222  14.193  12.146   8.555  0.1369  0.0902  0.0718
  459POPI    C1 7223   0.534  16.290  11.009 -0.3873  0.0940  0.0315
  459POPI    C2 7224   0.593  16.114  11.363 -0.2714 -0.0524 -0.0597
  459POPI    C3 7225   0.467  16.493  11.347 -0.2805 -0.0462  0.1378
  459POPI   PO4 7226   0.456  16.120  10.868  0.2837  0.0153  0.0913
  459POPI   GL1 7227   0.289  16.229  10.482 -0.2190 -0.1351 -0.0679
  459POPI   GL2 7228   0.386  15.946  10.320 -0.0652 -0.2930  0.1285
  459POPI   C1A 7229   0.440  16.631  10.401  0.2496  0.5012 -0.2842
  459POPI   D2A 7230   0.351  16.929  10.159  0.2110  0.1709  0.0185
  459POPI   C3A 7231   0.284  16.878   9.755 -0.0973  0.0496  0.0446
  459POPI   C4A 7232   0.300  16.874   9.251 -0.3989  0.3622 -0.1872
  459POPI   C1B 7233   0.430  15.990   9.949  0.3751  0.1438 -0.4144
  459POPI   C2B 7234   0.513  15.983   9.516 -0.2293 -0.0613 -0.0592
  459POPI   C3B 7235   0.536  16.133   9.080  0.0797  0.0777 -0.2339
  459POPI   C4B 7236   0.601  16.178   8.718 -0.0057 -0.1059  0.0187
  460POPI    C1 7237   1.178  11.990  10.980 -0.0009 -0.2440 -0.0231
  460POPI    C2 7238   1.518  11.786  11.036  0.0758 -0.1024  0.0340
  460POPI    C3 7239   1.225  11.768  11.309  0.1475 -0.0085  0.1178
  460POPI   PO4 7240   1.149  11.975  10.679 -0.1776  0.1737  0.1847
  460POPI   GL1 7241   1.198  12.265  10.342 -0.0620  0.0868 -0.4032
  460POPI   GL2 7242   1.291  12.536  10.241  0.0760 -0.2048  0.0228
  460POPI   C1A 7243   1.041  12.178   9.959  0.1890  0.2379 -0.0093
  460POPI   D2A 7244   0.951  12.183   9.538  0.3927  0.0437 -0.2323
  460POPI   C3A 7245   0.914  12.330   9.155 -0.0951  0.1579  0.0573
  460POPI   C4A 7246   0.957  12.446   8.670  0.1234  0.3750 -0.0312
  460POPI   C1B 7247   1.060  12.634   9.868 -0.1124 -0.2624 -0.0965
  460POPI   C2B 7248   1.117  12.729   9.398  0.2493  0.0666  0.2539
  460POPI   C3B 7249   1.061  12.882   9.036 -0.3011 -0.0275 -0.1921
  460POPI   C4B 7250   1.087  12.874   8.546  0.1806 -0.1265 -0.0765
  461POPI    C1 7251  17.558   3.651  10.895  0.0043  0.0523 -0.0216
  461POPI    C2 7252  17.180   3.707  10.776  0.0016  0.1283  0.0220
  461POPI    C3 7253  17.263   3.431  11.053 -0.0368  0.1891  0.0944
  461POPI   PO4 7254  17.686   3.690  10.627 -0.1453 -0.0376  0.1273
  461POPI   GL1 7255  17.612   3.717  10.199 -0.1486  0.4024  0.0743
  461POPI   GL2 7256  17.419   3.502  10.242 -0.0224 -0.3666 -0.0314
  461POPI   C1A 7257  17.692   3.659   9.774 -0.0252 -0.0475  0.5014
  461POPI   D2A 7258  17.599   3.604   9.275  0.1742  0.0755 -0.3301
  461POPI   C3A 7259  17.559   3.690   8.773  0.2448  0.0951  0.1567
  461POPI   C4A 7260  17.717   3.652   8.318 -0.5114  0.3297  0.1363
  461POPI   C1B 7261  17.300   3.375   9.799  0.3074 -0.0728  0.1810
  461POPI   C2B 7262  17.259   3.323   9.451  0.3582 -0.0305 -0.3228
  461POPI   C3B 7263  17.309   3.254   8.976  0.0160 -0.1144 -0.1580
  461POPI   C4B 7264  17.322   3.286   8.450 -0.1236  0.0947 -0.0449
  462POPI    C1 7265  11.070  13.320  11.208 -0.1280 -0.3945  0.1270
  462POPI    C2 7266  11.456  13.264  11.295 -0.0832 -0.0580  0.1609
  462POPI    C3 7267  11.179  13.014  11.441  0.1131 -0.2615  0.1916
  462POPI   PO4 7268  11.077  13.391  10.884  0.0357 -0.1166  0.0512
  462POPI   GL1 7269  10.780  13.501  10.516 -0.0675  0.1101 -0.0620
  462POPI   GL2 7270  10.517  13.577  10.304  0.0193  0.0281 -0.1473
  462POPI   C1A 7271  10.938  13.914  10.322  0.0057 -0.2499  0.3427
  462POPI   D2A 7272  11.088  14.006   9.903  0.0138  0.1643  0.3445
  462POPI   C3A 7273  10.751  14.053   9.589 -0.0153 -0.2730 -0.0662
  462POPI   C4A 7274  10.517  13.929   9.375 -0.0981  0.1592  0.1509
  462POPI   C1B 7275  10.766  13.614   9.972 -0.1127 -0.2546 -0.0301
  462POPI   C2B 7276  10.760  13.538   9.514  0.1333  0.3538  0.0702
  462POPI   C3B 7277  10.817  13.417   9.065  0.0467  0.0381  0.1170
  462POPI   C4B 7278  10.801  13.370   8.615  0.1195 -0.2692  0.1035
  463POPI    C1 7279  11.682   8.551  10.808 -0.0962  0.1157  0.0853
  463POPI    C2 7280  11.759   8.922  10.680 -0.0413  0.0923  0.0501
  463POPI    C3 7281  11.845   8.818  11.057 -0.0122  0.1016  0.0459
  463POPI   PO4 7282  11.789   8.403  10.574  0.4695  0.1751  0.4527
  463POPI   GL1 7283  11.894   8.497  10.219  0.0414  0.0218  0.1270
  463POPI   GL2 7284  11.894   8.805  10.178  0.0703  0.1376  0.3004
  463POPI   C1A 7285  11.779   8.322   9.896 -0.0183 -0.1954 -0.1211
  463POPI   D2A 7286  11.803   8.290   9.476 -0.0892  0.1731  0.0801
  463POPI   C3A 7287  11.913   8.627   9.377  0.1611  0.0507  0.2630
  463POPI   C4A 7288  12.143   8.999   9.443 -0.1666  0.3023  0.1649
  463POPI   C1B 7289  11.817   8.884   9.769 -0.1340  0.1641  0.0693
  463POPI   C2B 7290  11.665   9.067   9.318  0.0803 -0.2866  0.0688
  463POPI   C3B 7291  11.418   9.099   8.946 -0.0390 -0.0340  0.2646
  463POPI   C4B 7292  11.042   9.321   8.585 -0.1265 -0.0567  0.0893
  464POPI    C1 7293  10.044   9.537  11.360  0.0883  0.1892 -0.2316
  464POPI    C2 7294   9.739   9.280  11.333  0.3336 -0.1376  0.0253
  464POPI    C3 7295   9.783   9.503  11.661 -0.0001  0.4028 -0.2821
  464POPI   PO4 7296  10.155   9.413  11.042  0.2486 -0.0089 -0.0427
  464POPI   GL1 7297   9.959   9.664  10.664  0.2273 -0.1488 -0.2128
  464POPI   GL2 7298   9.635   9.663  10.601 -0.0113  0.0125  0.1212
  464POPI   C1A 7299  10.123   9.764  10.287 -0.0328  0.0403  0.0358
  464POPI   D2A 7300  10.322   9.480   9.999 -0.1773  0.0138  0.0506
  464POPI   C3A 7301  10.228   9.246   9.607  0.0050 -0.3567 -0.1460
  464POPI   C4A 7302  10.114   8.789   9.534  0.0637 -0.1105 -0.0919
  464POPI   C1B 7303   9.553   9.780  10.235 -0.0016  0.1152  0.0605
  464POPI   C2B 7304   9.396   9.865   9.746 -0.0423  0.1378  0.0305
  464POPI   C3B 7305   9.606   9.918   9.389  0.1743  0.2327 -0.0223
  464POPI   C4B 7306   9.472   9.704   8.987  0.3744  0.2032  0.0178
  465POPI    C1 7307   8.377   2.362  10.661  0.1340  0.1311 -0.1611
  465POPI    C2 7308   8.077   2.478  10.899  0.0803 -0.0264 -0.1514
  465POPI    C3 7309   8.439   2.644  10.939 -0.0259  0.2273 -0.2216
  465POPI   PO4 7310   8.161   2.409  10.391 -0.1445  0.0105  0.0341
  465POPI   GL1 7311   8.139   2.224  10.058 -0.2030  0.1711  0.0112
  465POPI   GL2 7312   7.828   2.274   9.994  0.0861  0.1657  0.1571
  465POPI   C1A 7313   8.306   2.254   9.651 -0.4158 -0.0426 -0.3252
  465POPI   D2A 7314   8.399   2.197   9.147  0.2413 -0.0022 -0.1192
  465POPI   C3A 7315   8.423   2.071   8.706  0.0964 -0.0597  0.1757
  465POPI   C4A 7316   8.496   1.961   8.243  0.0228 -0.0328 -0.1476
  465POPI   C1B 7317   7.761   2.385   9.580 -0.0099  0.1552 -0.4124
  465POPI   C2B 7318   7.906   2.409   9.124 -0.3725 -0.0114  0.0366
  465POPI   C3B 7319   8.059   2.377   8.825  0.1341 -0.1554  0.2673
  465POPI   C4B 7320   7.928   2.207   8.382  0.0010  0.0060 -0.0697
  466POPI    C1 7321   2.670   5.064  11.097 -0.1071 -0.1296 -0.0295
  466POPI    C2 7322   2.431   5.122  11.412  0.0092  0.0517  0.0263
  466POPI    C3 7323   2.527   4.751  11.300  0.0209 -0.0125  0.2450
  466POPI   PO4 7324   2.546   5.159  10.922  0.0517  0.3041 -0.1802
  466POPI   GL1 7325   2.567   5.287  10.556 -0.0397 -0.4163  0.1489
  466POPI   GL2 7326   2.374   5.234  10.279  0.2156  0.0290  0.0460
  466POPI   C1A 7327   2.634   5.632  10.306  0.0873 -0.3330  0.1441
  466POPI   D2A 7328   2.827   6.010  10.346 -0.0086  0.2252  0.0831
  466POPI   C3A 7329   3.060   6.111   9.974  0.1670  0.1094  0.0044
  466POPI   C4A 7330   3.088   6.135   9.566  0.0773  0.0592  0.1483
  466POPI   C1B 7331   2.634   5.357   9.808 -0.0530  0.1283  0.0403
  466POPI   C2B 7332   2.646   5.343   9.415 -0.0157 -0.3123  0.1703
  466POPI   C3B 7333   2.808   5.474   9.129 -0.0209 -0.1781 -0.0108
  466POPI   C4B 7334   3.090   5.687   8.792 -0.2316  0.3823  0.0504
  467POPI    C1 7335   5.678   2.360  10.456  0.0692  0.0862  0.3156
  467POPI    C2 7336   5.534   2.639  10.208 -0.1656 -0.1643  0.1649
  467POPI    C3 7337   5.407   2.624  10.587 -0.0315  0.0313  0.2193
  467POPI   PO4 7338   6.081   2.477  10.368 -0.0315  0.1877 -0.3255
  467POPI   GL1 7339   6.206   2.322   9.898 -0.0236 -0.0004 -0.2796
  467POPI   GL2 7340   5.734   2.314   9.911 -0.0045 -0.1382 -0.0050
  467POPI   C1A 7341   6.464   2.445   9.536 -0.3087  0.0052 -0.0077
  467POPI   D2A 7342   6.541   2.449   9.142 -0.0789 -0.1846 -0.1320
  467POPI   C3A 7343   6.190   2.441   8.867 -0.0144 -0.1734 -0.1443
  467POPI   C4A 7344   5.841   2.315   8.507  0.2102  0.0761  0.0513
  467POPI   C1B 7345   5.677   2.429   9.471  0.0561  0.0003 -0.2207
  467POPI   C2B 7346   5.692   2.576   9.072  0.2416 -0.0854 -0.1769
  467POPI   C3B 7347   5.606   2.904   8.749 -0.1097  0.0512  0.1846
  467POPI   C4B 7348   5.548   3.092   8.390  0.2199 -0.0796  0.0688
  468POPI    C1 7349   4.354   1.677  11.048 -0.0607 -0.1923 -0.0015
  468POPI    C2 7350   4.211   1.461  11.352  0.0103  0.1029  0.2467
  468POPI    C3 7351   4.601   1.452  11.266 -0.0119  0.0092  0.1545
  468POPI   PO4 7352   4.223   1.587  10.827 -0.0741 -0.1150  0.0404
  468POPI   GL1 7353   4.365   1.778  10.428 -0.0908  0.0300 -0.0888
  468POPI   GL2 7354   4.281   1.499  10.373 -0.2077 -0.3214  0.1074
  468POPI   C1A 7355   4.483   1.798   9.995  0.0743  0.1192 -0.0762
  468POPI   D2A 7356   4.523   1.720   9.476 -0.0913  0.1211 -0.2196
  468POPI   C3A 7357   4.590   1.679   9.123 -0.0519 -0.0758 -0.0819
  468POPI   C4A 7358   4.546   1.398   8.728 -0.0576 -0.0826  0.1589
  468POPI   C1B 7359   4.213   1.345   9.886  0.0306 -0.3819  0.0800
  468POPI   C2B 7360   4.212   1.204   9.554 -0.0739 -0.0871  0.1636
  468POPI   C3B 7361   4.246   1.276   9.140  0.0403 -0.3457  0.1480
  468POPI   C4B 7362   4.043   1.347   8.750  0.0266  0.0402 -0.0057
  469POPI    C1 7363   4.525  11.704  10.974 -0.1606 -0.0359  0.0434
  469POPI    C2 7364   4.186  11.674  11.184 -0.1796  0.0634  0.0275
  469POPI    C3 7365   4.416  11.352  11.129 -0.2325  0.0123  0.1034
  469POPI   PO4 7366   4.470  11.923  10.785  0.2012 -0.1917 -0.2474
  469POPI   GL1 7367   4.528  12.203  10.437 -0.2174 -0.0932  0.2553
  469POPI   GL2 7368   4.226  12.326  10.510 -0.2787 -0.1464 -0.0336
  469POPI   C1A 7369   4.315  12.170  10.027 -0.0473 -0.1042  0.0814
  469POPI   D2A 7370   4.323  12.092   9.631  0.0155 -0.4754  0.2183
  469POPI   C3A 7371   4.473  12.328   9.371 -0.5851  0.1235  0.2370
  469POPI   C4A 7372   4.580  12.473   8.979  0.1460  0.4263  0.0557
  469POPI   C1B 7373   4.027  12.525  10.127  0.0737  0.3835 -0.0658
  469POPI   C2B 7374   3.998  12.527   9.633 -0.0256 -0.1558 -0.1706
  469POPI   C3B 7375   4.020  12.491   9.218 -0.0043 -0.1195  0.2865
  469POPI   C4B 7376   4.072  12.360   8.805 -0.1182  0.0053 -0.1335
  470POPI    C1 7377   5.421  11.145  11.117 -0.0060  0.0038  0.2348
  470POPI    C2 7378   5.677  11.380  11.314  0.0638  0.0717  0.0651
  470POPI    C3 7379   5.646  10.993  11.410  0.2093  0.0699  0.1056
  470POPI   PO4 7380   5.470  11.197  10.866 -0.1242  0.2729  0.0743
  470POPI   GL1 7381   5.561  11.255  10.444  0.0980  0.0985  0.1147
  470POPI   GL2 7382   5.666  11.522  10.427  0.3260 -0.0295 -0.0594
  470POPI   C1A 7383   5.551  11.097   9.956  0.1260 -0.2851  0.2922
  470POPI   D2A 7384   5.734  10.972   9.442 -0.0634  0.1802  0.0120
  470POPI   C3A 7385   5.676  11.073   9.010  0.1243 -0.0002  0.2805
  470POPI   C4A 7386   5.751  11.223   8.600 -0.0579 -0.3820 -0.0567
  470POPI   C1B 7387   5.765  11.740  10.062 -0.0380  0.3209  0.1093
  470POPI   C2B 7388   5.763  11.845   9.603 -0.1103 -0.3226  0.1461
  470POPI   C3B 7389   5.694  11.863   9.110 -0.0970  0.1674 -0.1017
  470POPI   C4B 7390   5.559  11.818   8.675 -0.1170 -0.1498 -0.0327
  471POPI    C1 7391  16.083   8.961  10.468  0.3829  0.1191 -0.0197
  471POPI    C2 7392  16.074   8.863  10.855  0.0337 -0.3094 -0.1284
  471POPI    C3 7393  15.840   9.157  10.719  0.0752 -0.2321 -0.0338
  471POPI   PO4 7394  16.092   8.790  10.372  0.2580  0.0547 -0.0041
  471POPI   GL1 7395  15.898   8.747  10.041  0.0853  0.0595  0.1693
  471POPI   GL2 7396  15.659   8.924   9.878  0.0226  0.1542  0.0675
  471POPI   C1A 7397  16.005   8.693   9.584 -0.1101 -0.0053 -0.1019
  471POPI   D2A 7398  15.895   8.916   9.273  0.1131 -0.0129 -0.1109
  471POPI   C3A 7399  15.672   8.794   8.957 -0.0590  0.0646  0.1454
  471POPI   C4A 7400  15.733   8.658   8.550 -0.2874 -0.1078 -0.1004
  471POPI   C1B 7401  15.422   9.050   9.504 -0.1513 -0.1330 -0.2892
  471POPI   C2B 7402  15.388   9.094   9.212 -0.1795  0.1282 -0.2590
  471POPI   C3B 7403  15.072   9.013   8.985 -0.1966  0.0378 -0.0459
  471POPI   C4B 7404  14.894   9.113   8.571 -0.3458  0.1601 -0.2112
  472POPI    C1 7405   2.056   2.227  11.071  0.1265 -0.1301  0.0907
  472POPI    C2 7406   2.448   2.225  10.992  0.1059  0.1319 -0.0289
  472POPI    C3 7407   2.285   1.927  11.202  0.3092 -0.1529 -0.2672
  472POPI   PO4 7408   1.975   2.266  10.780  0.2400 -0.0663 -0.3931
  472POPI   GL1 7409   1.890   2.221  10.385  0.0358  0.0462 -0.1940
  472POPI   GL2 7410   1.562   2.430  10.359 -0.3122 -0.1475 -0.1184
  472POPI   C1A 7411   2.022   2.060  10.068 -0.2213  0.3547 -0.0836
  472POPI   D2A 7412   2.462   2.234   9.899  0.2196 -0.4013 -0.1434
  472POPI   C3A 7413   2.616   2.433   9.607 -0.3068  0.0096 -0.0406
  472POPI   C4A 7414   2.524   2.525   9.120  0.2399 -0.0348 -0.1807
  472POPI   C1B 7415   1.685   2.418   9.885  0.0086 -0.1889  0.2343
  472POPI   C2B 7416   1.904   2.170   9.490 -0.0938  0.0932 -0.2014
  472POPI   C3B 7417   1.896   2.022   9.072  0.3086 -0.2907 -0.0147
  472POPI   C4B 7418   2.121   1.845   8.753 -0.0917 -0.1788 -0.1129
  473DPPI    C1 7419   6.856   6.755  10.885  0.0722 -0.2623 -0.2333
  473DPPI    C2 7420   6.933   6.489  11.174 -0.0435 -0.0105  0.0344
  473DPPI    C3 7421   6.554   6.576  11.078 -0.0059  0.0319 -0.0771
  473DPPI   PO4 7422   6.958   6.681  10.667  0.0478  0.2780 -0.0962
  473DPPI   GL1 7423   7.089   6.824  10.250 -0.1706 -0.2001 -0.1940
  473DPPI   GL2 7424   6.711   6.795  10.208  0.1209  0.1462  0.3364
  473DPPI   C1A 7425   7.005   6.959   9.816  0.0692  0.2785  0.1961
  473DPPI   C2A 7426   7.076   7.160   9.434  0.0794 -0.1105 -0.0302
  473DPPI   C3A 7427   7.196   7.199   9.110 -0.3975  0.1322 -0.0499
  473DPPI   C4A 7428   7.416   7.503   8.781  0.3524 -0.3005  0.0197
  473DPPI   C1B 7429   6.826   6.444   9.976 -0.0418  0.1899  0.2756
  473DPPI   C2B 7430   6.882   6.183   9.702  0.1705  0.0165  0.0001
  473DPPI   C3B 7431   6.886   6.212   9.260  0.2921  0.0394 -0.1998
  473DPPI   C4B 7432   6.961   6.361   8.849 -0.0766  0.3565 -0.2602
  474DPPI    C1 7433   5.071  10.172  10.435 -0.2837  0.1161  0.1934
  474DPPI    C2 7434   5.153  10.382  10.766  0.0261 -0.0160  0.2030
  474DPPI    C3 7435   5.233   9.990  10.752 -0.2724 -0.0750  0.0790
  474DPPI   PO4 7436   4.877  10.162  10.339 -0.1196  0.0387 -0.0634
  474DPPI   GL1 7437   4.627  10.347  10.104  0.2254 -0.3719  0.0824
  474DPPI   GL2 7438   4.909  10.389   9.876 -0.3947  0.1632  0.2377
  474DPPI   C1A 7439   4.422  10.514   9.693  0.0820  0.1310 -0.0127
  474DPPI   C2A 7440   4.438  10.613   9.291 -0.2219  0.0103  0.0055
  474DPPI   C3A 7441   4.444  10.905   8.914 -0.1557 -0.0269  0.2091
  474DPPI   C4A 7442   4.313  10.888   8.569 -0.0942 -0.0163  0.0415
  474DPPI   C1B 7443   4.980  10.565   9.415 -0.1847 -0.0695  0.0575
  474DPPI   C2B 7444   4.987  10.489   8.908  0.0949 -0.5034  0.0197
  474DPPI   C3B 7445   4.807  10.706   8.616 -0.0794  0.1367 -0.0749
  474DPPI   C4B 7446   4.954  10.931   8.216 -0.3097  0.3871  0.0365
  475DPPI    C1 7447  17.768  17.152  11.179 -0.0063 -0.0462  0.2342
  475DPPI    C2 7448  17.639  17.531  11.175 -0.0116 -0.0435  0.4768
  475DPPI    C3 7449  17.422  17.248  11.355 -0.0830 -0.1924  0.1649
  475DPPI   PO4 7450  17.878  17.139  10.970 -0.0289  0.4211 -0.1228
  475DPPI   GL1 7451  17.815  17.280  10.635  0.2792 -0.1940  0.0291
  475DPPI   GL2 7452  17.501  17.052  10.614 -0.0223 -0.0333  0.0988
  475DPPI   C1A 7453  17.939  17.336  10.202 -0.0657  0.0650  0.2513
  475DPPI   C2A 7454  17.924  17.296   9.821  0.1566 -0.0182  0.0893
  475DPPI   C3A 7455  17.791  17.192   9.488  0.0732 -0.4504  0.0979
  475DPPI   C4A 7456  17.886  17.297   9.042 -0.2049  0.2255 -0.2888
  475DPPI   C1B 7457  17.467  17.112  10.075  0.1030 -0.5022  0.0680
  475DPPI   C2B 7458  17.364  17.100   9.721 -0.0341  0.0955  0.0500
  475DPPI   C3B 7459  17.260  17.147   9.242  0.1162 -0.2004 -0.2177
  475DPPI   C4B 7460  17.462  17.124   8.880 -0.2735 -0.0836 -0.0182
  476DPPI    C1 7461  15.963  12.229  10.506 -0.1645  0.1216 -0.1332
  476DPPI    C2 7462  15.715  12.191  10.817 -0.3195  0.3080 -0.2319
  476DPPI    C3 7463  16.077  12.354  10.868 -0.1247 -0.1655 -0.0439
  476DPPI   PO4 7464  15.919  12.348  10.297 -0.4067  0.1674  0.3058
  476DPPI   GL1 7465  16.103  12.545   9.967 -0.3006 -0.0822  0.0640
  476DPPI   GL2 7466  16.025  12.373   9.772  0.1258  0.3713 -0.2260
  476DPPI   C1A 7467  16.065  12.863   9.641  0.2288  0.2273 -0.1316
  476DPPI   C2A 7468  16.037  12.977   9.224  0.0180 -0.0417  0.1601
  476DPPI   C3A 7469  16.187  13.030   8.792  0.1427  0.0817  0.1956
  476DPPI   C4A 7470  16.054  13.084   8.367 -0.1326 -0.0626  0.1785
  476DPPI   C1B 7471  15.904  12.463   9.296  0.0448  0.0345 -0.1953
  476DPPI   C2B 7472  15.870  12.651   8.843 -0.0169  0.1735  0.0892
  476DPPI   C3B 7473  15.836  12.630   8.452  0.0488  0.0411 -0.0121
  476DPPI   C4B 7474  15.909  12.211   8.257 -0.0602  0.0266  0.0376
  477DPPI    C1 7475   1.818   7.532  10.995 -0.1700 -0.1688  0.0304
  477DPPI    C2 7476   1.773   7.159  11.135  0.1422 -0.0981  0.3362
  477DPPI    C3 7477   1.648   7.471  11.352 -0.1074 -0.0190  0.0865
  477DPPI   PO4 7478   1.748   7.428  10.726  0.0768 -0.1619 -0.1087
  477DPPI   GL1 7479   1.812   7.501  10.194 -0.0641 -0.1929  0.0495
  477DPPI   GL2 7480   1.842   7.117  10.289  0.0153  0.0517  0.0814
  477DPPI   C1A 7481   1.612   7.268   9.743 -0.1509 -0.3322 -0.2326
  477DPPI   C2A 7482   1.734   7.227   9.353 -0.0942 -0.1667 -0.2753
  477DPPI   C3A 7483   1.734   7.086   8.907  0.1808  0.3697 -0.1091
  477DPPI   C4A 7484   1.742   6.818   8.510 -0.1295 -0.2790 -0.0314
  477DPPI   C1B 7485   2.058   7.087   9.930  0.1934  0.2565 -0.5158
  477DPPI   C2B 7486   2.288   6.982   9.591 -0.0299 -0.1595 -0.1869
  477DPPI   C3B 7487   2.482   6.977   9.206  0.1004  0.3664  0.0913
  477DPPI   C4B 7488   2.680   7.006   8.746  0.3048  0.1420 -0.0819
  478DPPI    C1 7489  16.355  10.881  10.448 -0.0447 -0.2679  0.1600
  478DPPI    C2 7490  16.033  10.815  10.675 -0.0573 -0.0655  0.2021
  478DPPI    C3 7491  16.328  11.049  10.810 -0.0785  0.0801 -0.0007
  478DPPI   PO4 7492  16.330  11.071  10.103  0.1922  0.1478  0.0223
  478DPPI   GL1 7493  16.200  10.903   9.761 -0.2337  0.0628 -0.0984
  478DPPI   GL2 7494  15.885  10.879   9.815 -0.0981 -0.1038  0.0218
  478DPPI   C1A 7495  16.056  11.004   9.378 -0.1200  0.3236  0.0884
  478DPPI   C2A 7496  15.980  11.063   8.924 -0.2788 -0.2057  0.0950
  478DPPI   C3A 7497  16.052  10.936   8.515  0.0056  0.3070 -0.1865
  478DPPI   C4A 7498  16.073  10.931   8.063 -0.1030  0.1676  0.0318
  478DPPI   C1B 7499  15.597  10.739   9.434  0.1433  0.0282  0.0717
  478DPPI   C2B 7500  15.563  10.799   9.015  0.2557 -0.1679  0.1073
  478DPPI   C3B 7501  15.554  10.953   8.661 -0.1018  0.2381 -0.2422
  478DPPI   C4B 7502  15.513  11.131   8.265  0.1604  0.0851  0.3155
  479DPPI    C1 7503   3.849  11.348  10.958 -0.1922  0.1131  0.2057
  479DPPI    C2 7504   4.061  11.033  11.085 -0.0933  0.0817 -0.0326
  479DPPI    C3 7505   3.699  11.105  11.239 -0.0988 -0.1237  0.0539
  479DPPI   PO4 7506   3.982  11.319  10.706  0.2983  0.1423 -0.2097
  479DPPI   GL1 7507   4.128  11.441  10.369  0.2242  0.0691  0.1962
  479DPPI   GL2 7508   4.290  11.762  10.349  0.1775 -0.0249  0.1261
  479DPPI   C1A 7509   4.125  11.083   9.929  0.1210  0.2685  0.1568
  479DPPI   C2A 7510   4.261  11.009   9.605 -0.0309 -0.0667  0.2454
  479DPPI   C3A 7511   4.094  11.158   9.296  0.0704 -0.1891 -0.0305
  479DPPI   C4A 7512   3.982  11.272   8.815 -0.1337  0.0549 -0.4427
  479DPPI   C1B 7513   4.146  11.654   9.908 -0.4608 -0.2600 -0.2760
  479DPPI   C2B 7514   4.291  11.535   9.546  0.0648  0.0189 -0.1845
  479DPPI   C3B 7515   4.102  11.720   9.205  0.0293  0.1023  0.2111
  479DPPI   C4B 7516   4.144  11.932   8.982  0.2244 -0.1582  0.0382
  480DPPI    C1 7517   5.134   7.080  10.974 -0.1190 -0.1596  0.0372
  480DPPI    C2 7518   5.530   7.114  11.016 -0.1042 -0.1372 -0.1170
  480DPPI    C3 7519   5.306   6.995  11.325  0.0035  0.0092  0.0193
  480DPPI   PO4 7520   5.091   6.917  10.710  0.1136 -0.0133 -0.3980
  480DPPI   GL1 7521   5.216   6.988  10.324 -0.0645 -0.1462  0.0613
  480DPPI   GL2 7522   5.108   6.653  10.240 -0.2949  0.0389 -0.3354
  480DPPI   C1A 7523   4.926   7.118  10.026 -0.2044  0.2947  0.1078
  480DPPI   C2A 7524   4.701   7.017   9.697 -0.3425  0.0154 -0.0470
  480DPPI   C3A 7525   4.689   7.185   9.306 -0.0496  0.0415  0.1934
  480DPPI   C4A 7526   4.691   7.351   8.880 -0.0460 -0.0642  0.0155
  480DPPI   C1B 7527   5.111   6.668   9.812  0.0099 -0.2615  0.0734
  480DPPI   C2B 7528   5.041   6.624   9.347  0.1690 -0.0398  0.2100
  480DPPI   C3B 7529   4.939   6.421   8.941 -0.2570  0.1109  0.1989
  480DPPI   C4B 7530   5.061   6.491   8.519  0.1287 -0.1496 -0.0855
  481DPPI    C1 7531   5.624  13.342  11.252  0.0053  0.2726  0.1674
  481DPPI    C2 7532   5.398  13.563  11.497 -0.2253  0.0565  0.1526
  481DPPI    C3 7533   5.519  13.199  11.610 -0.2666 -0.0124 -0.0212
  481DPPI   PO4 7534   5.553  13.435  10.993 -0.1727  0.3360  0.1543
  481DPPI   GL1 7535   5.586  13.508  10.529  0.0125  0.2786  0.3113
  481DPPI   GL2 7536   5.870  13.638  10.358  0.2451  0.3589  0.0670
  481DPPI   C1A 7537   5.593  13.216  10.182 -0.3351 -0.1296 -0.1669
  481DPPI   C2A 7538   5.442  13.274   9.756  0.0099 -0.2610  0.0364
  481DPPI   C3A 7539   5.401  13.318   9.342 -0.0066  0.2591  0.2637
  481DPPI   C4A 7540   5.371  12.988   9.042 -0.0469  0.0185 -0.0605
  481DPPI   C1B 7541   5.702  13.641   9.997 -0.1361  0.1609  0.4858
  481DPPI   C2B 7542   5.576  13.748   9.526  0.0259  0.1012  0.4653
  481DPPI   C3B 7543   5.582  13.739   9.078  0.1000 -0.2024 -0.2464
  481DPPI   C4B 7544   5.745  14.008   8.809  0.1684 -0.1378  0.0204
  482DPPI    C1 7545   0.459   3.097  10.974  0.2219  0.0667  0.2348
  482DPPI    C2 7546   0.492   3.491  10.913  0.2885  0.0048 -0.1539
  482DPPI    C3 7547   0.696   3.317  11.210  0.0133  0.3086  0.2234
  482DPPI   PO4 7548   0.468   3.041  10.703 -0.1857  0.0158  0.1338
  482DPPI   GL1 7549   0.685   3.252  10.365  0.3083 -0.0089  0.0348
  482DPPI   GL2 7550   0.377   3.192  10.245 -0.1122  0.2047 -0.0144
  482DPPI   C1A 7551   0.649   3.546  10.095 -0.4121  0.0432 -0.0425
  482DPPI   C2A 7552   0.765   3.746   9.687  0.0672  0.0325 -0.1292
  482DPPI   C3A 7553   0.594   3.734   9.231 -0.0628  0.0064 -0.1344
  482DPPI   C4A 7554   0.470   3.532   8.789  0.0019 -0.5146  0.0937
  482DPPI   C1B 7555   0.452   3.156   9.863 -0.3163 -0.0879  0.2424
  482DPPI   C2B 7556   0.447   3.213   9.494  0.0452  0.1518  0.1047
  482DPPI   C3B 7557   0.306   3.169   9.155  0.1283  0.0258  0.2919
  482DPPI   C4B 7558   0.277   3.043   8.861 -0.0428  0.0420 -0.0578
  483DPPI    C1 7559   3.644  14.150  11.086 -0.0379 -0.0807 -0.1675
  483DPPI    C2 7560   3.857  14.108  11.422 -0.0100  0.2070 -0.1475
  483DPPI    C3 7561   3.475  13.990  11.411  0.1124 -0.2022 -0.1482
  483DPPI   PO4 7562   3.746  14.124  10.909 -0.2841  0.2140  0.2797
  483DPPI   GL1 7563   3.764  14.078  10.519  0.1051 -0.0410  0.1856
  483DPPI   GL2 7564   3.553  14.299  10.390 -0.0075  0.1914  0.0239
  483DPPI   C1A 7565   3.903  13.861  10.264 -0.0466 -0.0146  0.0111
  483DPPI   C2A 7566   3.896  13.860   9.835  0.1545 -0.1344  0.0151
  483DPPI   C3A 7567   3.897  13.806   9.475 -0.3150  0.0265 -0.1235
  483DPPI   C4A 7568   3.885  13.895   9.071  0.1947  0.0547 -0.1128
  483DPPI   C1B 7569   3.389  14.364  10.017  0.1230  0.0587 -0.1104
  483DPPI   C2B 7570   3.430  14.330   9.573  0.0279 -0.0748  0.0213
  483DPPI   C3B 7571   3.450  14.493   9.188 -0.2115 -0.0167 -0.0300
  483DPPI   C4B 7572   3.578  14.301   8.867  0.1565 -0.1117 -0.1104
  484DPPI    C1 7573   0.332   6.252  10.669  0.0615 -0.1479  0.0496
  484DPPI    C2 7574   0.203   6.467  10.981  0.0454  0.0490 -0.0911
  484DPPI    C3 7575   0.531   6.580  10.782  0.0018 -0.0214 -0.2040
  484DPPI   PO4 7576   0.117   6.160  10.600 -0.1084 -0.5679  0.2658
  484DPPI   GL1 7577  -0.014   6.025  10.184  0.0252  0.1336 -0.2127
  484DPPI   GL2 7578   0.268   6.145  10.131 -0.0949 -0.2118  0.1569
  484DPPI   C1A 7579  -0.051   6.069   9.681  0.0009 -0.2014  0.1728
  484DPPI   C2A 7580  -0.195   5.936   9.337  0.0879  0.3540  0.2796
  484DPPI   C3A 7581  -0.001   6.069   8.952 -0.1747  0.2651 -0.2437
  484DPPI   C4A 7582   0.021   6.413   8.675 -0.0417 -0.2489  0.2198
  484DPPI   C1B 7583   0.459   6.132   9.697 -0.3258 -0.1401 -0.1942
  484DPPI   C2B 7584   0.297   6.026   9.269 -0.1386 -0.0827  0.0887
  484DPPI   C3B 7585   0.451   5.703   8.982 -0.2246  0.0753 -0.0150
  484DPPI   C4B 7586   0.824   5.572   8.717  0.0012 -0.1714  0.2217
  485DPPI    C1 7587  15.266  16.590  11.180  0.1139  0.2155  0.0745
  485DPPI    C2 7588  14.988  16.389  11.385  0.0075  0.0866 -0.1911
  485DPPI    C3 7589  15.365  16.404  11.519 -0.0968  0.1502  0.1014
  485DPPI   PO4 7590  15.166  16.498  10.897 -0.0295 -0.1552 -0.2227
  485DPPI   GL1 7591  15.456  16.507  10.556 -0.0404  0.2691 -0.2414
  485DPPI   GL2 7592  15.196  16.857  10.504  0.2766  0.3400  0.1063
  485DPPI   C1A 7593  15.477  16.550  10.165  0.0662  0.4049 -0.0398
  485DPPI   C2A 7594  15.359  16.515   9.670 -0.0398  0.0206  0.2473
  485DPPI   C3A 7595  15.349  16.557   9.230 -0.1329 -0.1431 -0.1511
  485DPPI   C4A 7596  15.396  16.389   8.813 -0.3267 -0.0082 -0.1120
  485DPPI   C1B 7597  15.051  16.854  10.081 -0.1091 -0.1384 -0.3045
  485DPPI   C2B 7598  14.985  16.807   9.614 -0.0404  0.1713  0.1106
  485DPPI   C3B 7599  14.938  16.912   9.257 -0.3515  0.3414 -0.0636
  485DPPI   C4B 7600  15.014  16.743   8.838  0.0625 -0.0086  0.1963
  486DPPI    C1 7601   3.657   1.960  11.177  0.1521  0.0283  0.0715
  486DPPI    C2 7602   3.276   1.843  11.211  0.1537  0.0099  0.0252
  486DPPI    C3 7603   3.362   2.221  11.113  0.1431 -0.0609 -0.2681
  486DPPI   PO4 7604   3.741   1.676  11.069  0.0527  0.0996  0.1845
  486DPPI   GL1 7605   3.560   1.326  10.679 -0.1805 -0.0484 -0.1532
  486DPPI   GL2 7606   3.940   1.226  10.621 -0.2043  0.0711 -0.1563
  486DPPI   C1A 7607   3.520   0.943  10.412  0.0904 -0.1526  0.0773
  486DPPI   C2A 7608   3.618   0.808  10.092  0.1259  0.2121 -0.0428
  486DPPI   C3A 7609   3.541   0.937   9.692 -0.2469 -0.1200 -0.0872
  486DPPI   C4A 7610   3.422   0.935   9.287 -0.0370 -0.1591  0.1153
  486DPPI   C1B 7611   3.795   1.307  10.203  0.1931  0.1362  0.0769
  486DPPI   C2B 7612   3.751   1.417   9.757 -0.1041  0.3294  0.2035
  486DPPI   C3B 7613   3.730   1.288   9.381  0.1295 -0.0302  0.2374
  486DPPI   C4B 7614   3.846   0.908   8.974 -0.2519 -0.1561  0.1196
  487DPPI    C1 7615  14.659  15.280  11.497  0.1011 -0.0313  0.0580
  487DPPI    C2 7616  15.056  15.288  11.543  0.1173  0.0782 -0.0947
  487DPPI    C3 7617  14.824  15.529  11.763  0.1544  0.1996 -0.1880
  487DPPI   PO4 7618  14.579  15.389  11.179 -0.0332  0.0948 -0.3750
  487DPPI   GL1 7619  14.613  15.167  10.764  0.0799 -0.1697  0.1949
  487DPPI   GL2 7620  14.544  14.903  10.705 -0.0534  0.1665 -0.0569
  487DPPI   C1A 7621  14.572  15.325  10.342 -0.0308  0.0185  0.1389
  487DPPI   C2A 7622  14.617  15.297   9.854 -0.0154  0.0562 -0.1831
  487DPPI   C3A 7623  14.608  15.371   9.445 -0.0593 -0.0410 -0.0047
  487DPPI   C4A 7624  14.597  15.420   9.030  0.0571 -0.0400  0.2911
  487DPPI   C1B 7625  14.423  14.729  10.313 -0.0452  0.0193  0.1073
  487DPPI   C2B 7626  14.551  14.778   9.816 -0.1103 -0.1584 -0.0337
  487DPPI   C3B 7627  14.507  14.789   9.343  0.1090  0.1674 -0.2281
  487DPPI   C4B 7628  14.531  14.894   8.951 -0.0564 -0.2271  0.1892
  488DPPI    C1 7629  13.049  12.782  11.230  0.1679 -0.0972 -0.3049
  488DPPI    C2 7630  12.709  12.575  11.189  0.1141 -0.0626 -0.0524
  488DPPI    C3 7631  12.955  12.495  11.493  0.1931  0.1068 -0.0706
  488DPPI   PO4 7632  13.113  12.866  11.029 -0.1612  0.2731  0.1464
  488DPPI   GL1 7633  13.018  12.798  10.544  0.0568  0.0712 -0.2335
  488DPPI   GL2 7634  12.850  12.829  10.264 -0.1597  0.1135  0.0270
  488DPPI   C1A 7635  13.355  12.748  10.163 -0.1113  0.0066 -0.0639
  488DPPI   C2A 7636  13.572  13.016   9.949 -0.2478  0.0430 -0.4936
  488DPPI   C3A 7637  13.676  13.178   9.524  0.0124 -0.2577 -0.0171
  488DPPI   C4A 7638  13.629  13.189   9.150 -0.0368 -0.0371 -0.2757
  488DPPI   C1B 7639  12.571  12.723   9.851  0.3046 -0.0007 -0.2303
  488DPPI   C2B 7640  12.818  12.716   9.420  0.0236  0.1002 -0.5422
  488DPPI   C3B 7641  13.199  12.661   9.140  0.3774 -0.1433 -0.3180
  488DPPI   C4B 7642  13.533  12.689   9.213 -0.0484  0.0896 -0.1264
  489DPPI    C1 7643   5.914   5.177  10.840  0.0035  0.0182  0.0098
  489DPPI    C2 7644   5.903   5.495  10.597 -0.0234  0.0943  0.1099
  489DPPI    C3 7645   6.092   5.518  10.949 -0.0054 -0.0081  0.1074
  489DPPI   PO4 7646   5.978   4.904  10.593 -0.1786 -0.0440 -0.2493
  489DPPI   GL1 7647   5.987   4.593  10.246 -0.0164 -0.0176  0.1054
  489DPPI   GL2 7648   5.745   4.437  10.270 -0.0964 -0.1394  0.0474
  489DPPI   C1A 7649   6.099   4.454   9.878  0.0254  0.0413  0.0898
  489DPPI   C2A 7650   5.925   4.400   9.430  0.3759 -0.0852 -0.3631
  489DPPI   C3A 7651   6.095   4.357   8.992 -0.2228 -0.0889  0.1773
  489DPPI   C4A 7652   6.267   4.511   8.556  0.2390  0.1272 -0.1088
  489DPPI   C1B 7653   5.626   4.658   9.898 -0.1783  0.0311  0.1172
  489DPPI   C2B 7654   5.495   4.733   9.481  0.0466 -0.0865  0.2620
  489DPPI   C3B 7655   5.541   4.722   9.061  0.0437  0.0535 -0.0714
  489DPPI   C4B 7656   5.852   4.896   8.923  0.0524  0.0949 -0.1995
  490DPPI    C1 7657   5.856  13.799  11.278  0.0187 -0.0703 -0.0428
  490DPPI    C2 7658   6.089  14.028  11.508  0.2367 -0.1274 -0.2027
  490DPPI    C3 7659   5.711  13.955  11.616  0.3064 -0.0746  0.0858
  490DPPI   PO4 7660   5.874  13.974  11.022 -0.1605 -0.0445  0.2698
  490DPPI   GL1 7661   5.981  14.072  10.550  0.1407 -0.1388  0.0248
  490DPPI   GL2 7662   5.909  14.312  10.574 -0.3613 -0.2224 -0.4337
  490DPPI   C1A 7663   6.121  14.157  10.155 -0.2505 -0.1453  0.1670
  490DPPI   C2A 7664   6.310  14.558  10.026  0.2023  0.1547 -0.2402
  490DPPI   C3A 7665   6.483  14.675   9.685  0.0586  0.0514  0.1697
  490DPPI   C4A 7666   6.648  14.624   9.242 -0.1253 -0.0237 -0.0760
  490DPPI   C1B 7667   5.830  14.577  10.186  0.0321  0.1061 -0.0633
  490DPPI   C2B 7668   5.588  14.806   9.980 -0.2321 -0.4005  0.2545
  490DPPI   C3B 7669   5.507  15.213   9.836 -0.1065  0.0242 -0.1715
  490DPPI   C4B 7670   5.235  15.383  10.148 -0.0696 -0.0690  0.2613
  491DPPI    C1 7671   7.445   1.621  10.654 -0.1134  0.1831  0.0928
  491DPPI    C2 7672   7.371   1.997  10.768 -0.1861  0.1739  0.0765
  491DPPI    C3 7673   7.400   1.707  11.042  0.1442  0.2369  0.1128
  491DPPI   PO4 7674   7.204   1.618  10.490  0.3985  0.1276 -0.0960
  491DPPI   GL1 7675   7.044   1.700  10.075 -0.1877 -0.0995 -0.0218
  491DPPI   GL2 7676   6.703   1.628  10.229 -0.0550  0.0391 -0.2656
  491DPPI   C1A 7677   6.944   1.683   9.682 -0.0712 -0.2946 -0.0927
  491DPPI   C2A 7678   6.989   1.666   9.352 -0.1689 -0.0479  0.0023
  491DPPI   C3A 7679   6.716   1.789   9.042 -0.0110  0.0779 -0.5668
  491DPPI   C4A 7680   6.553   2.126   8.758 -0.0445  0.1136 -0.0821
  491DPPI   C1B 7681   6.596   1.369   9.869  0.1146  0.1792  0.3221
  491DPPI   C2B 7682   6.505   1.034   9.621 -0.1958  0.2127 -0.3034
  491DPPI   C3B 7683   6.507   0.806   9.252  0.0793 -0.0650  0.4343
  491DPPI   C4B 7684   6.655   0.574   8.903 -0.2309  0.1083  0.1462
  492DPPI    C1 7685   3.455   6.736  10.733 -0.3460 -0.4570  0.1229
  492DPPI    C2 7686   3.721   6.442  10.678  0.1538 -0.0366  0.2071
  492DPPI    C3 7687   3.761   6.692  10.987 -0.1988  0.1897  0.0763
  492DPPI   PO4 7688   3.387   6.882  10.483 -0.2638 -0.3708 -0.0169
  492DPPI   GL1 7689   3.495   7.080  10.062 -0.1399 -0.2073  0.0837
  492DPPI   GL2 7690   3.097   7.046  10.094  0.1788  0.0640  0.1724
  492DPPI   C1A 7691   3.272   7.118   9.630  0.2059  0.2239  0.1840
  492DPPI   C2A 7692   3.347   7.483   9.331 -0.0552 -0.2742 -0.0108
  492DPPI   C3A 7693   3.460   7.665   8.897  0.1336  0.0133 -0.0787
  492DPPI   C4A 7694   3.625   7.974   8.786  0.0221 -0.1855  0.4004
  492DPPI   C1B 7695   3.020   7.462  10.005 -0.0560 -0.0946 -0.5324
  492DPPI   C2B 7696   3.110   7.788   9.751  0.0726 -0.0366  0.2826
  492DPPI   C3B 7697   3.430   8.001   9.509  0.0164 -0.1237  0.1347
  492DPPI   C4B 7698   3.741   8.195   9.268 -0.2175  0.1714 -0.0452
  493DPPI    C1 7699  12.146   0.597  10.783  0.0131 -0.1687  0.2666
  493DPPI    C2 7700  12.083   0.758  11.144 -0.2623 -0.0021  0.1479
  493DPPI    C3 7701  11.812   0.511  10.985 -0.0817 -0.1775  0.1074
  493DPPI   PO4 7702  12.237   0.777  10.675 -0.4369 -0.1561 -0.1493
  493DPPI   GL1 7703  12.206   0.783  10.147  0.2876  0.0150 -0.2924
  493DPPI   GL2 7704  12.330   1.115  10.013 -0.0215  0.0287  0.3175
  493DPPI   C1A 7705  12.354   0.742   9.694 -0.3581  0.0134 -0.1251
  493DPPI   C2A 7706  12.441   1.032   9.406  0.0189  0.2135 -0.1323
  493DPPI   C3A 7707  12.471   1.249   9.045 -0.2184 -0.0763 -0.2183
  493DPPI   C4A 7708  12.602   1.255   8.740 -0.1413 -0.2206 -0.0696
  493DPPI   C1B 7709  12.125   1.409   9.643 -0.2246 -0.0894 -0.1022
  493DPPI   C2B 7710  12.106   1.585   9.309  0.2951  0.1963  0.0840
  493DPPI   C3B 7711  11.920   1.547   8.891 -0.1197  0.0617  0.1988
  493DPPI   C4B 7712  11.899   1.580   8.390 -0.0627  0.3150  0.0237
  494DPPI    C1 7713   9.326   5.595  10.722  0.0113 -0.1483 -0.2290
  494DPPI    C2 7714   9.701   5.529  10.845  0.0128  0.3649  0.0705
  494DPPI    C3 7715   9.487   5.828  11.005 -0.5793 -0.0080  0.0083
  494DPPI   PO4 7716   9.220   5.302  10.641 -0.0416  0.4768 -0.2573
  494DPPI   GL1 7717   9.331   5.019  10.213  0.0723  0.0485  0.2419
  494DPPI   GL2 7718   9.655   4.919  10.405  0.0740 -0.0937 -0.2306
  494DPPI   C1A 7719   9.386   4.768   9.804  0.1919  0.4184 -0.2207
  494DPPI   C2A 7720   9.387   4.949   9.370 -0.3442  0.1568  0.1518
  494DPPI   C3A 7721   9.344   4.976   8.882  0.2104 -0.1983  0.1361
  494DPPI   C4A 7722   9.274   4.900   8.510  0.0747  0.0031 -0.1433
  494DPPI   C1B 7723   9.793   4.997   9.976  0.2418  0.1817  0.1974
  494DPPI   C2B 7724   9.855   5.028   9.477  0.0260  0.4859  0.2281
  494DPPI   C3B 7725   9.747   5.175   9.151  0.0613 -0.0837  0.1675
  494DPPI   C4B 7726   9.961   5.405   8.869 -0.1517  0.1765  0.0732
  495DPPI    C1 7727  13.715   3.838  11.027 -0.0391 -0.0075 -0.0257
  495DPPI    C2 7728  13.950   3.713  11.326 -0.0006  0.0503 -0.0315
  495DPPI    C3 7729  13.619   3.509  11.232  0.1253 -0.1156 -0.1198
  495DPPI   PO4 7730  13.938   3.912  10.816  0.1625  0.0833  0.1466
  495DPPI   GL1 7731  14.022   4.087  10.520 -0.0196 -0.0033 -0.0048
  495DPPI   GL2 7732  13.704   4.010  10.425  0.2054 -0.0346  0.0379
  495DPPI   C1A 7733  14.010   4.276  10.131 -0.1605  0.0745 -0.0049
  495DPPI   C2A 7734  13.895   4.297   9.718  0.0787  0.0953  0.2049
  495DPPI   C3A 7735  13.902   4.258   9.284  0.0234 -0.1109 -0.1395
  495DPPI   C4A 7736  14.081   4.577   8.943 -0.4907 -0.0070  0.0321
  495DPPI   C1B 7737  13.583   3.956  10.016 -0.0573 -0.0588  0.4028
  495DPPI   C2B 7738  13.662   3.833   9.550  0.1452 -0.2964 -0.1182
  495DPPI   C3B 7739  13.633   3.802   9.052  0.1104 -0.2987  0.1843
  495DPPI   C4B 7740  13.903   3.665   8.583 -0.1910  0.1087  0.0977
  496DPPI    C1 7741   6.817  15.852  10.948  0.1126  0.0620  0.2120
  496DPPI    C2 7742   6.843  15.472  11.070  0.2518  0.0124  0.0319
  496DPPI    C3 7743   6.596  15.725  11.257 -0.1810 -0.2796 -0.1277
  496DPPI   PO4 7744   6.807  15.822  10.671  0.0635 -0.0062 -0.0549
  496DPPI   GL1 7745   6.921  15.702  10.327 -0.1948  0.1605 -0.3726
  496DPPI   GL2 7746   7.241  15.833  10.224  0.0226  0.3459  0.1076
  496DPPI   C1A 7747   6.944  15.612   9.932 -0.3196  0.1789  0.1600
  496DPPI   C2A 7748   6.866  15.463   9.492  0.0890  0.0599 -0.2326
  496DPPI   C3A 7749   6.956  15.568   9.022 -0.0039  0.3598  0.2920
  496DPPI   C4A 7750   7.066  15.406   8.653  0.0706 -0.0004 -0.0601
  496DPPI   C1B 7751   7.403  15.487   9.956  0.0383  0.2840  0.1133
  496DPPI   C2B 7752   7.236  15.214   9.773  0.0601 -0.1865  0.0680
  496DPPI   C3B 7753   6.983  14.956   9.518  0.1900 -0.0595  0.0713
  496DPPI   C4B 7754   7.031  15.083   9.074 -0.0105 -0.1156  0.0689
  497DPPI    C1 7755  11.042  16.030  11.157  0.0086 -0.0450 -0.0798
  497DPPI    C2 7756  10.727  16.048  11.402  0.0173  0.1414 -0.0814
  497DPPI    C3 7757  11.054  15.847  11.512 -0.0924 -0.0325 -0.0696
  497DPPI   PO4 7758  11.010  16.009  10.918 -0.0349  0.0291  0.2934
  497DPPI   GL1 7759  10.905  16.062  10.559 -0.0637  0.3307  0.0773
  497DPPI   GL2 7760  11.144  15.832  10.371 -0.0164 -0.0143  0.1640
  497DPPI   C1A 7761  10.568  15.980  10.293  0.2012 -0.1028 -0.1296
  497DPPI   C2A 7762  10.384  15.915   9.857  0.0093  0.2989  0.2409
  497DPPI   C3A 7763  10.270  15.813   9.384  0.0925  0.1580  0.0655
  497DPPI   C4A 7764  10.289  15.741   8.895 -0.3384  0.1497 -0.0799
  497DPPI   C1B 7765  11.033  16.076  10.076 -0.0560  0.3688 -0.1090
  497DPPI   C2B 7766  10.843  16.108   9.766  0.0015 -0.1432  0.2699
  497DPPI   C3B 7767  10.861  16.112   9.312  0.0399  0.0762  0.0079
  497DPPI   C4B 7768  10.715  16.075   8.988  0.0216 -0.0135 -0.2157
  498DPPI    C1 7769  14.835   9.883  10.209  0.0882  0.0022 -0.1362
  498DPPI    C2 7770  15.160  10.060  10.363  0.1184  0.0549 -0.2585
  498DPPI    C3 7771  14.797  10.151  10.504  0.1570 -0.0109 -0.1151
  498DPPI   PO4 7772  14.949   9.771  10.035  0.0379 -0.2377 -0.0473
  498DPPI   GL1 7773  14.988   9.946   9.622  0.0615 -0.1619  0.5049
  498DPPI   GL2 7774  14.712   9.978   9.679 -0.2431  0.1864  0.1729
  498DPPI   C1A 7775  15.180  10.039   9.270  0.2073 -0.1313 -0.4120
  498DPPI   C2A 7776  15.231   9.934   8.887 -0.0185 -0.0811  0.0520
  498DPPI   C3A 7777  15.248  10.037   8.530 -0.0416 -0.2455  0.2298
  498DPPI   C4A 7778  15.284  10.207   8.144  0.1709  0.1928  0.0290
  498DPPI   C1B 7779  14.650  10.049   9.245 -0.1653 -0.0697  0.1638
  498DPPI   C2B 7780  14.587  10.040   8.847 -0.0727 -0.1003 -0.0154
  498DPPI   C3B 7781  14.412  10.023   8.523  0.1811 -0.1985  0.1091
  498DPPI   C4B 7782  14.328   9.907   8.061  0.0593 -0.1100 -0.0540
  499DPPI    C1 7783  14.362   0.036  11.291 -0.2030 -0.2423  0.1555
  499DPPI    C2 7784  14.580   0.284  11.517 -0.1775 -0.0280 -0.0998
  499DPPI    C3 7785  14.206   0.382  11.417 -0.1081 -0.0076 -0.3468
  499DPPI   PO4 7786  14.534   0.077  11.030  0.3647  0.1587 -0.3187
  499DPPI   GL1 7787  14.869   0.265  10.690 -0.0128 -0.0201  0.3651
  499DPPI   GL2 7788  14.827  -0.132  10.687  0.0186  0.0388  0.0189
  499DPPI   C1A 7789  14.810   0.203  10.225 -0.0615  0.1627  0.2871
  499DPPI   C2A 7790  14.773   0.306   9.855 -0.0808  0.1374 -0.3865
  499DPPI   C3A 7791  14.689   0.487   9.435  0.0743  0.0313  0.0650
  499DPPI   C4A 7792  14.643   0.571   8.930 -0.2553  0.1366  0.3142
  499DPPI   C1B 7793  14.681  -0.296  10.311 -0.2798  0.2146  0.2669
  499DPPI   C2B 7794  14.696  -0.328   9.919  0.0478  0.2232  0.0137
  499DPPI   C3B 7795  14.592  -0.121   9.548  0.0036  0.1022 -0.1065
  499DPPI   C4B 7796  14.635   0.102   9.135 -0.2337 -0.4447 -0.1360
  500DPPI    C1 7797   4.607   6.272  10.899  0.0529  0.1790  0.1402
  500DPPI    C2 7798   4.853   6.581  10.967  0.0610  0.1561  0.2163
  500DPPI    C3 7799   4.933   6.223  11.126  0.2340  0.0279 -0.1467
  500DPPI   PO4 7800   4.605   6.262  10.535  0.0901 -0.2340 -0.1757
  500DPPI   GL1 7801   4.795   6.298  10.150 -0.0777  0.2184  0.0582
  500DPPI   GL2 7802   4.958   6.030  10.189  0.1034  0.2908  0.0998
  500DPPI   C1A 7803   4.589   6.431   9.800  0.2111  0.0338 -0.1472
  500DPPI   C2A 7804   4.486   6.629   9.325 -0.3439 -0.1469 -0.2274
  500DPPI   C3A 7805   4.465   6.813   8.926  0.0805  0.0105 -0.3256
  500DPPI   C4A 7806   4.725   6.875   8.614  0.2872 -0.1808 -0.1084
  500DPPI   C1B 7807   4.871   5.859   9.736  0.0573 -0.2015  0.0117
  500DPPI   C2B 7808   4.888   5.644   9.369  0.0500  0.0772 -0.0486
  500DPPI   C3B 7809   5.054   5.919   9.033  0.0436 -0.4344 -0.2294
  500DPPI   C4B 7810   5.273   6.055   8.662  0.0825  0.1833 -0.0405
  501DPPI    C1 7811   7.208  11.236  11.197  0.0930  0.0747  0.1269
  501DPPI    C2 7812   7.369  11.045  10.885 -0.0115  0.1639  0.0175
  501DPPI    C3 7813   7.600  11.265  11.126  0.1050 -0.0779  0.1290
  501DPPI   PO4 7814   7.012  11.358  11.117 -0.3868 -0.4686 -0.1906
  501DPPI   GL1 7815   6.959  11.189  10.654  0.3138 -0.1950  0.1570
  501DPPI   GL2 7816   6.841  10.925  10.560 -0.1355  0.1528 -0.1509
  501DPPI   C1A 7817   7.020  11.476  10.208 -0.3514  0.0101 -0.3369
  501DPPI   C2A 7818   7.111  11.449   9.808 -0.0902  0.0970  0.1176
  501DPPI   C3A 7819   7.074  11.439   9.362  0.6024  0.0589  0.0327
  501DPPI   C4A 7820   7.149  11.435   8.997  0.2612 -0.1014  0.0736
  501DPPI   C1B 7821   6.778  10.886  10.117  0.0797 -0.0038 -0.0975
  501DPPI   C2B 7822   6.781  10.991   9.688  0.0044 -0.0499  0.0689
  501DPPI   C3B 7823   6.750  11.032   9.230 -0.1094  0.1975  0.0009
  501DPPI   C4B 7824   6.783  10.873   8.727 -0.0067 -0.0496 -0.0572
  502DPPI    C1 7825   0.584   8.613  10.694  0.1562  0.1247  0.0538
  502DPPI    C2 7826   0.256   8.517  10.902  0.0207  0.3782 -0.0381
  502DPPI    C3 7827   0.505   8.799  11.039  0.1031  0.3164 -0.0598
  502DPPI   PO4 7828   0.498   8.551  10.441 -0.0073  0.3563 -0.1087
  502DPPI   GL1 7829   0.599   8.494   9.987  0.2688  0.0533 -0.3708
  502DPPI   GL2 7830   0.388   8.480   9.816 -0.2375  0.0498  0.1358
  502DPPI   C1A 7831   0.856   8.396   9.658  0.1688 -0.2196  0.0547
  502DPPI   C2A 7832   0.901   8.524   9.218 -0.1036 -0.2227 -0.4044
  502DPPI   C3A 7833   0.915   8.643   8.795  0.2197 -0.2066 -0.0183
  502DPPI   C4A 7834   0.978   8.758   8.302 -0.1099 -0.2151 -0.0193
  502DPPI   C1B 7835   0.470   8.659   9.488  0.1373 -0.4680 -0.0150
  502DPPI   C2B 7836   0.471   8.818   9.147 -0.0910  0.0236  0.0927
  502DPPI   C3B 7837   0.322   9.011   8.746  0.2413  0.2335 -0.1996
  502DPPI   C4B 7838   0.078   8.923   8.400  0.1561  0.2568  0.1325
  503DPPI    C1 7839  11.328   3.716  10.936 -0.0014 -0.0997 -0.2030
  503DPPI    C2 7840  11.333   3.410  11.194  0.0118 -0.1196 -0.2268
  503DPPI    C3 7841  11.649   3.479  10.958  0.0625 -0.0075 -0.1275
  503DPPI   PO4 7842  10.971   3.744  10.834 -0.1262 -0.1815 -0.1216
  503DPPI   GL1 7843  10.798   4.113  10.437  0.1244  0.0438  0.2831
  503DPPI   GL2 7844  11.081   3.895  10.374 -0.0529  0.2215  0.2875
  503DPPI   C1A 7845  10.594   3.966  10.124  0.1949  0.0713 -0.3331
  503DPPI   C2A 7846  10.514   3.793   9.736 -0.0965  0.1700  0.3018
  503DPPI   C3A 7847  10.621   3.661   9.303  0.0067  0.0045  0.2052
  503DPPI   C4A 7848  10.691   3.753   8.866  0.1131  0.0524  0.3668
  503DPPI   C1B 7849  10.981   4.233  10.013 -0.1325 -0.1982 -0.0702
  503DPPI   C2B 7850  11.111   4.275   9.623  0.1691  0.2001  0.0265
  503DPPI   C3B 7851  11.165   4.466   9.263 -0.1401 -0.2751 -0.1171
  503DPPI   C4B 7852  11.308   4.400   8.926  0.0562  0.0219 -0.1628
  504DPPI    C1 7853   8.409   5.303  10.540 -0.0187 -0.3854 -0.0829
  504DPPI    C2 7854   8.339   5.042  10.836  0.1127 -0.2514  0.0679
  504DPPI    C3 7855   8.372   5.433  10.916  0.0953 -0.2075 -0.1320
  504DPPI   PO4 7856   8.213   5.365  10.393 -0.2414 -0.3529 -0.0695
  504DPPI   GL1 7857   8.064   5.730  10.162  0.0358 -0.0292  0.3562
  504DPPI   GL2 7858   8.270   6.002  10.165 -0.0017 -0.1820  0.0974
  504DPPI   C1A 7859   8.123   5.535   9.693 -0.1040 -0.2847 -0.1365
  504DPPI   C2A 7860   8.188   5.677   9.225  0.1137  0.1341 -0.0077
  504DPPI   C3A 7861   8.237   5.598   8.910 -0.1370  0.1891 -0.2225
  504DPPI   C4A 7862   8.124   5.361   8.561  0.0679  0.1588  0.2803
  504DPPI   C1B 7863   8.288   6.121   9.847  0.0574  0.0557 -0.1786
  504DPPI   C2B 7864   8.426   6.113   9.310 -0.0168  0.0225  0.2398
  504DPPI   C3B 7865   8.475   6.229   8.833 -0.3481  0.1003 -0.1809
  504DPPI   C4B 7866   8.276   6.016   8.469  0.1357  0.0726  0.1739
  505DPPI    C1 7867  16.671   7.501  10.822  0.0297  0.1032 -0.0893
  505DPPI    C2 7868  16.283   7.543  10.907 -0.0203 -0.2446 -0.1274
  505DPPI    C3 7869  16.532   7.391  11.181  0.1350  0.1813 -0.0241
  505DPPI   PO4 7870  16.673   7.407  10.557  0.1816  0.2337 -0.1457
  505DPPI   GL1 7871  16.739   7.466  10.149  0.1539  0.3087  0.2728
  505DPPI   GL2 7872  16.966   7.230  10.106 -0.0993  0.3158  0.0695
  505DPPI   C1A 7873  16.709   7.384   9.669  0.2604 -0.2802 -0.1617
  505DPPI   C2A 7874  16.770   7.304   9.250  0.5131  0.0195  0.2441
  505DPPI   C3A 7875  16.534   7.440   8.869  0.0266 -0.0255  0.2108
  505DPPI   C4A 7876  16.339   7.690   8.515 -0.0069 -0.1248  0.0305
  505DPPI   C1B 7877  16.990   7.022   9.601 -0.0822 -0.2470 -0.0619
  505DPPI   C2B 7878  16.875   6.780   9.197 -0.0508  0.0319  0.3198
  505DPPI   C3B 7879  16.860   6.868   8.725 -0.4400  0.0370  0.1643
  505DPPI   C4B 7880  17.091   7.034   8.311 -0.2136  0.1182  0.2241
  506DPPI    C1 7881  17.949   4.809  10.827  0.2017 -0.2158  0.0214
  506DPPI    C2 7882  17.709   4.589  11.058 -0.0554  0.1219  0.0844
  506DPPI    C3 7883  18.029   4.769  11.216  0.1813 -0.2335  0.0238
  506DPPI   PO4 7884  18.091   4.700  10.631 -0.0400  0.1458 -0.1036
  506DPPI   GL1 7885  18.053   4.781  10.227 -0.1794  0.1207 -0.2760
  506DPPI   GL2 7886  18.177   5.117  10.122  0.1761  0.0692 -0.0925
  506DPPI   C1A 7887  18.211   4.517   9.873  0.4441  0.2714 -0.2917
  506DPPI   C2A 7888  18.170   4.604   9.446 -0.0065 -0.0717 -0.0058
  506DPPI   C3A 7889  18.042   4.599   9.079  0.2051 -0.2136 -0.1764
  506DPPI   C4A 7890  18.178   4.328   8.649 -0.0780  0.1750  0.2264
  506DPPI   C1B 7891  18.324   4.939   9.769  0.3413  0.0204  0.0562
  506DPPI   C2B 7892  18.286   5.059   9.260 -0.0004  0.2794 -0.1334
  506DPPI   C3B 7893  18.231   5.254   8.823 -0.0089 -0.1866 -0.0972
  506DPPI   C4B 7894  18.323   5.158   8.397  0.0043  0.1545  0.3433
  507DPPI    C1 7895  15.066  13.670  11.258 -0.0122  0.1160 -0.1104
  507DPPI    C2 7896  15.053  13.336  11.478 -0.0903  0.1436 -0.0728
  507DPPI    C3 7897  15.371  13.577  11.499 -0.0536  0.0946 -0.0660
  507DPPI   PO4 7898  15.074  13.657  10.913 -0.1539  0.1819  0.1368
  507DPPI   GL1 7899  15.109  13.902  10.515  0.0994 -0.1788  0.1168
  507DPPI   GL2 7900  15.114  14.219  10.405 -0.1981  0.0522  0.4002
  507DPPI   C1A 7901  15.002  13.651  10.171 -0.1155  0.2498  0.0111
  507DPPI   C2A 7902  15.191  13.613   9.807  0.1090  0.0358  0.3879
  507DPPI   C3A 7903  15.083  13.566   9.354 -0.2944 -0.0198 -0.0954
  507DPPI   C4A 7904  15.076  13.651   9.001  0.1063  0.3784  0.0237
  507DPPI   C1B 7905  15.170  14.108   9.904 -0.1417  0.0037 -0.0480
  507DPPI   C2B 7906  15.324  14.118   9.534 -0.0609  0.0262  0.2495
  507DPPI   C3B 7907  15.241  14.155   9.026 -0.1189 -0.1291  0.1092
  507DPPI   C4B 7908  15.199  13.980   8.588  0.0049  0.5506 -0.1352
  508DPPI    C1 7909   7.186   7.203  10.900 -0.2680  0.0706  0.0435
  508DPPI    C2 7910   7.311   6.867  11.077 -0.2516 -0.0363 -0.1685
  508DPPI    C3 7911   7.250   7.197  11.295  0.2956 -0.0108 -0.0415
  508DPPI   PO4 7912   7.158   7.153  10.629 -0.0927  0.3989  0.0292
  508DPPI   GL1 7913   7.101   7.357  10.296 -0.2857 -0.1015  0.0168
  508DPPI   GL2 7914   7.095   7.636  10.186 -0.0631  0.1351  0.2262
  508DPPI   C1A 7915   7.459   7.344   9.956  0.0692 -0.0377 -0.0855
  508DPPI   C2A 7916   7.555   6.933   9.713  0.2333 -0.0788  0.0875
  508DPPI   C3A 7917   7.550   6.871   9.282  0.0873 -0.1348 -0.1171
  508DPPI   C4A 7918   7.650   6.813   8.897 -0.0305 -0.3932  0.3381
  508DPPI   C1B 7919   7.001   7.440   9.789 -0.1786  0.0178 -0.2393
  508DPPI   C2B 7920   7.060   7.647   9.398  0.0752 -0.2390  0.3449
  508DPPI   C3B 7921   6.961   7.643   8.946  0.1448  0.0672  0.2624
  508DPPI   C4B 7922   6.969   7.348   8.586 -0.1369  0.2156  0.3257
  509DPPI    C1 7923   6.385   1.764  10.896 -0.0985  0.0217  0.0889
  509DPPI    C2 7924   6.505   2.096  11.085 -0.1268  0.0310  0.0906
  509DPPI    C3 7925   6.245   1.848  11.261  0.1349 -0.1552  0.2222
  509DPPI   PO4 7926   6.416   1.806  10.719 -0.0029  0.2073  0.3203
  509DPPI   GL1 7927   6.328   2.009  10.297 -0.0736  0.0124 -0.2089
  509DPPI   GL2 7928   6.052   1.977  10.318 -0.0794 -0.0949  0.0098
  509DPPI   C1A 7929   6.341   1.832   9.902 -0.2287  0.0627 -0.0635
  509DPPI   C2A 7930   6.426   1.885   9.458 -0.1862 -0.0752 -0.2089
  509DPPI   C3A 7931   6.245   1.792   8.992  0.0058  0.0459 -0.2314
  509DPPI   C4A 7932   6.403   1.601   8.619 -0.1092 -0.1706  0.3145
  509DPPI   C1B 7933   5.880   1.916  10.021  0.1254 -0.0138  0.0360
  509DPPI   C2B 7934   5.909   1.792   9.582  0.1276  0.1646  0.0832
  509DPPI   C3B 7935   5.830   1.570   9.174 -0.1883 -0.1713 -0.2019
  509DPPI   C4B 7936   5.440   1.666   8.792  0.0146 -0.1358 -0.1394
  510DPPI    C1 7937  16.118   5.466  10.841 -0.0187  0.0277  0.0738
  510DPPI    C2 7938  16.343   5.463  11.173  0.2781 -0.1393 -0.1239
  510DPPI    C3 7939  16.372   5.767  10.914  0.0337 -0.0004  0.0081
  510DPPI   PO4 7940  16.039   5.222  10.783 -0.3159 -0.3625  0.2610
  510DPPI   GL1 7941  16.134   5.096  10.411  0.0358  0.0128  0.0649
  510DPPI   GL2 7942  16.488   5.086  10.243 -0.1896 -0.1626 -0.2047
  510DPPI   C1A 7943  15.903   5.108  10.049  0.0837 -0.3762 -0.0685
  510DPPI   C2A 7944  15.974   5.083   9.617 -0.0260 -0.1517 -0.0725
  510DPPI   C3A 7945  15.718   5.118   9.276  0.2739  0.2360 -0.2892
  510DPPI   C4A 7946  15.781   5.144   8.774 -0.1494 -0.2889  0.0527
  510DPPI   C1B 7947  16.620   5.086   9.854  0.0597 -0.1798 -0.0897
  510DPPI   C2B 7948  16.467   5.107   9.397 -0.2513  0.1266 -0.0519
  510DPPI   C3B 7949  16.237   4.956   9.100 -0.1293 -0.2562 -0.0176
  510DPPI   C4B 7950  16.030   4.732   8.716 -0.1333  0.2516 -0.0845
  511DPPI    C1 7951   6.875   1.531  10.926 -0.0671 -0.0455  0.0096
  511DPPI    C2 7952   6.812   1.242  11.196 -0.0816 -0.1352 -0.0894
  511DPPI    C3 7953   6.674   1.611  11.263 -0.2163 -0.1935 -0.0427
  511DPPI   PO4 7954   6.762   1.433  10.669 -0.0840  0.1682 -0.0922
  511DPPI   GL1 7955   6.880   1.139  10.299 -0.1871  0.2088  0.2080
  511DPPI   GL2 7956   7.064   1.268   9.902 -0.0321 -0.0693  0.0335
  511DPPI   C1A 7957   6.757   0.878  10.052 -0.0012 -0.2708 -0.1216
  511DPPI   C2A 7958   6.750   0.588   9.731 -0.2783 -0.0628 -0.2510
  511DPPI   C3A 7959   6.442   0.345   9.554  0.2388 -0.3855 -0.1656
  511DPPI   C4A 7960   6.316  -0.131   9.579  0.2034 -0.1582 -0.0312
  511DPPI   C1B 7961   7.025   1.206   9.457  0.1451 -0.2196  0.0616
  511DPPI   C2B 7962   7.153   1.261   9.063 -0.4801  0.0795 -0.2794
  511DPPI   C3B 7963   7.529   1.348   8.756  0.0063 -0.2302 -0.5383
  511DPPI   C4B 7964   7.488   1.425   8.289  0.1944  0.2880 -0.0243
  512DPPI    C1 7965  16.533   3.613  11.021  0.1159 -0.1819  0.0940
  512DPPI    C2 7966  16.328   3.878  11.240  0.0334 -0.1114 -0.0669
  512DPPI    C3 7967  16.620   3.662  11.409  0.0988  0.0787  0.0666
  512DPPI   PO4 7968  16.652   3.767  10.845  0.4480  0.0492  0.2098
  512DPPI   GL1 7969  16.698   3.860  10.411  0.1583  0.1812 -0.2576
  512DPPI   GL2 7970  17.014   3.864  10.291 -0.2386 -0.1274  0.1552
  512DPPI   C1A 7971  16.332   4.118  10.123  0.0554  0.3455 -0.1546
  512DPPI   C2A 7972  16.296   4.044   9.734  0.0057 -0.1938  0.1443
  512DPPI   C3A 7973  16.252   4.129   9.289 -0.0687 -0.2232 -0.2950
  512DPPI   C4A 7974  16.098   3.852   9.031  0.2762 -0.0363 -0.0723
  512DPPI   C1B 7975  17.204   3.942   9.950 -0.0050 -0.0182 -0.3269
  512DPPI   C2B 7976  17.172   3.829   9.623 -0.0333  0.1974 -0.1373
  512DPPI   C3B 7977  17.078   3.697   9.262 -0.2214 -0.4364  0.3362
  512DPPI   C4B 7978  17.019   3.688   8.772 -0.1426  0.1071  0.0044
  513PYPI    C1 7979   3.436  11.835  10.791  0.0310 -0.1655 -0.1128
  513PYPI    C2 7980   3.136  11.760  11.044 -0.0083  0.1903 -0.0485
  513PYPI    C3 7981   3.400  11.473  10.956 -0.1701 -0.0255  0.1575
  513PYPI   PO4 7982   3.281  12.117  10.714 -0.1034  0.0074 -0.2716
  513PYPI   GL1 7983   3.436  12.061  10.318 -0.0404  0.1679 -0.1137
  513PYPI   GL2 7984   3.759  12.053  10.309 -0.1636  0.1775  0.2649
  513PYPI   C1A 7985   3.500  12.416  10.066  0.0649  0.0162  0.3264
  513PYPI   C2A 7986   3.531  12.463   9.619 -0.1662 -0.0605  0.2219
  513PYPI   D3A 7987   3.366  12.434   9.239 -0.0427 -0.0104 -0.1784
  513PYPI   C4A 7988   3.373  12.551   8.804 -0.2113  0.2563 -0.0251
  513PYPI   C1B 7989   3.785  12.035   9.848  0.0811 -0.1604  0.2005
  513PYPI   C2B 7990   3.780  12.068   9.401 -0.1684 -0.1974 -0.1939
  513PYPI   C3B 7991   3.670  12.099   9.037  0.1311  0.2185 -0.3102
  513PYPI   C4B 7992   3.748  11.882   8.630  0.1229  0.2532  0.2832
  514PYPI    C1 7993  13.612  15.074  11.276  0.0602  0.1100  0.0374
  514PYPI    C2 7994  13.841  14.746  11.305 -0.0847 -0.0037 -0.0865
  514PYPI    C3 7995  13.654  14.890  11.628 -0.0846 -0.0900 -0.0479
  514PYPI   PO4 7996  13.473  14.977  11.048  0.0546  0.0984 -0.2100
  514PYPI   GL1 7997  13.367  15.190  10.692  0.0783 -0.1234  0.0365
  514PYPI   GL2 7998  13.565  15.062  10.543 -0.2395 -0.0275  0.0824
  514PYPI   C1A 7999  13.339  15.394  10.233  0.0227  0.2304  0.1155
  514PYPI   C2A 8000  13.246  15.365   9.838 -0.0043  0.2327  0.1267
  514PYPI   D3A 8001  13.223  15.411   9.379 -0.2211  0.1768 -0.1975
  514PYPI   C4A 8002  13.220  15.097   9.031  0.1721 -0.0961  0.1290
  514PYPI   C1B 8003  13.701  15.080  10.109 -0.0395  0.0128  0.0158
  514PYPI   C2B 8004  13.758  15.103   9.726  0.3202  0.0150 -0.1959
  514PYPI   C3B 8005  13.743  15.098   9.333  0.1305 -0.0310  0.0559
  514PYPI   C4B 8006  13.695  15.248   8.925  0.3993 -0.3106  0.2269
  515PYPI    C1 8007  16.744   5.473  10.799 -0.5290  0.0900  0.1423
  515PYPI    C2 8008  16.535   5.137  10.740  0.0748 -0.2671 -0.0616
  515PYPI    C3 8009  16.738   5.189  11.081  0.0899 -0.1666 -0.0854
  515PYPI   PO4 8010  16.894   5.494  10.510  0.2478  0.2473 -0.3074
  515PYPI   GL1 8011  17.018   5.557  10.129 -0.1772  0.3152  0.0882
  515PYPI   GL2 8012  16.669   5.539  10.067 -0.0921  0.3938 -0.3787
  515PYPI   C1A 8013  17.010   5.352   9.752  0.0045  0.3796  0.0918
  515PYPI   C2A 8014  16.950   5.306   9.301  0.2077  0.4789  0.2007
  515PYPI   D3A 8015  16.789   5.118   8.977  0.3177  0.0436 -0.0138
  515PYPI   C4A 8016  16.788   5.402   8.697 -0.1056  0.1449 -0.3248
  515PYPI   C1B 8017  16.237   5.450   9.836  0.1723 -0.0506  0.0133
  515PYPI   C2B 8018  16.104   5.551   9.379  0.1413  0.0393  0.0505
  515PYPI   C3B 8019  16.119   5.448   8.996  0.1480  0.0122 -0.0836
  515PYPI   C4B 8020  16.368   5.193   8.637 -0.1097 -0.0537  0.0401
  516PYPI    C1 8021  17.627  10.240  10.425 -0.1916  0.1851 -0.0906
  516PYPI    C2 8022  17.872  10.024  10.656 -0.3789 -0.0071 -0.0680
  516PYPI    C3 8023  17.878  10.423  10.675 -0.0970 -0.0109 -0.0397
  516PYPI   PO4 8024  17.646  10.198  10.154 -0.1808  0.0905 -0.1728
  516PYPI   GL1 8025  17.566  10.401   9.792 -0.1361  0.1185  0.0194
  516PYPI   GL2 8026  17.833  10.172   9.680  0.0556  0.0342 -0.0478
  516PYPI   C1A 8027  17.495  10.500   9.293 -0.1791 -0.0826 -0.0522
  516PYPI   C2A 8028  17.476  10.492   8.897  0.1054 -0.0656  0.0346
  516PYPI   D3A 8029  17.630  10.667   8.552  0.1313 -0.0106 -0.1055
  516PYPI   C4A 8030  17.744  10.382   8.317  0.0276  0.4135 -0.1128
  516PYPI   C1B 8031  17.954  10.187   9.257 -0.0765  0.0416  0.3499
  516PYPI   C2B 8032  18.007  10.347   8.883  0.1238 -0.0862  0.1602
  516PYPI   C3B 8033  18.184  10.504   8.509  0.0714  0.1734  0.0611
  516PYPI   C4B 8034  18.288  10.525   8.136 -0.1080 -0.2706  0.0533
  517PYPI    C1 8035   7.701   9.087  11.035  0.1463  0.2845 -0.0861
  517PYPI    C2 8036   7.326   9.223  11.065  0.0264 -0.0892  0.1847
  517PYPI    C3 8037   7.563   9.218  11.387  0.2415  0.0731  0.0316
  517PYPI   PO4 8038   7.739   9.174  10.746  0.2145 -0.1473 -0.1290
  517PYPI   GL1 8039   7.813   9.265  10.328  0.1207 -0.0732 -0.2751
  517PYPI   GL2 8040   8.053   9.165  10.317  0.2036 -0.1813  0.1203
  517PYPI   C1A 8041   7.672   9.519  10.052  0.1152  0.3210  0.2791
  517PYPI   C2A 8042   7.914   9.605   9.546 -0.0066  0.0922 -0.2066
  517PYPI   D3A 8043   8.101   9.840   9.103 -0.1896  0.5283 -0.3914
  517PYPI   C4A 8044   7.828   9.810   8.728 -0.1976  0.0710 -0.0994
  517PYPI   C1B 8045   7.994   9.177   9.847 -0.2311  0.2381 -0.0589
  517PYPI   C2B 8046   8.223   9.099   9.440  0.1091  0.1004 -0.0761
  517PYPI   C3B 8047   8.306   9.047   8.965  0.0904 -0.1222  0.2097
  517PYPI   C4B 8048   8.436   9.110   8.537 -0.0952 -0.0685  0.2694
  518PYPI    C1 8049   2.793   7.122  10.930 -0.0342  0.0724  0.0979
  518PYPI    C2 8050   3.186   7.057  10.894 -0.0277  0.3029 -0.3052
  518PYPI    C3 8051   3.033   7.161  11.248  0.2432  0.0271 -0.1014
  518PYPI   PO4 8052   2.699   7.296  10.772  0.0624  0.2201 -0.0319
  518PYPI   GL1 8053   2.603   7.138  10.363 -0.1400  0.2397 -0.0903
  518PYPI   GL2 8054   2.340   7.295  10.333  0.2942 -0.1061 -0.0627
  518PYPI   C1A 8055   2.562   6.939   9.976  0.0272 -0.3112  0.3454
  518PYPI   C2A 8056   2.788   7.060   9.593  0.5690  0.1262  0.1747
  518PYPI   D3A 8057   2.967   7.020   9.237  0.1054  0.0805 -0.0100
  518PYPI   C4A 8058   3.055   7.286   8.926 -0.0535  0.0130  0.0094
  518PYPI   C1B 8059   2.555   7.428   9.911 -0.4131 -0.0092 -0.1578
  518PYPI   C2B 8060   2.807   7.537   9.462  0.1017  0.5224  0.0718
  518PYPI   C3B 8061   2.909   7.883   9.249 -0.3695  0.0164 -0.1187
  518PYPI   C4B 8062   3.113   8.071   8.912 -0.0005  0.0212 -0.0551
  519PYPI    C1 8063   5.254   1.991  10.955 -0.1112  0.1172  0.0329
  519PYPI    C2 8064   5.034   2.153  11.247  0.0201  0.1415  0.1195
  519PYPI    C3 8065   4.918   1.810  11.075 -0.1847  0.2529  0.0325
  519PYPI   PO4 8066   5.217   2.169  10.740 -0.0679 -0.1777  0.0753
  519PYPI   GL1 8067   5.256   2.103  10.292  0.1130 -0.2228 -0.2528
  519PYPI   GL2 8068   5.362   1.874  10.093  0.1283 -0.2016  0.0463
  519PYPI   C1A 8069   5.181   2.446  10.019 -0.2951 -0.1562 -0.0869
  519PYPI   C2A 8070   5.221   2.648   9.522  0.0179  0.2693  0.4418
  519PYPI   D3A 8071   5.212   2.788   9.056  0.1064 -0.3650  0.1066
  519PYPI   C4A 8072   5.259   2.367   8.827  0.1213 -0.0076  0.2706
  519PYPI   C1B 8073   5.291   2.123   9.657 -0.1294  0.0974 -0.0737
  519PYPI   C2B 8074   5.340   2.043   9.229  0.1498  0.0584 -0.0668
  519PYPI   C3B 8075   5.778   2.079   9.085  0.2444 -0.0750 -0.2372
  519PYPI   C4B 8076   6.083   2.203   9.311  0.1731  0.3388  0.1081
  520PYPI    C1 8077   5.097   8.029  10.842  0.0992 -0.0294  0.0294
  520PYPI    C2 8078   4.728   7.966  10.984  0.1073  0.0852  0.1026
  520PYPI    C3 8079   5.044   7.939  11.228  0.1610 -0.1473  0.0111
  520PYPI   PO4 8080   5.105   8.277  10.672 -0.0650 -0.0406  0.1177
  520PYPI   GL1 8081   4.956   8.208  10.286  0.0313 -0.0418  0.1250
  520PYPI   GL2 8082   5.285   8.395  10.173 -0.4410  0.0415 -0.2085
  520PYPI   C1A 8083   4.893   8.453   9.957 -0.2042 -0.2436  0.3285
  520PYPI   C2A 8084   4.824   8.520   9.491  0.0059  0.0819  0.0622
  520PYPI   D3A 8085   5.000   8.735   9.157  0.0692 -0.1088  0.1850
  520PYPI   C4A 8086   5.475   8.630   9.275  0.1653 -0.1579 -0.1549
  520PYPI   C1B 8087   5.338   8.308   9.769 -0.1031 -0.0985  0.0323
  520PYPI   C2B 8088   5.603   8.132   9.410 -0.1999  0.0664 -0.3416
  520PYPI   C3B 8089   5.791   8.256   9.102 -0.2134  0.0894 -0.1851
  520PYPI   C4B 8090   5.577   8.519   8.771 -0.0171 -0.1632  0.2961
  521PYPI    C1 8091   8.313  10.184  11.060 -0.2934  0.2444 -0.1373
  521PYPI    C2 8092   8.052   9.949  11.252 -0.2273  0.0941 -0.2303
  521PYPI    C3 8093   8.315  10.167  11.460 -0.2459  0.0359 -0.1455
  521PYPI   PO4 8094   8.379  10.015  10.837  0.0066  0.1331  0.0321
  521PYPI   GL1 8095   8.212  10.139  10.449  0.0204  0.5544 -0.1877
  521PYPI   GL2 8096   8.014  10.355  10.321  0.2124  0.1592  0.1459
  521PYPI   C1A 8097   8.575  10.369  10.207 -0.2178 -0.1352 -0.0771
  521PYPI   C2A 8098   8.626  10.472   9.797  0.1869  0.1454 -0.2618
  521PYPI   D3A 8099   8.612  10.452   9.401 -0.1227 -0.2542  0.0276
  521PYPI   C4A 8100   8.422  10.727   9.027 -0.1596 -0.0327  0.0162
  521PYPI   C1B 8101   8.190  10.207   9.974  0.0116 -0.0467  0.0983
  521PYPI   C2B 8102   8.013  10.094   9.571 -0.0347 -0.0542  0.0836
  521PYPI   C3B 8103   7.618   9.915   9.217  0.1291  0.1915  0.1646
  521PYPI   C4B 8104   7.389   9.719   8.901  0.0789 -0.0358 -0.0863
  522PYPI    C1 8105   8.597   8.918  11.028  0.2321  0.0200 -0.2482
  522PYPI    C2 8106   8.245   9.009  11.195  0.4874  0.1047  0.2657
  522PYPI    C3 8107   8.339   8.627  11.122  0.1584  0.1031 -0.1909
  522PYPI   PO4 8108   8.613   9.077  10.818  0.0692 -0.1387  0.0858
  522PYPI   GL1 8109   8.524   9.136  10.344  0.0764  0.0604  0.1506
  522PYPI   GL2 8110   8.446   9.495  10.407 -0.2876 -0.0203 -0.1519
  522PYPI   C1A 8111   8.694   9.238  10.027 -0.0103 -0.3178 -0.3188
  522PYPI   C2A 8112   8.758   9.107   9.553  0.0384  0.0168 -0.1248
  522PYPI   D3A 8113   8.729   9.151   9.134 -0.0347 -0.1830 -0.0568
  522PYPI   C4A 8114   8.860   9.044   8.767 -0.0780  0.0379 -0.1102
  522PYPI   C1B 8115   8.628   9.790  10.104  0.4705  0.1202  0.1503
  522PYPI   C2B 8116   8.507   9.941   9.625  0.0739 -0.0047 -0.0872
  522PYPI   C3B 8117   8.520  10.061   9.147 -0.2363  0.2695  0.0112
  522PYPI   C4B 8118   8.391   9.987   8.730 -0.0600 -0.1312 -0.1030
  523PYPI    C1 8119   3.498   7.836  10.687 -0.0662 -0.1941  0.0775
  523PYPI    C2 8120   3.738   7.859  11.006 -0.0098 -0.1893  0.0349
  523PYPI    C3 8121   3.426   8.107  10.972  0.1049 -0.0502 -0.0140
  523PYPI   PO4 8122   3.699   7.867  10.461  0.0849  0.1780 -0.3303
  523PYPI   GL1 8123   3.614   8.113  10.025  0.0399  0.0313 -0.0992
  523PYPI   GL2 8124   3.313   8.294   9.966  0.1649  0.0883 -0.0569
  523PYPI   C1A 8125   3.964   8.383   9.744  0.1502 -0.0298  0.0228
  523PYPI   C2A 8126   3.981   8.553   9.371  0.3461  0.2090 -0.0365
  523PYPI   D3A 8127   3.978   8.632   9.056  0.0311 -0.0060 -0.0637
  523PYPI   C4A 8128   4.251   8.649   8.754 -0.1538 -0.3868 -0.0227
  523PYPI   C1B 8129   3.497   8.512   9.589  0.1814  0.2251 -0.1897
  523PYPI   C2B 8130   3.569   8.873   9.296  0.0850  0.0089 -0.1752
  523PYPI   C3B 8131   3.579   8.884   8.810 -0.0753 -0.0164  0.0689
  523PYPI   C4B 8132   3.397   9.218   8.615 -0.3391 -0.3152  0.3337
  524PYPI    C1 8133   7.906  15.841  10.950  0.2313 -0.0568  0.0504
  524PYPI    C2 8134   8.130  16.172  10.956  0.2709 -0.0808 -0.0754
  524PYPI    C3 8135   8.045  15.983  11.297  0.1813  0.1031  0.0058
  524PYPI   PO4 8136   7.723  15.869  10.789 -0.2058 -0.0519 -0.1363
  524PYPI   GL1 8137   7.743  16.059  10.367  0.1460 -0.1353  0.1004
  524PYPI   GL2 8138   7.759  15.664  10.344  0.2188 -0.0171  0.2136
  524PYPI   C1A 8139   7.624  15.996   9.872 -0.1065  0.0381  0.0846
  524PYPI   C2A 8140   7.767  15.809   9.513  0.3224  0.1952  0.0282
  524PYPI   D3A 8141   7.705  15.769   9.149  0.4583  0.3375  0.3061
  524PYPI   C4A 8142   7.776  16.095   8.983  0.0656 -0.3433  0.2224
  524PYPI   C1B 8143   8.064  15.833   9.938 -0.3038  0.1431 -0.3758
  524PYPI   C2B 8144   8.404  15.727   9.728 -0.2336  0.1947  0.0432
  524PYPI   C3B 8145   8.457  15.527   9.274 -0.3122  0.0403 -0.0247
  524PYPI   C4B 8146   8.423  15.295   8.873 -0.1437 -0.0335  0.2618
  525PYPI    C1 8147  10.243   3.693  10.429 -0.3209  0.5251  0.2198
  525PYPI    C2 8148  10.042   3.627  10.768 -0.2234 -0.3128  0.1360
  525PYPI    C3 8149  10.427   3.736  10.782 -0.3017 -0.0459  0.2890
  525PYPI   PO4 8150  10.301   3.428  10.309 -0.0372  0.0923  0.1769
  525PYPI   GL1 8151  10.180   3.390   9.969 -0.2373 -0.0743  0.3915
  525PYPI   GL2 8152  10.031   3.354   9.752 -0.2386 -0.3183  0.0646
  525PYPI   C1A 8153  10.463   3.309   9.604  0.2568  0.0930  0.2399
  525PYPI   C2A 8154  10.433   3.171   9.213  0.1897  0.1119 -0.1522
  525PYPI   D3A 8155  10.487   3.283   8.815  0.0650 -0.2001  0.0392
  525PYPI   C4A 8156  10.778   3.286   8.353 -0.0051 -0.0242  0.3366
  525PYPI   C1B 8157  10.068   3.615   9.471 -0.2464 -0.0317  0.2654
  525PYPI   C2B 8158  10.178   3.614   9.009 -0.1428  0.1664  0.3384
  525PYPI   C3B 8159  10.283   3.859   8.583 -0.0072 -0.1041  0.0725
  525PYPI   C4B 8160  10.326   4.087   8.272 -0.0209  0.0821  0.0328
  526PYPI    C1 8161  10.896  12.342  11.076 -0.1131  0.0258  0.0028
  526PYPI    C2 8162  10.992  12.528  11.417 -0.2422  0.0784  0.0109
  526PYPI    C3 8163  10.691  12.265  11.411 -0.2596  0.0998 -0.0691
  526PYPI   PO4 8164  10.870  12.381  10.900 -0.0265  0.1276 -0.0869
  526PYPI   GL1 8165  10.885  12.330  10.529  0.0867  0.1335 -0.0646
  526PYPI   GL2 8166  10.693  12.549  10.348 -0.0697  0.0673  0.1557
  526PYPI   C1A 8167  11.117  12.466  10.140  0.1585  0.2600 -0.0219
  526PYPI   C2A 8168  11.053  12.388   9.684 -0.2841  0.0037  0.1149
  526PYPI   D3A 8169  10.841  12.593   9.257  0.2788 -0.3850 -0.3113
  526PYPI   C4A 8170  10.864  12.864   8.860  0.1796  0.0958  0.0483
  526PYPI   C1B 8171  10.572  12.525   9.828  0.1129  0.0948 -0.0553
  526PYPI   C2B 8172  10.360  12.538   9.426 -0.0900  0.2538 -0.0041
  526PYPI   C3B 8173  10.347  12.569   9.029  0.0213 -0.0958 -0.1884
  526PYPI   C4B 8174  10.458  12.619   8.626 -0.1988 -0.0364  0.2226
  527PYPI    C1 8175   2.884   8.242  10.729  0.3592  0.1018 -0.0563
  527PYPI    C2 8176   2.946   7.860  10.831  0.1956  0.0439 -0.1698
  527PYPI    C3 8177   2.888   8.135  11.115  0.0831 -0.0565 -0.0946
  527PYPI   PO4 8178   2.913   8.281  10.416  0.0587 -0.4738  0.4558
  527PYPI   GL1 8179   2.739   8.104  10.054 -0.2856 -0.0387  0.1932
  527PYPI   GL2 8180   2.801   8.439   9.856  0.1041 -0.0895  0.1491
  527PYPI   C1A 8181   2.614   7.939   9.639 -0.1977 -0.2142 -0.2015
  527PYPI   C2A 8182   2.437   7.874   9.208  0.1638  0.2966 -0.0672
  527PYPI   D3A 8183   2.234   7.815   8.857  0.0105  0.0976 -0.0812
  527PYPI   C4A 8184   1.934   7.560   8.984 -0.3456 -0.2461  0.1706
  527PYPI   C1B 8185   3.028   8.258   9.594  0.2331 -0.1620 -0.0342
  527PYPI   C2B 8186   3.155   8.483   9.188 -0.0569  0.1943  0.0129
  527PYPI   C3B 8187   3.473   8.439   8.886  0.0019  0.1792  0.0844
  527PYPI   C4B 8188   3.836   8.393   8.589 -0.0846 -0.2617  0.0213
  528PYPI    C1 8189   1.409   5.125  10.553  0.0851  0.1855 -0.2029
  528PYPI    C2 8190   1.616   5.099  10.894 -0.0821  0.2662 -0.0941
  528PYPI    C3 8191   1.630   4.800  10.629  0.0636  0.2115 -0.0257
  528PYPI   PO4 8192   1.470   5.257  10.442 -0.2715 -0.0850  0.1988
  528PYPI   GL1 8193   1.408   5.480  10.072 -0.2666  0.2639  0.1335
  528PYPI   GL2 8194   1.158   5.551   9.808 -0.2838 -0.0454 -0.1033
  528PYPI   C1A 8195   1.662   5.339   9.686  0.1798 -0.0543 -0.0892
  528PYPI   C2A 8196   1.559   5.018   9.367 -0.0848  0.1014 -0.0978
  528PYPI   D3A 8197   1.668   4.891   8.956 -0.2775  0.2420 -0.0626
  528PYPI   C4A 8198   1.853   4.562   8.799  0.0470  0.0679 -0.1370
  528PYPI   C1B 8199   1.093   5.334   9.470  0.2248 -0.1720 -0.0308
  528PYPI   C2B 8200   1.216   5.303   8.959  0.0078  0.2302  0.0437
  528PYPI   C3B 8201   1.240   5.165   8.528  0.0427  0.1915 -0.1292
  528PYPI   C4B 8202   1.240   4.859   8.195  0.2198  0.0897 -0.0404
  529PYPI    C1 8203   2.818   6.425  10.864  0.1412 -0.1010 -0.1605
  529PYPI    C2 8204   3.074   6.462  11.169 -0.2745  0.1273  0.1707
  529PYPI    C3 8205   2.748   6.693  11.152 -0.4009 -0.0745 -0.3068
  529PYPI   PO4 8206   3.000   6.326  10.668  0.2128  0.0974  0.2896
  529PYPI   GL1 8207   3.283   6.405  10.267  0.0203 -0.1453  0.3512
  529PYPI   GL2 8208   3.727   6.620  10.154  0.0201 -0.0166 -0.2131
  529PYPI   C1A 8209   3.194   6.632   9.890  0.0437  0.1007  0.2072
  529PYPI   C2A 8210   3.080   6.611   9.499  0.0672 -0.1675 -0.0805
  529PYPI   D3A 8211   3.130   6.420   9.112 -0.1319 -0.0908  0.0597
  529PYPI   C4A 8212   3.151   6.258   8.706 -0.1023 -0.0013  0.1795
  529PYPI   C1B 8213   3.644   6.734   9.695 -0.2632  0.0813 -0.1105
  529PYPI   C2B 8214   3.471   6.774   9.209 -0.1177  0.0238  0.1069
  529PYPI   C3B 8215   3.629   6.529   8.851 -0.0941 -0.0419 -0.0215
  529PYPI   C4B 8216   3.803   6.126   8.574  0.1526 -0.1993  0.1793
  530PYPI    C1 8217   6.837   5.938  10.788  0.2152  0.2161 -0.0771
  530PYPI    C2 8218   7.072   5.992  11.107  0.4072 -0.1671 -0.1482
  530PYPI    C3 8219   7.062   5.637  10.923 -0.0794 -0.0979 -0.2699
  530PYPI   PO4 8220   6.643   6.064  10.813 -0.0416 -0.0230 -0.1180
  530PYPI   GL1 8221   6.405   6.096  10.326 -0.2170  0.0765 -0.0069
  530PYPI   GL2 8222   6.696   5.862  10.189  0.1246 -0.1688 -0.2309
  530PYPI   C1A 8223   6.372   6.242   9.946  0.2563  0.1179  0.0569
  530PYPI   C2A 8224   6.399   6.235   9.530 -0.0364  0.1351  0.2821
  530PYPI   D3A 8225   6.376   6.280   9.177  0.1165  0.1572 -0.1279
  530PYPI   C4A 8226   6.338   6.706   9.146 -0.2124 -0.2753  0.2594
  530PYPI   C1B 8227   6.576   5.798   9.731 -0.3257  0.0972 -0.0341
  530PYPI   C2B 8228   6.520   5.822   9.324  0.2855 -0.4126 -0.1789
  530PYPI   C3B 8229   6.321   5.726   9.068 -0.2237  0.0629  0.1335
  530PYPI   C4B 8230   6.217   5.792   8.690 -0.3724  0.3841  0.0387
  531PYPI    C1 8231  11.306  15.227  10.873 -0.2274 -0.0450 -0.0527
  531PYPI    C2 8232  11.194  15.470  11.171  0.0206  0.0151 -0.0055
  531PYPI    C3 8233  11.547  15.283  11.188  0.0200 -0.0113 -0.2447
  531PYPI   PO4 8234  11.294  15.415  10.678  0.0337 -0.0944 -0.0564
  531PYPI   GL1 8235  11.496  15.518  10.380  0.1686 -0.0901 -0.0039
  531PYPI   GL2 8236  11.646  15.318  10.318  0.0147  0.1360 -0.0731
  531PYPI   C1A 8237  11.564  15.793  10.070  0.1688  0.0451 -0.1655
  531PYPI   C2A 8238  11.341  15.900   9.712 -0.4815 -0.1412  0.0965
  531PYPI   D3A 8239  11.562  15.943   9.275  0.2063  0.5060 -0.0783
  531PYPI   C4A 8240  11.665  16.098   8.844  0.0772 -0.1004 -0.1139
  531PYPI   C1B 8241  11.444  15.199   9.926 -0.1472 -0.2925 -0.2414
  531PYPI   C2B 8242  11.284  15.387   9.557  0.1088  0.2015 -0.1794
  531PYPI   C3B 8243  11.127  15.684   9.189 -0.1011  0.0663 -0.2792
  531PYPI   C4B 8244  11.214  15.856   8.934  0.0908 -0.2355  0.0497
  532PYPI    C1 8245  16.691   2.105  11.416  0.0868  0.0540  0.3292
  532PYPI    C2 8246  16.455   1.853  11.618 -0.0505 -0.1884 -0.1191
  532PYPI    C3 8247  16.387   2.246  11.635 -0.1413 -0.2144  0.1932
  532PYPI   PO4 8248  16.662   1.931  11.113 -0.1597 -0.3896 -0.3076
  532PYPI   GL1 8249  16.853   2.161  10.724 -0.1291 -0.4012  0.0102
  532PYPI   GL2 8250  16.898   2.478  10.508  0.0614  0.0301 -0.2130
  532PYPI   C1A 8251  16.731   2.149  10.170  0.0856 -0.1322  0.1636
  532PYPI   C2A 8252  16.511   2.232   9.844  0.0835  0.1782 -0.2214
  532PYPI   D3A 8253  16.676   2.588   9.532  0.2119 -0.0529  0.1517
  532PYPI   C4A 8254  16.745   2.375   9.091  0.1530  0.2228 -0.0051
  532PYPI   C1B 8255  17.060   2.531  10.021  0.1105  0.0707  0.2331
  532PYPI   C2B 8256  17.112   2.383   9.463  0.0228  0.3673  0.1593
  532PYPI   C3B 8257  17.254   2.139   9.105 -0.1140 -0.0007 -0.1993
  532PYPI   C4B 8258  17.564   2.210   8.927  0.0537  0.1427  0.1455
  533PYPI    C1 8259  11.405  11.395  10.910  0.0425  0.1085 -0.1414
  533PYPI    C2 8260  11.490  11.331  11.295 -0.0397  0.0234 -0.1372
  533PYPI    C3 8261  11.181  11.143  11.125  0.0359  0.0110 -0.2616
  533PYPI   PO4 8262  11.468  11.615  10.873 -0.0131  0.0199 -0.0445
  533PYPI   GL1 8263  11.512  11.923  10.461  0.1676 -0.1593  0.2890
  533PYPI   GL2 8264  11.373  12.070  10.291  0.0652  0.2757 -0.0407
  533PYPI   C1A 8265  11.586  11.589  10.122 -0.1530 -0.1183 -0.2785
  533PYPI   C2A 8266  11.535  11.542   9.681 -0.0406 -0.1067 -0.0156
  533PYPI   D3A 8267  11.459  11.651   9.237  0.0837 -0.0558  0.0703
  533PYPI   C4A 8268  11.535  11.869   8.843  0.3029 -0.0252  0.1138
  533PYPI   C1B 8269  11.252  11.974   9.926  0.2043  0.0781  0.0456
  533PYPI   C2B 8270  11.291  12.021   9.526  0.0829 -0.1624  0.1043
  533PYPI   C3B 8271  11.204  12.080   9.128 -0.0187 -0.1413 -0.1974
  533PYPI   C4B 8272  11.093  12.375   8.901 -0.2410 -0.0587 -0.2389
  534PYPI    C1 8273  12.754   1.291  11.095  0.2353 -0.1590 -0.0549
  534PYPI    C2 8274  12.980   1.473  11.370 -0.0538 -0.0192  0.0948
  534PYPI    C3 8275  12.688   1.675  11.186 -0.1073 -0.2180 -0.0417
  534PYPI   PO4 8276  12.890   1.269  10.905 -0.4140  0.1787 -0.1998
  534PYPI   GL1 8277  13.014   1.370  10.454 -0.0915 -0.2864  0.2913
  534PYPI   GL2 8278  13.277   1.215  10.276 -0.0322  0.0171  0.3549
  534PYPI   C1A 8279  12.764   1.389  10.088 -0.1793  0.1704 -0.1703
  534PYPI   C2A 8280  12.723   1.293   9.655 -0.1490  0.0093 -0.5234
  534PYPI   D3A 8281  12.707   1.519   9.367  0.0137  0.0823 -0.3736
  534PYPI   C4A 8282  12.917   1.572   8.992  0.0812 -0.2083 -0.0435
  534PYPI   C1B 8283  13.259   1.264   9.824 -0.0903 -0.4176  0.3247
  534PYPI   C2B 8284  13.156   1.292   9.405  0.3579  0.2701  0.1218
  534PYPI   C3B 8285  13.371   1.310   9.018  0.1023 -0.1617  0.0201
  534PYPI   C4B 8286  13.678   1.135   8.769 -0.0495  0.1396  0.0764
  535PYPI    C1 8287   6.890   0.735  11.042  0.0840  0.2051 -0.0288
  535PYPI    C2 8288   6.597   0.713  11.313  0.2042 -0.2113  0.0747
  535PYPI    C3 8289   6.975   0.773  11.431  0.2028  0.0281 -0.0363
  535PYPI   PO4 8290   6.770   0.952  10.803  0.1744  0.0427 -0.0241
  535PYPI   GL1 8291   6.469   0.879  10.449  0.1267  0.0597  0.2946
  535PYPI   GL2 8292   6.567   0.573  10.534  0.0246 -0.0487 -0.0440
  535PYPI   C1A 8293   6.316   1.062  10.131 -0.1323 -0.4334 -0.0418
  535PYPI   C2A 8294   5.874   1.006  10.068 -0.3451  0.3047 -0.1165
  535PYPI   D3A 8295   5.701   1.180   9.687  0.0425  0.1919  0.0240
  535PYPI   C4A 8296   5.483   1.573   9.538 -0.0221  0.0457  0.2484
  535PYPI   C1B 8297   6.662   0.379  10.229 -0.4024 -0.2271  0.0967
  535PYPI   C2B 8298   6.781   0.087   9.836 -0.1516 -0.1276  0.0635
  535PYPI   C3B 8299   6.802  -0.076   9.450 -0.0926 -0.1001 -0.0883
  535PYPI   C4B 8300   6.752  -0.337   9.029  0.3631 -0.1273 -0.4278
  536PYPI    C1 8301   7.960   3.999  10.598 -0.0314  0.1356 -0.3283
  536PYPI    C2 8302   8.341   4.106  10.540 -0.0480  0.1705 -0.3739
  536PYPI    C3 8303   8.256   3.748  10.696  0.0097  0.2456 -0.1663
  536PYPI   PO4 8304   7.847   3.982  10.395  0.0022 -0.1866  0.0865
  536PYPI   GL1 8305   7.636   4.111   9.944  0.0916  0.1315  0.0264
  536PYPI   GL2 8306   7.719   4.036   9.581  0.2788  0.0251  0.0119
  536PYPI   C1A 8307   7.359   3.812   9.715  0.2436 -0.3054  0.0857
  536PYPI   C2A 8308   7.152   3.524   9.534 -0.0592  0.0842 -0.1280
  536PYPI   D3A 8309   6.783   3.190   9.668 -0.2229 -0.1488 -0.0387
  536PYPI   C4A 8310   6.429   3.058   9.517 -0.2413 -0.0500 -0.2636
  536PYPI   C1B 8311   7.820   4.316   9.268 -0.1206 -0.1591  0.1831
  536PYPI   C2B 8312   7.959   4.494   8.892  0.1827  0.0393 -0.0276
  536PYPI   C3B 8313   8.084   4.710   8.592 -0.1529  0.2246 -0.2258
  536PYPI   C4B 8314   8.266   4.764   8.240 -0.4465  0.2211  0.0570
  537PYPI    C1 8315   2.124  15.103  10.650 -0.2913 -0.0760 -0.1717
  537PYPI    C2 8316   2.158  14.761  10.445  0.2139 -0.0289 -0.1790
  537PYPI    C3 8317   2.254  14.772  10.833 -0.2672 -0.0022 -0.0547
  537PYPI   PO4 8318   2.350  15.250  10.518 -0.0367  0.2639 -0.2084
  537PYPI   GL1 8319   2.710  15.230  10.325  0.3800  0.3113 -0.1754
  537PYPI   GL2 8320   2.585  14.937  10.268  0.1111 -0.3247 -0.0960
  537PYPI   C1A 8321   2.665  15.352   9.924 -0.1552 -0.0836  0.1834
  537PYPI   C2A 8322   2.496  15.498   9.609 -0.0513  0.0688 -0.0327
  537PYPI   D3A 8323   2.388  15.667   9.279 -0.0157  0.1628  0.0191
  537PYPI   C4A 8324   2.436  15.588   8.938 -0.0329  0.2314 -0.0706
  537PYPI   C1B 8325   2.741  14.904   9.755  0.2081 -0.0222 -0.0306
  537PYPI   C2B 8326   2.880  15.154   9.508  0.0744  0.1186  0.2339
  537PYPI   C3B 8327   2.755  15.187   9.131  0.1568  0.0761  0.0785
  537PYPI   C4B 8328   2.607  15.088   8.755 -0.0422 -0.1518  0.2841
  538PYPI    C1 8329  11.771  13.806  11.065 -0.1351  0.1464 -0.1908
  538PYPI    C2 8330  11.656  14.151  11.232  0.0518  0.1528 -0.0725
  538PYPI    C3 8331  12.037  14.033  11.259  0.0355  0.0425 -0.3008
  538PYPI   PO4 8332  11.663  13.839  10.839 -0.2329 -0.1390  0.0428
  538PYPI   GL1 8333  11.324  13.697  10.544  0.1252  0.2023  0.1714
  538PYPI   GL2 8334  11.632  13.577  10.405  0.0013  0.0044  0.3080
  538PYPI   C1A 8335  11.230  13.437  10.166 -0.1469  0.2975  0.2045
  538PYPI   C2A 8336  11.189  13.426   9.739 -0.0390 -0.0417 -0.3035
  538PYPI   D3A 8337  11.228  13.561   9.426 -0.1520  0.1735 -0.0722
  538PYPI   C4A 8338  11.226  13.917   9.439  0.1558  0.1131  0.0689
  538PYPI   C1B 8339  11.985  13.464  10.033 -0.1094  0.2523  0.1358
  538PYPI   C2B 8340  12.087  13.429   9.647  0.0920 -0.0198  0.3370
  538PYPI   C3B 8341  11.956  13.372   9.246  0.0249  0.2129 -0.1041
  538PYPI   C4B 8342  12.151  13.201   8.877 -0.0888  0.1170 -0.0402
  539PYPI    C1 8343   7.232  16.170  10.983 -0.0574  0.1952 -0.2136
  539PYPI    C2 8344   7.549  16.063  11.201 -0.2856 -0.1799 -0.0558
  539PYPI    C3 8345   7.349  16.398  11.290 -0.0585 -0.0491 -0.0285
  539PYPI   PO4 8346   7.283  16.124  10.657 -0.0814  0.0757 -0.0813
  539PYPI   GL1 8347   7.364  16.342  10.252  0.0798  0.2761 -0.3058
  539PYPI   GL2 8348   6.937  16.356  10.206 -0.2645 -0.0912  0.1496
  539PYPI   C1A 8349   7.456  16.460   9.865  0.1747 -0.3042  0.0271
  539PYPI   C2A 8350   7.456  16.306   9.426  0.0537 -0.1575 -0.0935
  539PYPI   D3A 8351   7.504  16.503   9.127 -0.3104 -0.0988  0.3205
  539PYPI   C4A 8352   7.499  16.377   8.751  0.0066  0.0507  0.1347
  539PYPI   C1B 8353   7.100  16.126   9.842 -0.1424  0.0796 -0.1143
  539PYPI   C2B 8354   7.214  15.843   9.520  0.0539 -0.0779  0.0705
  539PYPI   C3B 8355   7.332  15.478   9.350 -0.1856 -0.1796  0.0810
  539PYPI   C4B 8356   7.407  15.397   9.010 -0.1241 -0.0328  0.2295
  540ERGO   ROH 8357   6.857  14.768  10.463  0.0605 -0.1427  0.0876
  540ERGO    R1 8358   6.968  14.611  10.255  0.1202  0.0338 -0.0173
  540ERGO    R2 8359   6.817  14.514  10.045  0.0886 -0.1380  0.0805
  540ERGO    R3 8360   7.007  14.638   9.894 -0.1839  0.1420 -0.0446
  540ERGO    R4 8361   6.914  14.415   9.728  0.1902 -0.1399  0.1119
  540ERGO    R5 8362   7.120  14.458   9.783  0.1297  0.2878  0.0297
  540ERGO    C1 8363   7.148  14.472   9.403 -0.0063  0.1219  0.0128
  540ERGO    C2 8364   7.227  14.548   9.097  0.2270  0.1114  0.1809
  541ERGO   ROH 8365  16.886   3.388  10.155  0.0653  0.1703  0.0372
  541ERGO    R1 8366  16.715   3.459   9.941  0.0757  0.2717  0.0621
  541ERGO    R2 8367  16.738   3.698   9.804  0.3526  0.1592 -0.0953
  541ERGO    R3 8368  16.752   3.535   9.587  0.0444 -0.0002 -0.0023
  541ERGO    R4 8369  16.634   3.783   9.486  0.2511  0.0636 -0.0890
  541ERGO    R5 8370  16.553   3.583   9.463  0.0186  0.1344  0.0892
  541ERGO    C1 8371  16.587   3.680   9.096 -0.0972 -0.1418  0.0020
  541ERGO    C2 8372  16.478   3.861   8.717  0.3068  0.1145  0.1578
  542ERGO   ROH 8373  12.263  11.054  10.415  0.3560 -0.2034 -0.1347
  542ERGO    R1 8374  12.394  11.195  10.207  0.1951 -0.1869 -0.2255
  542ERGO    R2 8375  12.518  11.067   9.995 -0.0163 -0.1671 -0.3597
  542ERGO    R3 8376  12.357  11.228   9.847 -0.1198 -0.1102 -0.1900
  542ERGO    R4 8377  12.550  11.120   9.655 -0.1577  0.0657 -0.3398
  542ERGO    R5 8378  12.504  11.330   9.688 -0.2044  0.0362 -0.1811
  542ERGO    C1 8379  12.418  11.301   9.318 -0.3373  0.2547 -0.1692
  542ERGO    C2 8380  12.312  11.223   9.027  0.1244 -0.2328 -0.2683
  543ERGO   ROH 8381   1.705  15.515   9.998  0.2336  0.0405  0.0035
  543ERGO    R1 8382   1.872  15.478   9.773  0.0570 -0.0105 -0.1201
  543ERGO    R2 8383   1.795  15.332   9.552 -0.1578  0.0344 -0.0672
  543ERGO    R3 8384   1.861  15.560   9.419 -0.1640  0.0125 -0.1111
  543ERGO    R4 8385   1.789  15.368   9.208 -0.2134 -0.0257 -0.0740
  543ERGO    R5 8386   1.974  15.482   9.222 -0.1978 -0.0319 -0.1197
  543ERGO    C1 8387   1.847  15.602   8.883 -0.2517 -0.0811 -0.1191
  543ERGO    C2 8388   1.898  15.720   8.519  0.2423 -0.2033 -0.0738
  544ERGO   ROH 8389  12.635   1.071  10.490 -0.0366 -0.1668  0.0278
  544ERGO    R1 8390  12.817   0.948  10.311 -0.1388 -0.2476 -0.0212
  544ERGO    R2 8391  12.736   0.768  10.117 -0.3156  0.0329 -0.2138
  544ERGO    R3 8392  12.868   0.938   9.951 -0.0313  0.0133 -0.0157
  544ERGO    R4 8393  12.832   0.693   9.794 -0.1817  0.1487 -0.2017
  544ERGO    R5 8394  13.020   0.798   9.830 -0.0945 -0.0646 -0.0080
  544ERGO    C1 8395  13.012   0.810   9.449  0.1633  0.1977 -0.0085
  544ERGO    C2 8396  12.928   0.960   9.100  0.2263  0.0363 -0.0326
  545ERGO   ROH 8397   0.507  11.203   9.828 -0.1148  0.1222 -0.0343
  545ERGO    R1 8398   0.525  11.129   9.556 -0.1634  0.0998 -0.0325
  545ERGO    R2 8399   0.331  11.196   9.371 -0.2064  0.0747 -0.0051
  545ERGO    R3 8400   0.542  11.301   9.236 -0.2354  0.0765 -0.0470
  545ERGO    R4 8401   0.334  11.265   9.032 -0.2590  0.0664 -0.0066
  545ERGO    R5 8402   0.538  11.190   9.024 -0.2641  0.0753 -0.0406
  545ERGO    C1 8403   0.534  11.404   8.708 -0.3169  0.0631 -0.0469
  545ERGO    C2 8404   0.618  11.655   8.423  0.1948  0.0305  0.0238
  546ERGO   ROH 8405   5.993   5.168  10.066 -0.0557  0.1300 -0.1758
  546ERGO    R1 8406   6.133   5.006   9.880 -0.0429  0.1022 -0.1417
  546ERGO    R2 8407   6.014   4.903   9.654 -0.0313  0.0550 -0.1251
  546ERGO    R3 8408   6.222   5.025   9.528 -0.0329  0.0406 -0.1428
  546ERGO    R4 8409   6.116   4.837   9.330  0.0124 -0.0396 -0.0927
  546ERGO    R5 8410   6.323   4.851   9.397  0.0038  0.0092 -0.0744
  546ERGO    C1 8411   6.370   4.913   9.023  0.0361 -0.1083 -0.0904
  546ERGO    C2 8412   6.425   4.999   8.617 -0.1528  0.0736 -0.2641
  547ERGO   ROH 8413   1.281   5.016   6.089 -0.0431  0.1580  0.1380
  547ERGO    R1 8414   1.284   4.906   6.350  0.2407  0.1028  0.1148
  547ERGO    R2 8415   1.495   4.941   6.525  0.1942  0.5483  0.0947
  547ERGO    R3 8416   1.300   5.032   6.691 -0.0044  0.0759  0.1381
  547ERGO    R4 8417   1.526   4.972   6.867  0.0251  0.2197  0.1438
  547ERGO    R5 8418   1.322   4.898   6.888  0.1258 -0.1107 -0.0019
  547ERGO    C1 8419   1.361   5.076   7.223 -0.2598 -0.4151  0.2133
  547ERGO    C2 8420   1.360   5.108   7.619  0.0259  0.0665 -0.0034
  548ERGO   ROH 8421   3.094   2.967  10.318  0.1505 -0.3366  0.0614
  548ERGO    R1 8422   3.168   2.934  10.047  0.0596 -0.3967  0.0427
  548ERGO    R2 8423   3.064   2.733   9.887 -0.4365 -0.0943 -0.0438
  548ERGO    R3 8424   2.999   2.941   9.724  0.0436  0.1456  0.0543
  548ERGO    R4 8425   3.078   2.728   9.542 -0.5025  0.0245 -0.0483
  548ERGO    R5 8426   3.157   2.930   9.546 -0.0050 -0.1620  0.0291
  548ERGO    C1 8427   3.024   2.919   9.188 -0.0901  0.3189  0.0411
  548ERGO    C2 8428   2.803   2.868   8.833 -0.0746 -0.0638  0.1859
  549ERGO   ROH 8429  16.061   3.935   6.445  0.0118  0.0188 -0.1695
  549ERGO    R1 8430  16.004   4.005   6.714 -0.0323  0.0600 -0.1891
  549ERGO    R2 8431  15.885   3.830   6.891  0.0124  0.0576 -0.1574
  549ERGO    R3 8432  16.102   3.887   7.044 -0.0164  0.1659 -0.1568
  549ERGO    R4 8433  15.903   3.781   7.233  0.0233  0.1239 -0.1485
  549ERGO    R5 8434  16.010   3.971   7.249 -0.0521  0.1640 -0.1754
  549ERGO    C1 8435  16.118   3.806   7.575  0.0025  0.2641 -0.1427
  549ERGO    C2 8436  16.109   3.731   7.932 -0.1221 -0.0783  0.3880
  550ERGO   ROH 8437   1.000  11.356   5.904 -0.1046  0.0838 -0.0842
  550ERGO    R1 8438   1.093  11.487   6.137 -0.0679  0.0054 -0.0541
  550ERGO    R2 8439   0.935  11.659   6.285 -0.0087  0.0451 -0.0353
  550ERGO    R3 8440   1.003  11.495   6.490 -0.0910 -0.0198 -0.0596
  550ERGO    R4 8441   0.895  11.734   6.620  0.1732  0.0804 -0.0211
  550ERGO    R5 8442   1.089  11.641   6.658  0.1020 -0.0988 -0.0871
  550ERGO    C1 8443   0.937  11.622   7.008  0.2018  0.0402 -0.0356
  550ERGO    C2 8444   0.960  11.537   7.306 -0.1645  0.0489 -0.0642
  551ERGO   ROH 8445  10.703   7.468   5.933 -0.1814  0.1280  0.0776
  551ERGO    R1 8446  10.705   7.584   6.191 -0.2169  0.0753  0.1019
  551ERGO    R2 8447  10.535   7.501   6.392 -0.1574 -0.0536  0.1013
  551ERGO    R3 8448  10.766   7.470   6.532 -0.1281  0.0345  0.0722
  551ERGO    R4 8449  10.555   7.464   6.735 -0.1032 -0.0997  0.0930
  551ERGO    R5 8450  10.731   7.593   6.734 -0.1657 -0.0157  0.0957
  551ERGO    C1 8451  10.785   7.413   7.066 -0.0439 -0.0438  0.0609
  551ERGO    C2 8452  10.906   7.417   7.450  0.0658 -0.0362  0.0883
  552ERGO   ROH 8453   3.456  17.868   6.301 -0.2497  0.0912 -0.1500
  552ERGO    R1 8454   3.475  17.779   6.569 -0.0391  0.0801 -0.1672
  552ERGO    R2 8455   3.317  17.881   6.771 -0.0041 -0.0546 -0.0747
  552ERGO    R3 8456   3.254  17.619   6.810  0.2082 -0.1048 -0.0577
  552ERGO    R4 8457   3.206  17.748   7.070 -0.0203 -0.0897 -0.0962
  552ERGO    R5 8458   3.332  17.573   7.032  0.1543  0.0080 -0.0108
  552ERGO    C1 8459   3.084  17.424   7.281  0.1696 -0.1575 -0.0927
  552ERGO    C2 8460   3.126  17.539   7.606  0.2321 -0.0594 -0.1022
  553ERGO   ROH 8461  16.617   1.676  10.332  0.1573  0.1416 -0.2619
  553ERGO    R1 8462  16.684   1.526  10.102  0.1199  0.0291 -0.2007
  553ERGO    R2 8463  16.508   1.349   9.983  0.0884 -0.0069 -0.1066
  553ERGO    R3 8464  16.562   1.496   9.760  0.0854 -0.1113 -0.1763
  553ERGO    R4 8465  16.582   1.217   9.672 -0.0649 -0.1511 -0.0828
  553ERGO    R5 8466  16.733   1.373   9.647 -0.0046 -0.2269 -0.1855
  553ERGO    C1 8467  16.675   1.278   9.282 -0.1572 -0.3331 -0.1343
  553ERGO    C2 8468  16.705   1.069   9.046 -0.1689  0.0396 -0.0632
  554ERGO   ROH 8469  13.492   6.590   6.041  0.1656  0.2307  0.0209
  554ERGO    R1 8470  13.489   6.522   6.316 -0.2235  0.2589  0.0304
  554ERGO    R2 8471  13.706   6.565   6.482 -0.1854 -0.3697  0.1722
  554ERGO    R3 8472  13.524   6.699   6.632  0.0945  0.2039  0.0280
  554ERGO    R4 8473  13.710   6.583   6.827 -0.2758 -0.1665  0.1641
  554ERGO    R5 8474  13.493   6.561   6.826 -0.3424  0.3960  0.1040
  554ERGO    C1 8475  13.542   6.719   7.169 -0.0654  0.4903  0.0239
  554ERGO    C2 8476  13.537   6.572   7.437 -0.4810  0.2587  0.3433
  555ERGO   ROH 8477  11.865   0.336  10.034 -0.1470  0.1176  0.1753
  555ERGO    R1 8478  11.991   0.437   9.801 -0.2239  0.3449  0.2298
  555ERGO    R2 8479  12.085   0.274   9.599  0.3904  0.4814  0.3832
  555ERGO    R3 8480  11.928   0.431   9.443  0.0764 -0.0105  0.1780
  555ERGO    R4 8481  12.133   0.325   9.261  0.4766  0.3871  0.3806
  555ERGO    R5 8482  12.082   0.535   9.291 -0.0837  0.2895  0.2153
  555ERGO    C1 8483  12.014   0.503   8.917  0.2321 -0.1296  0.1866
  555ERGO    C2 8484  11.934   0.339   8.678 -0.1410  0.4676 -0.2616
  556ERGO   ROH 8485   7.098  10.680   6.438  0.1234 -0.0831 -0.0663
  556ERGO    R1 8486   6.981  10.575   6.674  0.0535 -0.1156 -0.1142
  556ERGO    R2 8487   6.839  10.732   6.852  0.1984 -0.0899 -0.0155
  556ERGO    R3 8488   6.646  10.545   6.812  0.0365  0.0931 -0.1082
  556ERGO    R4 8489   6.613  10.628   7.091  0.1798 -0.0982 -0.0370
  556ERGO    R5 8490   6.637  10.424   7.019 -0.0036 -0.0616 -0.2014
  556ERGO    C1 8491   6.300  10.391   7.194  0.0170  0.0688 -0.1364
  556ERGO    C2 8492   6.273  10.406   7.614  0.0000 -0.2178  0.0873
  557ERGO   ROH 8493   5.054  16.126   6.579 -0.1436 -0.0516  0.0469
  557ERGO    R1 8494   4.913  16.110   6.825 -0.0269 -0.0678  0.1128
  557ERGO    R2 8495   4.899  15.877   6.973  0.0603 -0.0703  0.1121
  557ERGO    R3 8496   4.994  16.036   7.172  0.1402 -0.0703  0.0751
  557ERGO    R4 8497   4.862  15.814   7.311  0.2868 -0.1334  0.1270
  557ERGO    R5 8498   4.826  16.027   7.341  0.2443 -0.1445  0.1800
  557ERGO    C1 8499   4.931  15.927   7.694  0.4937 -0.1704  0.1010
  557ERGO    C2 8500   5.071  15.913   8.076 -0.0936  0.2738  0.2305
  558ERGO   ROH 8501   8.643  14.069   6.334 -0.4927 -0.3139  0.0705
  558ERGO    R1 8502   8.773  13.937   6.548 -0.2772 -0.0587  0.1042
  558ERGO    R2 8503   8.862  14.071   6.774 -0.3007  0.1732 -0.0100
  558ERGO    R3 8504   8.711  13.886   6.903 -0.0837  0.1144  0.1617
  558ERGO    R4 8505   8.858  14.023   7.116  0.0389  0.2062  0.0019
  558ERGO    R5 8506   8.851  13.809   7.081  0.1154  0.2064  0.0406
  558ERGO    C1 8507   8.713  13.822   7.436  0.4403  0.1702  0.1701
  558ERGO    C2 8508   8.609  13.923   7.744 -0.3082 -0.1051  0.1007
  559ERGO   ROH 8509   2.112  12.934  10.441 -0.1712 -0.1941 -0.0295
  559ERGO    R1 8510   2.218  13.028  10.196 -0.1108  0.1009  0.1060
  559ERGO    R2 8511   2.221  12.875   9.967  0.2876  0.2344  0.0156
  559ERGO    R3 8512   2.093  13.090   9.860  0.0627  0.1171  0.0429
  559ERGO    R4 8513   2.191  12.939   9.628  0.1674  0.2096  0.0210
  559ERGO    R5 8514   2.226  13.150   9.670 -0.0249  0.2464  0.0188
  559ERGO    C1 8515   2.054  13.178   9.331 -0.1137  0.0851  0.0498
  559ERGO    C2 8516   2.124  13.197   8.976 -0.0035  0.1151 -0.0699
  560ERGO   ROH 8517  17.497   7.246  10.040  0.0441  0.0399  0.1462
  560ERGO    R1 8518  17.588   7.074   9.834  0.0784  0.0291  0.1698
  560ERGO    R2 8519  17.418   6.905   9.696  0.0977  0.0321  0.1383
  560ERGO    R3 8520  17.524   7.030   9.479  0.1490  0.0228  0.1585
  560ERGO    R4 8521  17.352   6.821   9.367  0.1625  0.0367  0.1241
  560ERGO    R5 8522  17.562   6.854   9.321  0.1710  0.0229  0.1670
  560ERGO    C1 8523  17.412   6.889   8.972  0.2486  0.0308  0.1348
  560ERGO    C2 8524  17.446   6.964   8.654  0.0843  0.3777 -0.2736
  561ERGO   ROH 8525  14.460   3.850  10.502 -0.2736  0.0700  0.1258
  561ERGO    R1 8526  14.340   3.912  10.253 -0.0628  0.0066  0.0048
  561ERGO    R2 8527  14.485   3.942  10.021  0.1276 -0.1477  0.0981
  561ERGO    R3 8528  14.312   3.755   9.926  0.1313 -0.1275  0.0522
  561ERGO    R4 8529  14.377   3.922   9.693  0.0335 -0.0044  0.1199
  561ERGO    R5 8530  14.177   3.874   9.768  0.0657 -0.0737  0.1517
  561ERGO    C1 8531  14.151   3.735   9.414 -0.0180  0.0980  0.0895
  561ERGO    C2 8532  14.160   3.618   9.016  0.3240 -0.5027  0.1358
  562ERGO   ROH 8533  15.292   1.001  10.340 -0.0950  0.1468 -0.0481
  562ERGO    R1 8534  15.306   0.957  10.061 -0.0368  0.1822 -0.0499
  562ERGO    R2 8535  15.303   1.164   9.878  0.2043  0.2142 -0.0134
  562ERGO    R3 8536  15.532   1.047   9.791  0.1340  0.0320  0.0396
  562ERGO    R4 8537  15.394   1.133   9.546  0.3442  0.3341  0.0118
  562ERGO    R5 8538  15.467   0.932   9.591  0.1153  0.2233 -0.0711
  562ERGO    C1 8539  15.662   1.005   9.271  0.3597  0.2329  0.0762
  562ERGO    C2 8540  15.646   1.034   8.978  0.0047 -0.0338 -0.1323
  563ERGO   ROH 8541  10.035   8.667  10.274  0.1256 -0.1681  0.0475
  563ERGO    R1 8542  10.192   8.754  10.056  0.0566 -0.2441 -0.0339
  563ERGO    R2 8543  10.335   8.990  10.061 -0.1015 -0.1399 -0.2374
  563ERGO    R3 8544  10.544   8.828   9.997  0.0056 -0.0569 -0.1090
  563ERGO    R4 8545  10.616   9.089   9.886 -0.1336 -0.0816 -0.2561
  563ERGO    R5 8546  10.610   8.900   9.778 -0.0054 -0.1510 -0.1430
  563ERGO    C1 8547  10.976   8.995   9.724 -0.0518  0.0303 -0.1464
  563ERGO    C2 8548  11.206   9.015   9.476  0.1632  0.1877  0.0621
  564ERGO   ROH 8549   0.669   9.242   9.937  0.1059 -0.2715 -0.0864
  564ERGO    R1 8550   0.549   9.189   9.686 -0.2370  0.0019  0.0105
  564ERGO    R2 8551   0.383   9.371   9.559  0.1086  0.4270  0.1267
  564ERGO    R3 8552   0.557   9.337   9.353 -0.1224 -0.0432 -0.0050
  564ERGO    R4 8553   0.336   9.489   9.237  0.1185  0.3935  0.1137
  564ERGO    R5 8554   0.419   9.303   9.162 -0.3495  0.1780  0.1203
  564ERGO    C1 8555   0.473   9.526   8.857 -0.0925 -0.0673 -0.0175
  564ERGO    C2 8556   0.562   9.672   8.525  0.2861  0.2906 -0.1196
  565ERGO   ROH 8557   8.668   4.023   9.715 -0.2198  0.2677  0.1243
  565ERGO    R1 8558   8.752   3.881   9.485 -0.0907  0.2949  0.1567
  565ERGO    R2 8559   8.595   3.686   9.365  0.0486  0.2099  0.1449
  565ERGO    R3 8560   8.633   3.839   9.143  0.0166  0.1971  0.1262
  565ERGO    R4 8561   8.594   3.567   9.041 -0.4758  0.2319  0.1284
  565ERGO    R5 8562   8.761   3.699   8.996 -0.3241  0.0208 -0.0344
  565ERGO    C1 8563   8.629   3.640   8.644 -0.8111  0.2328  0.1012
  565ERGO    C2 8564   8.535   3.846   8.205  0.2665  0.1323  0.0276
  566ERGO   ROH 8565   7.530  10.301  10.268  0.0620  0.2946  0.0896
  566ERGO    R1 8566   7.503  10.448  10.027  0.1470  0.1935  0.0177
  566ERGO    R2 8567   7.683  10.425   9.818  0.0796 -0.0883 -0.0126
  566ERGO    R3 8568   7.458  10.371   9.675 -0.0062  0.0477  0.0682
  566ERGO    R4 8569   7.657  10.448   9.474  0.0268 -0.2607 -0.0213
  566ERGO    R5 8570   7.459  10.533   9.499  0.1146 -0.0518 -0.0253
  566ERGO    C1 8571   7.431  10.410   9.139 -0.0845 -0.2333  0.0495
  566ERGO    C2 8572   7.534  10.212   8.809  0.2916 -0.0048  0.2176
  567ERGO   ROH 8573  10.700  13.004  10.619  0.4123 -0.0968 -0.0351
  567ERGO    R1 8574  10.606  13.083  10.364  0.4132  0.1096  0.0281
  567ERGO    R2 8575  10.776  13.153  10.158  0.4343 -0.2117 -0.0578
  567ERGO    R3 8576  10.639  12.963  10.022 -0.0289  0.0682 -0.0078
  567ERGO    R4 8577  10.731  13.150   9.815  0.5092 -0.2242 -0.0693
  567ERGO    R5 8578  10.526  13.083   9.848  0.3110  0.3042 -0.0839
  567ERGO    C1 8579  10.576  12.969   9.488  0.1180  0.0313 -0.0291
  567ERGO    C2 8580  10.475  13.102   9.136  0.2112  0.1805 -0.1105
  568ERGO   ROH 8581  15.905   6.951  10.001 -0.1383 -0.1020 -0.1741
  568ERGO    R1 8582  15.951   6.845   9.742 -0.0939 -0.0691 -0.1814
  568ERGO    R2 8583  15.746   6.771   9.573 -0.0676 -0.1212 -0.2010
  568ERGO    R3 8584  15.871   6.939   9.400 -0.1097 -0.0653 -0.1749
  568ERGO    R4 8585  15.684   6.785   9.233  0.1839 -0.3258 -0.2565
  568ERGO    R5 8586  15.899   6.809   9.201  0.1816 -0.1166 -0.0992
  568ERGO    C1 8587  15.766   6.950   8.873  0.2908 -0.3924 -0.2642
  568ERGO    C2 8588  15.463   6.855   8.585 -0.0657  0.2235  0.1588
  569ERGO   ROH 8589   1.654   7.977   9.911  0.2250 -0.0211 -0.1194
  569ERGO    R1 8590   1.515   7.873   9.688  0.1939  0.0418 -0.1302
  569ERGO    R2 8591   1.533   7.985   9.435  0.1567  0.1149 -0.1029
  569ERGO    R3 8592   1.603   7.732   9.364  0.1499  0.1363 -0.1832
  569ERGO    R4 8593   1.452   7.834   9.135 -0.0910  0.1133 -0.0366
  569ERGO    R5 8594   1.413   7.649   9.243  0.0551  0.0986 -0.0101
  569ERGO    C1 8595   1.470   7.509   8.893 -0.2417  0.1325 -0.0734
  569ERGO    C2 8596   1.353   7.349   8.609  0.0693  0.1715 -0.1232
  570ERGO   ROH 8597   3.968   1.818  10.071 -0.0735  0.1040 -0.0120
  570ERGO    R1 8598   3.989   1.908   9.803 -0.0789  0.0042 -0.0454
  570ERGO    R2 8599   4.072   1.744   9.598 -0.1775 -0.0984 -0.0003
  570ERGO    R3 8600   3.838   1.822   9.483 -0.1628 -0.0434  0.0052
  570ERGO    R4 8601   3.981   1.676   9.271 -0.2633 -0.2161  0.0468
  570ERGO    R5 8602   3.899   1.878   9.258 -0.1721 -0.1799 -0.0352
  570ERGO    C1 8603   3.709   1.710   8.973 -0.2995 -0.2330  0.0792
  570ERGO    C2 8604   3.464   1.716   8.658  0.2788  0.0492 -0.0967
  571ERGO   ROH 8605  16.945   0.644   6.142  0.0843  0.3167 -0.1186
  571ERGO    R1 8606  17.096   0.572   6.370  0.0698  0.3808 -0.0890
  571ERGO    R2 8607  17.114   0.732   6.594 -0.2074  0.2978 -0.0068
  571ERGO    R3 8608  17.030   0.508   6.722 -0.0088  0.1406 -0.1450
  571ERGO    R4 8609  17.130   0.681   6.935 -0.2445  0.1419 -0.0273
  571ERGO    R5 8610  17.189   0.475   6.897 -0.0178  0.2190 -0.1193
  571ERGO    C1 8611  17.060   0.440   7.254 -0.0797 -0.0965 -0.1690
  571ERGO    C2 8612  16.995   0.350   7.624  0.1190  0.0354  0.0473
  572ERGO   ROH 8613   2.637  13.313  10.297 -0.1073  0.2798  0.0116
  572ERGO    R1 8614   2.767  13.250  10.054 -0.0780  0.2247  0.0416
  572ERGO    R2 8615   2.666  13.068   9.873 -0.0224  0.1359  0.1019
  572ERGO    R3 8616   2.691  13.275   9.699 -0.0627  0.0786  0.0270
  572ERGO    R4 8617   2.635  13.042   9.530  0.1054 -0.0225  0.1014
  572ERGO    R5 8618   2.803  13.180   9.510  0.0485  0.0516  0.1030
  572ERGO    C1 8619   2.642  13.221   9.166  0.1419 -0.1683  0.0306
  572ERGO    C2 8620   2.619  13.213   8.783 -0.0443 -0.1639  0.0799
  573ERGO   ROH 8621   6.404  16.474  10.318  0.1437  0.1755 -0.0175
  573ERGO    R1 8622   6.377  16.520  10.040  0.1692  0.1717 -0.0215
  573ERGO    R2 8623   6.587  16.489   9.864  0.1347 -0.0396 -0.0339
  573ERGO    R3 8624   6.412  16.325   9.735 -0.0265  0.1045 -0.0011
  573ERGO    R4 8625   6.595  16.421   9.525  0.1143 -0.1831 -0.0053
  573ERGO    R5 8626   6.376  16.432   9.523  0.1287  0.0600 -0.0475
  573ERGO    C1 8627   6.436  16.227   9.207 -0.0487 -0.1314  0.0422
  573ERGO    C2 8628   6.501  16.343   8.851 -0.3102 -0.0410  0.1604
  574ERGO   ROH 8629   5.455  12.531   6.558  0.0047  0.3376 -0.0481
  574ERGO    R1 8630   5.281  12.419   6.751  0.1261  0.2418  0.0080
  574ERGO    R2 8631   5.285  12.495   7.016  0.1744  0.2395  0.0105
  574ERGO    R3 8632   5.021  12.541   6.974  0.1359  0.1027  0.0951
  574ERGO    R4 8633   5.053  12.554   7.265  0.2350  0.2100  0.0744
  574ERGO    R5 8634   4.911  12.430   7.155  0.2528  0.1110  0.1687
  574ERGO    C1 8635   4.669  12.633   7.370  0.2341  0.0647  0.1911
  574ERGO    C2 8636   4.629  12.698   7.590  0.0784 -0.0188 -0.0557
  575ERGO   ROH 8637   9.637   5.455  10.308 -0.1537  0.2110 -0.1246
  575ERGO    R1 8638   9.568   5.502  10.037 -0.1155  0.3390 -0.1104
  575ERGO    R2 8639   9.576   5.753   9.922  0.2855  0.3269 -0.0917
  575ERGO    R3 8640   9.735   5.629   9.740  0.0533  0.0781 -0.1347
  575ERGO    R4 8641   9.621   5.856   9.596  0.4928  0.3930 -0.0468
  575ERGO    R5 8642   9.615   5.648   9.534  0.0785  0.4082 -0.1358
  575ERGO    C1 8643   9.795   5.800   9.234  0.3955  0.1980 -0.0610
  575ERGO    C2 8644   9.770   5.964   8.966  0.0535 -0.1257  0.0101
  576ERGO   ROH 8645  14.680   3.214   6.176 -0.2206 -0.0231 -0.0670
  576ERGO    R1 8646  14.591   3.239   6.444 -0.2277 -0.0357 -0.0679
  576ERGO    R2 8647  14.728   3.385   6.633 -0.0791 -0.2759  0.0161
  576ERGO    R3 8648  14.488   3.509   6.665  0.0584 -0.0081  0.0357
  576ERGO    R4 8649  14.598   3.490   6.936  0.0160 -0.2267  0.0398
  576ERGO    R5 8650  14.402   3.421   6.870 -0.0611  0.0208 -0.0012
  576ERGO    C1 8651  14.297   3.667   7.142  0.2006  0.0533  0.0720
  576ERGO    C2 8652  14.204   3.632   7.472  0.3328 -0.0458 -0.2277
  577ERGO   ROH 8653   2.817  17.437  10.331  0.0794  0.0781  0.0570
  577ERGO    R1 8654   2.757  17.552  10.080  0.0125  0.0551  0.0625
  577ERGO    R2 8655   2.908  17.756   9.969  0.0451 -0.0266 -0.0438
  577ERGO    R3 8656   2.923  17.586   9.758 -0.1191 -0.0725 -0.0199
  577ERGO    R4 8657   2.813  17.833   9.646  0.0795  0.0037 -0.0470
  577ERGO    R5 8658   2.727  17.634   9.628 -0.0914  0.0731 -0.0087
  577ERGO    C1 8659   2.772  17.719   9.259 -0.0546 -0.0218 -0.0265
  577ERGO    C2 8660   2.605  17.775   8.943 -0.2624  0.3617 -0.3393
  578ERGO   ROH 8661   1.288  10.476  10.019  0.0299 -0.0193 -0.2123
  578ERGO    R1 8662   1.218  10.502   9.746  0.0185  0.3307 -0.1755
  578ERGO    R2 8663   1.321  10.701   9.584  0.5432  0.1229 -0.0787
  578ERGO    R3 8664   1.391  10.491   9.426 -0.1056  0.0017 -0.2431
  578ERGO    R4 8665   1.404  10.724   9.249  0.8982  0.2306  0.0085
  578ERGO    R5 8666   1.292  10.541   9.214  0.2116  0.6369 -0.2860
  578ERGO    C1 8667   1.518  10.541   8.906  0.4960  0.1794 -0.0948
  578ERGO    C2 8668   1.687  10.650   8.616  0.1002  0.1973 -0.0209
  579ERGO   ROH 8669   1.995   8.807   5.800  0.0806  0.0787  0.0803
  579ERGO    R1 8670   1.891   8.803   6.064  0.0480  0.0689  0.0669
  579ERGO    R2 8671   2.039   8.717   6.280  0.0378  0.1125  0.0882
  579ERGO    R3 8672   1.971   8.960   6.382 -0.0285  0.1016  0.0711
  579ERGO    R4 8673   1.940   8.772   6.607  0.2124  0.1313  0.1395
  579ERGO    R5 8674   1.789   8.912   6.532  0.0875  0.0351  0.1971
  579ERGO    C1 8675   1.818   9.032   6.892  0.2519  0.1320  0.1532
  579ERGO    C2 8676   1.968   8.946   7.169 -0.0624 -0.1751  0.2944
  580ERGO   ROH 8677   2.095  15.097  10.104 -0.2004  0.0837  0.0508
  580ERGO    R1 8678   2.208  15.147   9.849 -0.0238 -0.0407  0.1013
  580ERGO    R2 8679   2.262  14.946   9.668 -0.2518 -0.1001  0.0894
  580ERGO    R3 8680   2.109  15.098   9.503  0.0309  0.1599  0.0573
  580ERGO    R4 8681   2.282  14.946   9.323 -0.3129 -0.2653  0.0849
  580ERGO    R5 8682   2.257  15.162   9.326  0.1338 -0.2073  0.0081
  580ERGO    C1 8683   2.150  15.088   8.967 -0.0830 -0.1174  0.0523
  580ERGO    C2 8684   2.153  15.242   8.666 -0.1609 -0.2518 -0.0858
  581ERGO   ROH 8685  17.815   1.785   6.609 -0.0933  0.1382  0.0904
  581ERGO    R1 8686  18.023   1.731   6.793  0.0167  0.2563  0.0018
  581ERGO    R2 8687  18.138   1.927   6.949 -0.1721  0.2867  0.0994
  581ERGO    R3 8688  18.073   1.758   7.152  0.0753  0.0750  0.0095
  581ERGO    R4 8689  18.227   1.974   7.280 -0.3278  0.3038  0.1400
  581ERGO    R5 8690  18.266   1.759   7.294  0.0498  0.3568  0.0523
  581ERGO    C1 8691  18.217   1.843   7.663 -0.1863  0.1151  0.0793
  581ERGO    C2 8692  18.330   1.915   8.024 -0.0193 -0.2865 -0.1298
  582ERGO   ROH 8693  12.411  11.881   6.543  0.1214  0.1497  0.0738
  582ERGO    R1 8694  12.436  11.905   6.824 -0.0206  0.1959  0.0822
  582ERGO    R2 8695  12.377  12.139   6.960 -0.2705  0.1555  0.0329
  582ERGO    R3 8696  12.215  11.975   7.105 -0.1997  0.0394 -0.0148
  582ERGO    R4 8697  12.367  12.125   7.305 -0.3907  0.1997  0.0330
  582ERGO    R5 8698  12.349  11.908   7.291 -0.2096  0.1735  0.0496
  582ERGO    C1 8699  12.210  11.963   7.642 -0.3941  0.1165 -0.0117
  582ERGO    C2 8700  12.163  12.013   8.032  0.2899  0.1100 -0.3186
  583ERGO   ROH 8701   4.303   0.498  10.353 -0.1090 -0.2195 -0.1319
  583ERGO    R1 8702   4.188   0.464  10.097 -0.2016 -0.0810 -0.1098
  583ERGO    R2 8703   4.326   0.517   9.863 -0.2908  0.0598 -0.1322
  583ERGO    R3 8704   4.254   0.262   9.802 -0.2976  0.0897 -0.2501
  583ERGO    R4 8705   4.346   0.377   9.548  0.0072  0.1055 -0.1364
  583ERGO    R5 8706   4.155   0.279   9.585 -0.0616  0.1528 -0.3566
  583ERGO    C1 8707   4.291   0.056   9.307  0.1742  0.1602 -0.2494
  583ERGO    C2 8708   4.318  -0.142   8.977  0.1663 -0.1777  0.0033
  584ERGO   ROH 8709   7.971   6.757  10.138 -0.0615 -0.1950 -0.0537
  584ERGO    R1 8710   8.006   6.555   9.943  0.0389 -0.0762 -0.1606
  584ERGO    R2 8711   7.825   6.514   9.738 -0.0490 -0.1883 -0.0616
  584ERGO    R3 8712   8.046   6.540   9.581 -0.1751  0.1224 -0.1951
  584ERGO    R4 8713   7.832   6.463   9.396 -0.1427 -0.3940 -0.0343
  584ERGO    R5 8714   8.026   6.365   9.419  0.0588 -0.0252 -0.0711
  584ERGO    C1 8715   8.043   6.458   9.050 -0.3155 -0.2221 -0.1439
  584ERGO    C2 8716   8.074   6.462   8.709 -0.1604  0.1676  0.1921
  585ERGO   ROH 8717   2.657   1.000  10.467  0.1607  0.2689  0.1414
  585ERGO    R1 8718   2.763   1.046  10.208  0.0923  0.1109  0.0848
  585ERGO    R2 8719   2.959   0.886  10.097  0.0111  0.0011  0.1023
  585ERGO    R3 8720   2.780   0.863   9.894 -0.0580 -0.0498  0.1677
  585ERGO    R4 8721   3.042   0.834   9.766 -0.0943 -0.0112  0.0772
  585ERGO    R5 8722   2.885   0.974   9.709 -0.1423 -0.0442  0.1206
  585ERGO    C1 8723   2.922   0.783   9.382 -0.2204 -0.0661  0.1238
  585ERGO    C2 8724   2.982   0.717   9.058  0.1277  0.0704 -0.0742
  586ERGO   ROH 8725   6.596   7.327  10.153  0.1302 -0.2064  0.1017
  586ERGO    R1 8726   6.592   7.188   9.906  0.1435 -0.1264  0.0543
  586ERGO    R2 8727   6.397   7.232   9.714  0.0890 -0.1379  0.0945
  586ERGO    R3 8728   6.612   7.276   9.554  0.0492  0.0052  0.0837
  586ERGO    R4 8729   6.431   7.115   9.391  0.1742 -0.1261  0.1004
  586ERGO    R5 8730   6.640   7.072   9.432  0.1975  0.0279  0.0925
  586ERGO    C1 8731   6.652   7.088   9.052  0.1864  0.0150  0.0938
  586ERGO    C2 8732   6.626   6.946   8.765  0.0637 -0.0783  0.0861
  587ERGO   ROH 8733   6.582   5.857   6.252  0.0414 -0.0081 -0.0636
  587ERGO    R1 8734   6.423   5.937   6.472  0.1308 -0.0092  0.0017
  587ERGO    R2 8735   6.286   5.756   6.630  0.1637 -0.0068  0.0319
  587ERGO    R3 8736   6.421   5.879   6.831  0.2520 -0.0451 -0.0030
  587ERGO    R4 8737   6.232   5.701   6.967 -0.0241  0.2796  0.0527
  587ERGO    R5 8738   6.256   5.915   7.001  0.2353  0.2761 -0.0801
  587ERGO    C1 8739   6.328   5.784   7.352 -0.0505  0.4105  0.0320
  587ERGO    C2 8740   6.389   5.765   7.741 -0.0091  0.0971 -0.0128
  588ERGO   ROH 8741   7.946   0.412  10.132  0.2295  0.0585  0.1444
  588ERGO    R1 8742   8.118   0.370   9.911  0.1427 -0.0151  0.0897
  588ERGO    R2 8743   8.099   0.146   9.749 -0.0150 -0.0010  0.0831
  588ERGO    R3 8744   8.081   0.333   9.551  0.0135  0.0190  0.0997
  588ERGO    R4 8745   8.181   0.093   9.417 -0.0342  0.0176  0.0757
  588ERGO    R5 8746   8.270   0.291   9.412  0.0001 -0.0004  0.0906
  588ERGO    C1 8747   8.212   0.237   9.039 -0.0185  0.0472  0.0870
  588ERGO    C2 8748   8.220   0.067   8.752  0.2345 -0.1916 -0.1759
  589ERGO   ROH 8749   5.008  16.745  10.326 -0.1705  0.0351  0.0680
  589ERGO    R1 8750   5.077  16.694  10.056 -0.1560 -0.2493  0.1225
  589ERGO    R2 8751   4.924  16.532   9.892 -0.5111  0.0892  0.1059
  589ERGO    R3 8752   4.926  16.750   9.730  0.1611  0.0420  0.0197
  589ERGO    R4 8753   4.983  16.524   9.551 -0.2625 -0.1819  0.1503
  589ERGO    R5 8754   5.101  16.706   9.573  0.1857 -0.4592  0.1681
  589ERGO    C1 8755   5.018  16.725   9.201  0.5133 -0.3840  0.0952
  589ERGO    C2 8756   5.014  16.851   8.862  0.1020  0.2398  0.1272
  590ERGO   ROH 8757   0.881   1.079  10.491  0.3300  0.1150 -0.1014
  590ERGO    R1 8758   0.953   1.073  10.217  0.0076 -0.0748 -0.1886
  590ERGO    R2 8759   0.790   0.964  10.022 -0.3725  0.0781  0.0290
  590ERGO    R3 8760   0.822   1.207   9.906 -0.1750  0.0020 -0.0794
  590ERGO    R4 8761   0.750   1.028   9.685 -0.2781 -0.0438 -0.0057
  590ERGO    R5 8762   0.924   1.159   9.694 -0.1823 -0.1694 -0.0436
  590ERGO    C1 8763   0.756   1.294   9.379 -0.0378 -0.1861 -0.1275
  590ERGO    C2 8764   0.761   1.421   9.044 -0.2024  0.1779  0.1104
  591ERGO   ROH 8765  10.121   7.530  10.394 -0.1867 -0.0323  0.0808
  591ERGO    R1 8766  10.129   7.401  10.142 -0.1861 -0.0642  0.0972
  591ERGO    R2 8767   9.916   7.257  10.042 -0.1955 -0.0527  0.1026
  591ERGO    R3 8768   9.946   7.423   9.828 -0.1649 -0.0832  0.0831
  591ERGO    R4 8769   9.731   7.240   9.750  0.0029 -0.2464 -0.0149
  591ERGO    R5 8770   9.913   7.282   9.638  0.0518 -0.1536  0.0936
  591ERGO    C1 8771   9.652   7.386   9.380  0.1471 -0.3879 -0.1016
  591ERGO    C2 8772   9.512   7.356   9.102 -0.1421 -0.2228  0.0950
  592ERGO   ROH 8773   1.187   3.426  10.425  0.1810  0.1807 -0.2376
  592ERGO    R1 8774   1.265   3.337  10.167  0.0129 -0.0244 -0.2204
  592ERGO    R2 8775   1.108   3.169  10.015 -0.1903  0.0285 -0.0761
  592ERGO    R3 8776   1.136   3.365   9.828 -0.0854 -0.0920 -0.1887
  592ERGO    R4 8777   0.955   3.169   9.705 -0.2835 -0.0107 -0.0303
  592ERGO    R5 8778   1.140   3.247   9.619 -0.2442 -0.2069 -0.1286
  592ERGO    C1 8779   0.892   3.352   9.349 -0.2393 -0.1468 -0.1094
  592ERGO    C2 8780   0.830   3.320   9.065  0.0658  0.2947  0.0424
  593ERGO   ROH 8781   6.633   4.251   6.380  0.0744 -0.2106  0.0306
  593ERGO    R1 8782   6.750   4.257   6.638 -0.0847  0.0319  0.1013
  593ERGO    R2 8783   6.638   4.394   6.850 -0.4171 -0.0740 -0.0024
  593ERGO    R3 8784   6.655   4.152   6.973 -0.1333 -0.0195  0.0724
  593ERGO    R4 8785   6.628   4.345   7.192 -0.3634  0.0218  0.0137
  593ERGO    R5 8786   6.784   4.195   7.170 -0.1826  0.1958  0.0624
  593ERGO    C1 8787   6.639   4.090   7.507 -0.0656  0.1286  0.0933
  593ERGO    C2 8788   6.591   4.162   7.777  0.1914  0.2392 -0.0361
  594ERGO   ROH 8789  17.429   5.829  10.085 -0.1063  0.0361 -0.1186
  594ERGO    R1 8790  17.552   5.745   9.844  0.0200  0.1395 -0.0916
  594ERGO    R2 8791  17.500   5.498   9.729  0.2665  0.0860 -0.0957
  594ERGO    R3 8792  17.442   5.649   9.510  0.1721  0.0285 -0.1102
  594ERGO    R4 8793  17.431   5.372   9.414 -0.0207  0.0010 -0.0013
  594ERGO    R5 8794  17.548   5.535   9.329 -0.0127 -0.0840 -0.1480
  594ERGO    C1 8795  17.335   5.441   9.026 -0.2766 -0.1026  0.0400
  594ERGO    C2 8796  17.254   5.549   8.655 -0.1404 -0.0474 -0.0918
  595ERGO   ROH 8797   9.167  16.249  10.580 -0.1719  0.1630  0.2485
  595ERGO    R1 8798   8.999  16.336  10.369 -0.0811  0.0769  0.1408
  595ERGO    R2 8799   9.073  16.535  10.192  0.0400 -0.0779  0.0243
  595ERGO    R3 8800   9.014  16.346  10.006  0.0197 -0.1832  0.1341
  595ERGO    R4 8801   9.000  16.600   9.861  0.0801 -0.2563 -0.0219
  595ERGO    R5 8802   8.845  16.447   9.870  0.0461 -0.2269  0.0598
  595ERGO    C1 8803   8.902  16.461   9.493  0.0845 -0.4588  0.0542
  595ERGO    C2 8804   8.896  16.426   9.248 -0.0045  0.0282  0.0483
  596ERGO   ROH 8805   1.024   8.799   9.933 -0.3207 -0.2936 -0.0473
  596ERGO    R1 8806   1.024   8.972   9.708 -0.2392 -0.2191  0.0095
  596ERGO    R2 8807   1.116   8.894   9.460 -0.0762 -0.1128  0.0337
  596ERGO    R3 8808   0.871   8.977   9.378 -0.0535 -0.1523 -0.0760
  596ERGO    R4 8809   1.044   9.012   9.144  0.1567  0.3468  0.1431
  596ERGO    R5 8810   0.917   9.164   9.235 -0.0381  0.1139  0.2652
  596ERGO    C1 8811   0.772   9.159   8.882  0.3136  0.5771  0.1038
  596ERGO    C2 8812   0.803   9.070   8.620 -0.2972  0.0464 -0.0381
  597ERGO   ROH 8813  13.630  13.605   6.440  0.0054  0.1659  0.0864
  597ERGO    R1 8814  13.881  13.572   6.565  0.0799  0.1955 -0.0552
  597ERGO    R2 8815  14.044  13.785   6.633 -0.0230  0.2284  0.0795
  597ERGO    R3 8816  14.036  13.671   6.879  0.1560 -0.0166 -0.0224
  597ERGO    R4 8817  14.319  13.733   6.835  0.0930  0.2811 -0.0621
  597ERGO    R5 8818  14.236  13.540   6.890  0.2818  0.1474 -0.2169
  597ERGO    C1 8819  14.472  13.597   7.184  0.3285  0.0817 -0.2403
  597ERGO    C2 8820  14.689  13.703   7.404  0.3348 -0.2486  0.0588
  598ERGO   ROH 8821   0.484   7.917   9.773  0.0576  0.1774  0.0785
  598ERGO    R1 8822   0.393   7.957   9.508  0.0840  0.1566  0.0675
  598ERGO    R2 8823   0.256   8.185   9.430  0.0922  0.1447  0.0393
  598ERGO    R3 8824   0.452   8.199   9.242  0.1061  0.1360  0.0512
  598ERGO    R4 8825   0.234   8.365   9.137  0.0780  0.0868  0.0036
  598ERGO    R5 8826   0.333   8.200   9.034  0.1135  0.0760  0.0410
  598ERGO    C1 8827   0.405   8.484   8.788  0.0828  0.0449 -0.0060
  598ERGO    C2 8828   0.466   8.665   8.473  0.0580  0.0559 -0.2737
  599ERGO   ROH 8829  14.548   6.008   6.358 -0.2223  0.0515 -0.0394
  599ERGO    R1 8830  14.484   6.138   6.601 -0.1676  0.0994 -0.0509
  599ERGO    R2 8831  14.339   6.015   6.801 -0.0720  0.1189  0.0287
  599ERGO    R3 8832  14.552   6.085   6.955 -0.0355  0.2054 -0.0591
  599ERGO    R4 8833  14.332   6.047   7.145  0.0980 -0.0558  0.0507
  599ERGO    R5 8834  14.458   6.224   7.126 -0.0460  0.0519  0.0631
  599ERGO    C1 8835  14.528   6.131   7.490  0.2313 -0.0764 -0.0189
  599ERGO    C2 8836  14.634   5.993   7.868  0.2185  0.0472  0.2678
  600ERGO   ROH 8837   4.646   1.671   6.625  0.1818 -0.0549  0.1243
  600ERGO    R1 8838   4.662   1.747   6.898  0.0842  0.0042  0.1152
  600ERGO    R2 8839   4.473   1.909   7.018 -0.0121 -0.0385  0.0392
  600ERGO    R3 8840   4.458   1.704   7.196  0.0209 -0.0161  0.0666
  600ERGO    R4 8841   4.374   1.940   7.348 -0.2581 -0.0648 -0.0309
  600ERGO    R5 8842   4.531   1.799   7.403 -0.1941  0.0675  0.0996
  600ERGO    C1 8843   4.302   1.766   7.707 -0.3703 -0.0590 -0.0459
  600ERGO    C2 8844   4.031   1.906   7.944 -0.2078 -0.0086  0.0241
  601ERGO   ROH 8845  17.823   3.250  10.195 -0.1753  0.4373  0.0649
  601ERGO    R1 8846  17.875   3.120   9.950  0.1454  0.3883  0.1544
  601ERGO    R2 8847  17.677   3.064   9.766  0.2726 -0.1996  0.1708
  601ERGO    R3 8848  17.842   3.199   9.596 -0.0209  0.0813  0.0992
  601ERGO    R4 8849  17.657   3.054   9.421  0.2510 -0.3678  0.1767
  601ERGO    R5 8850  17.875   3.048   9.413  0.2679  0.0778  0.1525
  601ERGO    C1 8851  17.800   3.174   9.061 -0.0369 -0.2020  0.1130
  601ERGO    C2 8852  17.788   3.319   8.705 -0.0770 -0.1438  0.2627
  602ERGO   ROH 8853   0.922  10.324   5.996 -0.1248 -0.0954  0.1184
  602ERGO    R1 8854   1.025  10.452   6.226  0.0236 -0.1125  0.0624
  602ERGO    R2 8855   0.862  10.563   6.420  0.1511  0.0760  0.0596
  602ERGO    R3 8856   1.005  10.404   6.586  0.0523  0.0080  0.0817
  602ERGO    R4 8857   0.876  10.599   6.763  0.1908  0.1404  0.0517
  602ERGO    R5 8858   1.089  10.553   6.754  0.1645 -0.0094  0.0469
  602ERGO    C1 8859   1.020  10.470   7.120  0.1212  0.1142  0.0678
  602ERGO    C2 8860   1.090  10.527   7.447 -0.0860 -0.1969  0.0677
  603ERGO   ROH 8861  16.945   8.638   5.643  0.0900 -0.1919 -0.0093
  603ERGO    R1 8862  16.979   8.630   5.924  0.1040 -0.2038 -0.0117
  603ERGO    R2 8863  17.132   8.814   6.061  0.1379 -0.2302 -0.0162
  603ERGO    R3 8864  16.905   8.848   6.206  0.1506 -0.2001 -0.0020
  603ERGO    R4 8865  17.119   8.951   6.378  0.1332  0.1006 -0.1543
  603ERGO    R5 8866  16.970   8.800   6.431  0.2261  0.0736  0.0378
  603ERGO    C1 8867  16.897   9.062   6.699  0.1426  0.3213 -0.2214
  603ERGO    C2 8868  17.023   9.105   7.001  0.1728  0.1393  0.2823
  604ERGO   ROH 8869  17.120  11.644   5.860  0.0396  0.0323  0.0032
  604ERGO    R1 8870  17.169  11.733   6.124  0.0154 -0.0068  0.0217
  604ERGO    R2 8871  16.966  11.814   6.294  0.0051  0.0558 -0.0129
  604ERGO    R3 8872  17.075  11.628   6.460 -0.0982 -0.0014 -0.0096
  604ERGO    R4 8873  16.991  11.846   6.637  0.0591  0.0541 -0.0170
  604ERGO    R5 8874  17.189  11.757   6.626 -0.0030 -0.0700 -0.0276
  604ERGO    C1 8875  17.107  11.690   6.993 -0.0066 -0.0005 -0.0164
  604ERGO    C2 8876  17.186  11.662   7.284 -0.4137  0.0487 -0.0075
  605ERGO   ROH 8877   8.971   2.258   6.158  0.0616  0.1538  0.0026
  605ERGO    R1 8878   8.954   2.175   6.428  0.0217  0.0829 -0.0212
  605ERGO    R2 8879   9.061   1.936   6.517  0.0006  0.0533 -0.0689
  605ERGO    R3 8880   9.187   2.097   6.697 -0.0169  0.0024 -0.0112
  605ERGO    R4 8881   9.167   1.837   6.831 -0.1386 -0.0006 -0.0382
  605ERGO    R5 8882   9.100   2.029   6.909 -0.1108  0.0113 -0.0477
  605ERGO    C1 8883   9.348   1.931   7.182 -0.2359 -0.0797  0.0337
  605ERGO    C2 8884   9.356   1.756   7.455 -0.3482 -0.0128  0.2186
  606ERGO   ROH 8885  10.294   1.298   6.381 -0.2632  0.0150  0.0151
  606ERGO    R1 8886  10.340   1.471   6.600 -0.1561 -0.0608  0.0538
  606ERGO    R2 8887  10.252   1.733   6.604  0.1400  0.0428  0.0468
  606ERGO    R3 8888  10.135   1.657   6.837 -0.0453  0.1455 -0.0109
  606ERGO    R4 8889  10.214   1.935   6.881  0.0316  0.1233 -0.0262
  606ERGO    R5 8890  10.264   1.765   7.007 -0.1182  0.1354  0.0496
  606ERGO    C1 8891  10.081   1.982   7.261 -0.2056  0.2666 -0.1228
  606ERGO    C2 8892   9.912   1.950   7.476  0.2403  0.3182 -0.1272
  607ERGO   ROH 8893   2.736   8.267   6.328  0.0032  0.1067  0.0866
  607ERGO    R1 8894   2.842   8.269   6.590 -0.0223 -0.0036  0.0979
  607ERGO    R2 8895   2.825   8.489   6.756  0.2239  0.0295  0.0807
  607ERGO    R3 8896   2.711   8.311   6.927 -0.0098  0.1747  0.0816
  607ERGO    R4 8897   2.848   8.505   7.100  0.1587  0.0596  0.0840
  607ERGO    R5 8898   2.872   8.288   7.104 -0.0736  0.0303  0.1242
  607ERGO    C1 8899   2.755   8.348   7.462 -0.0987  0.2134  0.0868
  607ERGO    C2 8900   2.688   8.300   7.741  0.0095 -0.2428  0.3149
  608ERGO   ROH 8901  15.001   1.991   6.581  0.2792  0.1775 -0.1043
  608ERGO    R1 8902  15.015   2.139   6.821  0.2604  0.0575 -0.0281
  608ERGO    R2 8903  14.815   2.133   7.012  0.1076  0.1864 -0.1795
  608ERGO    R3 8904  15.020   2.066   7.178 -0.0841 -0.1084 -0.0543
  608ERGO    R4 8905  14.856   2.253   7.333  0.1553  0.2274 -0.2007
  608ERGO    R5 8906  15.070   2.269   7.295  0.2057 -0.1511 -0.1010
  608ERGO    C1 8907  15.072   2.260   7.676  0.0031 -0.0255 -0.0955
  608ERGO    C2 8908  15.235   2.197   8.042  0.2101 -0.1718 -0.1043
  609ERGO   ROH 8909   7.991   1.824   9.756  0.2240 -0.1601 -0.0059
  609ERGO    R1 8910   7.874   1.854   9.500  0.0770 -0.1496  0.0617
  609ERGO    R2 8911   8.013   1.954   9.283 -0.0592 -0.1010 -0.0048
  609ERGO    R3 8912   7.932   1.723   9.165 -0.0857 -0.1008  0.0134
  609ERGO    R4 8913   8.029   1.888   8.944  0.0107 -0.1609  0.0102
  609ERGO    R5 8914   7.834   1.793   8.958 -0.0164 -0.1111 -0.0230
  609ERGO    C1 8915   7.962   1.633   8.636  0.0265 -0.1957  0.0358
  609ERGO    C2 8916   7.992   1.623   8.352  0.0195 -0.0390  0.0654
  610ERGO   ROH 8917   5.662   5.682  10.210  0.0650  0.0097 -0.0973
  610ERGO    R1 8918   5.570   5.593   9.958 -0.0902  0.0493 -0.0557
  610ERGO    R2 8919   5.415   5.751   9.792 -0.0964  0.1185  0.0129
  610ERGO    R3 8920   5.610   5.695   9.611 -0.2023  0.0300 -0.0744
  610ERGO    R4 8921   5.373   5.756   9.449 -0.1940  0.3378  0.0261
  610ERGO    R5 8922   5.496   5.576   9.437 -0.3654  0.2275 -0.1050
  610ERGO    C1 8923   5.531   5.705   9.079 -0.3502  0.3824 -0.0482
  610ERGO    C2 8924   5.631   5.757   8.730 -0.1557  0.2538 -0.0410
  611ERGO   ROH 8925  16.044  11.946   9.995 -0.5126  0.1585 -0.2561
  611ERGO    R1 8926  16.119  11.845   9.741 -0.2468  0.0330 -0.1323
  611ERGO    R2 8927  16.070  11.981   9.506 -0.0835 -0.1217 -0.2628
  611ERGO    R3 8928  16.337  11.948   9.469 -0.0364 -0.0511  0.0037
  611ERGO    R4 8929  16.249  12.099   9.235  0.1720 -0.0473 -0.0654
  611ERGO    R5 8930  16.361  11.913   9.234  0.2168 -0.0154  0.0252
  611ERGO    C1 8931  16.604  12.136   9.042  0.3651  0.0624  0.2998
  611ERGO    C2 8932  16.612  12.247   8.714  0.2008 -0.1735  0.2443
  612ERGO   ROH 8933   9.495  12.720  10.273  0.0307  0.1189 -0.0880
  612ERGO    R1 8934   9.418  12.760  10.003  0.1466  0.0888 -0.1264
  612ERGO    R2 8935   9.475  12.992   9.865  0.0591  0.1444 -0.0760
  612ERGO    R3 8936   9.587  12.820   9.686  0.2771  0.2349 -0.0294
  612ERGO    R4 8937   9.454  13.024   9.522 -0.3098 -0.1807 -0.0910
  612ERGO    R5 8938   9.427  12.808   9.508  0.1431 -0.2583  0.1131
  612ERGO    C1 8939   9.547  12.882   9.154 -0.3199 -0.2852 -0.0559
  612ERGO    C2 8940   9.621  13.061   8.938 -0.1133 -0.1992 -0.2714
  613ERGO   ROH 8941  11.191  11.047  10.641  0.4209  0.0237  0.1262
  613ERGO    R1 8942  11.176  11.070  10.359  0.1769 -0.0105  0.1326
  613ERGO    R2 8943  11.388  11.159  10.206 -0.0018  0.1290 -0.0535
  613ERGO    R3 8944  11.348  10.926  10.073  0.0523  0.0845  0.0117
  613ERGO    R4 8945  11.462  11.107   9.872 -0.0341  0.0528 -0.0473
  613ERGO    R5 8946  11.277  10.993   9.854  0.0055 -0.0038  0.0063
  613ERGO    C1 8947  11.468  10.857   9.554 -0.0021 -0.0332  0.0174
  613ERGO    C2 8948  11.491  10.790   9.194 -0.2836  0.0401  0.1585
  614ERGO   ROH 8949  13.063   6.953  10.525  0.0706 -0.0689 -0.1078
  614ERGO    R1 8950  13.059   6.880  10.251  0.3080  0.0571 -0.1468
  614ERGO    R2 8951  12.825   6.856  10.107  0.3951 -0.3512 -0.2291
  614ERGO    R3 8952  12.949   7.031   9.939  0.0972 -0.0072 -0.1055
  614ERGO    R4 8953  12.750   6.895   9.771  0.3160 -0.2262 -0.1984
  614ERGO    R5 8954  12.964   6.913   9.731  0.2922  0.1686 -0.1967
  614ERGO    C1 8955  12.823   7.080   9.418 -0.0097  0.1696 -0.0644
  614ERGO    C2 8956  12.531   7.084   9.069 -0.1904  0.1523  0.0471
  615ERGO   ROH 8957  13.422  17.436  10.522 -0.0113  0.2571 -0.0145
  615ERGO    R1 8958  13.503  17.537  10.270 -0.0385  0.1000 -0.0874
  615ERGO    R2 8959  13.722  17.440  10.133 -0.0474  0.0221 -0.0447
  615ERGO    R3 8960  13.542  17.407   9.933 -0.0632 -0.1141 -0.0090
  615ERGO    R4 8961  13.799  17.442   9.796 -0.1105  0.0452 -0.0595
  615ERGO    R5 8962  13.617  17.555   9.760 -0.1932 -0.0779 -0.0357
  615ERGO    C1 8963  13.675  17.411   9.412 -0.1622 -0.0691 -0.0347
  615ERGO    C2 8964  13.821  17.535   9.225 -0.0938  0.3381  0.0237
  616ERGO   ROH 8965  17.936   2.410  10.769  0.1537 -0.0221 -0.0399
  616ERGO    R1 8966  17.986   2.233  10.553 -0.0854 -0.0978 -0.0353
  616ERGO    R2 8967  17.795   2.174  10.361 -0.1085  0.3116 -0.1446
  616ERGO    R3 8968  17.990   2.253  10.190  0.1509 -0.0548 -0.0320
  616ERGO    R4 8969  17.784   2.139  10.018 -0.0696  0.5039 -0.1669
  616ERGO    R5 8970  17.994   2.085  10.021 -0.1839  0.0075 -0.1118
  616ERGO    C1 8971  17.961   2.193   9.657  0.1964  0.2718 -0.0742
  616ERGO    C2 8972  17.958   2.226   9.328 -0.1275 -0.1908  0.3458
  617ERGO   ROH 8973   4.134   3.033  10.288  0.0922 -0.0869 -0.0836
  617ERGO    R1 8974   4.183   2.982  10.014  0.1182 -0.1054 -0.0748
  617ERGO    R2 8975   4.021   2.817   9.862  0.0727 -0.0274 -0.1037
  617ERGO    R3 8976   4.008   3.035   9.699  0.2008 -0.0220 -0.1087
  617ERGO    R4 8977   3.974   2.806   9.519 -0.2322 -0.0102 -0.0659
  617ERGO    R5 8978   4.120   2.967   9.499 -0.0467 -0.1839 -0.2013
  617ERGO    C1 8979   3.935   3.004   9.168 -0.2896  0.0048 -0.0487
  617ERGO    C2 8980   3.813   2.807   8.881  0.1854  0.1969  0.0167
  618ERGO   ROH 8981  12.336   8.644  10.295 -0.2950  0.0739  0.0774
  618ERGO    R1 8982  12.434   8.558  10.044 -0.0260  0.3577  0.0783
  618ERGO    R2 8983  12.298   8.376   9.886  0.4917 -0.0388  0.0612
  618ERGO    R3 8984  12.321   8.572   9.698 -0.0542  0.0531  0.0734
  618ERGO    R4 8985  12.326   8.321   9.545  0.6158  0.0611  0.0546
  618ERGO    R5 8986  12.473   8.481   9.536  0.1888  0.4750  0.0534
  618ERGO    C1 8987  12.364   8.473   9.171  0.1755  0.2055  0.0623
  618ERGO    C2 8988  12.199   8.366   8.812 -0.1217 -0.0666  0.0320
  619ERGO   ROH 8989  12.238   1.655  10.350 -0.1369 -0.0751 -0.0995
  619ERGO    R1 8990  12.338   1.832  10.153 -0.1923  0.1027  0.0296
  619ERGO    R2 8991  12.451   1.744   9.917  0.1242  0.3038  0.1019
  619ERGO    R3 8992  12.265   1.907   9.804  0.0091  0.0964 -0.0157
  619ERGO    R4 8993  12.465   1.865   9.594  0.3098  0.4736  0.1721
  619ERGO    R5 8994  12.393   2.057   9.668 -0.0450  0.3443  0.1935
  619ERGO    C1 8995  12.299   2.090   9.300  0.3098  0.3777  0.1024
  619ERGO    C2 8996  12.277   2.046   9.032  0.0400  0.1086 -0.0236
  620ERGO   ROH 8997   1.713  15.516   6.051  0.1904  0.0451  0.0620
  620ERGO    R1 8998   1.707  15.628   6.312  0.1601  0.1082  0.0340
  620ERGO    R2 8999   1.471  15.681   6.446  0.1469  0.1183  0.0016
  620ERGO    R3 9000   1.585  15.528   6.640  0.1453  0.1783  0.0509
  620ERGO    R4 9001   1.416  15.719   6.785 -0.2841 -0.1144 -0.0356
  620ERGO    R5 9002   1.628  15.681   6.818 -0.2608  0.1597  0.1776
  620ERGO    C1 9003   1.490  15.597   7.164 -0.5366 -0.1937 -0.0110
  620ERGO    C2 9004   1.475  15.634   7.518  0.1811  0.3253  0.3081
  621ERGO   ROH 9005   8.516   5.519  10.080 -0.0212 -0.1493 -0.0357
  621ERGO    R1 9006   8.654   5.640   9.864 -0.0850 -0.0013  0.0062
  621ERGO    R2 9007   8.739   5.497   9.644  0.0741  0.1033  0.0051
  621ERGO    R3 9008   8.598   5.685   9.507 -0.0581  0.0049  0.0011
  621ERGO    R4 9009   8.774   5.562   9.306  0.0339  0.1096  0.0015
  621ERGO    R5 9010   8.757   5.775   9.351 -0.1122  0.1066 -0.0031
  621ERGO    C1 9011   8.662   5.778   8.981 -0.1136  0.0209 -0.0044
  621ERGO    C2 9012   8.611   5.664   8.564  0.1703 -0.1263 -0.0490
  622ERGO   ROH 9013  17.623   9.576   6.022 -0.0332 -0.0474  0.0114
  622ERGO    R1 9014  17.804   9.625   6.234 -0.0954  0.0496  0.0434
  622ERGO    R2 9015  17.729   9.749   6.469 -0.2158 -0.0428  0.0551
  622ERGO    R3 9016  17.837   9.527   6.583 -0.0702  0.0154  0.0314
  622ERGO    R4 9017  17.762   9.698   6.809 -0.2871 -0.1027  0.0530
  622ERGO    R5 9018  17.959   9.611   6.772 -0.2007  0.0681  0.0934
  622ERGO    C1 9019  17.883   9.461   7.114 -0.1916 -0.0829  0.0296
  622ERGO    C2 9020  17.931   9.344   7.468  0.1916  0.3158 -0.1279
  623ERGO   ROH 9021   8.140  12.683  10.279  0.1497 -0.3992 -0.0387
  623ERGO    R1 9022   8.073  12.639  10.007  0.1195 -0.1517 -0.0728
  623ERGO    R2 9023   7.855  12.760   9.887  0.0981 -0.0517  0.0644
  623ERGO    R3 9024   8.041  12.843   9.707  0.0715  0.1259  0.1170
  623ERGO    R4 9025   7.797  12.805   9.549  0.1302 -0.0254  0.0622
  623ERGO    R5 9026   7.993  12.718   9.509  0.2045  0.1297  0.0815
  623ERGO    C1 9027   7.939  12.909   9.184  0.1238  0.1568  0.1103
  623ERGO    C2 9028   8.145  12.943   8.965  0.0048  0.1036  0.3044
  624ERGO   ROH 9029   0.829   4.319  10.186 -0.2385 -0.1673 -0.0788
  624ERGO    R1 9030   0.798   4.242   9.916 -0.2985 -0.0195 -0.1143
  624ERGO    R2 9031   0.684   4.407   9.726  0.1264  0.2882 -0.1093
  624ERGO    R3 9032   0.916   4.359   9.592  0.0847 -0.1671 -0.0355
  624ERGO    R4 9033   0.706   4.344   9.387  0.1031  0.3249 -0.1180
  624ERGO    R5 9034   0.857   4.192   9.430 -0.2198 -0.0142 -0.0967
  624ERGO    C1 9035   0.936   4.261   9.064  0.0504 -0.0811 -0.0538
  624ERGO    C2 9036   0.926   4.316   8.703 -0.0227 -0.0114 -0.0264
  625ERGO   ROH 9037  16.033  10.325   9.794 -0.0963  0.2561  0.0218
  625ERGO    R1 9038  15.974  10.456   9.550 -0.1618  0.1147 -0.0385
  625ERGO    R2 9039  16.171  10.545   9.378 -0.2018  0.3133  0.0216
  625ERGO    R3 9040  16.035  10.395   9.197  0.0595  0.0911  0.0009
  625ERGO    R4 9041  16.188  10.585   9.035 -0.1449  0.2858  0.0205
  625ERGO    R5 9042  15.974  10.550   9.025 -0.1016 -0.0141 -0.0429
  625ERGO    C1 9043  16.070  10.468   8.665  0.1334  0.0612  0.0004
  625ERGO    C2 9044  16.193  10.497   8.333  0.1060  0.0972 -0.6168
  626ERGO   ROH 9045  10.468   2.389  10.119 -0.2709  0.0578 -0.0473
  626ERGO    R1 9046  10.487   2.258   9.869 -0.1103 -0.0285  0.0101
  626ERGO    R2 9047  10.513   2.394   9.630 -0.1542 -0.1045 -0.0353
  626ERGO    R3 9048  10.731   2.235   9.600 -0.0258  0.0451  0.0788
  626ERGO    R4 9049  10.683   2.347   9.333  0.0063 -0.0207  0.0411
  626ERGO    R5 9050  10.703   2.136   9.384  0.1349 -0.0039  0.0765
  626ERGO    C1 9051  10.987   2.170   9.132  0.2204  0.1685  0.1928
  626ERGO    C2 9052  11.159   2.015   8.908  0.1108 -0.1102  0.1187
  627ERGO   ROH 9053  11.570   3.052  10.242 -0.2696 -0.2575  0.0116
  627ERGO    R1 9054  11.457   3.092   9.986 -0.2186 -0.1568  0.0039
  627ERGO    R2 9055  11.469   3.335   9.854 -0.1593 -0.1131  0.0835
  627ERGO    R3 9056  11.577   3.184   9.655 -0.1448 -0.0660  0.0564
  627ERGO    R4 9057  11.383   3.359   9.521 -0.1137 -0.0231  0.0785
  627ERGO    R5 9058  11.393   3.142   9.507 -0.1255 -0.0169  0.0219
  627ERGO    C1 9059  11.435   3.233   9.139 -0.0737  0.0735  0.0502
  627ERGO    C2 9060  11.595   3.325   8.906  0.0459 -0.1142  0.0733
  628ERGO   ROH 9061   7.857  16.420   6.347  0.0120  0.1153 -0.0279
  628ERGO    R1 9062   7.735  16.362   6.596 -0.0786 -0.0470 -0.1088
  628ERGO    R2 9063   7.768  16.121   6.726  0.0923 -0.0335 -0.1271
  628ERGO    R3 9064   7.845  16.280   6.932 -0.1928  0.0174 -0.0544
  628ERGO    R4 9065   7.747  16.034   7.060  0.1271 -0.1734 -0.1603
  628ERGO    R5 9066   7.683  16.238   7.103 -0.1831 -0.2756 -0.1100
  628ERGO    C1 9067   7.808  16.133   7.448 -0.1203 -0.2070 -0.1113
  628ERGO    C2 9068   7.776  16.191   7.787  0.1330 -0.1644  0.1533
  629ERGO   ROH 9069  16.849  14.709  10.400 -0.0814  0.0698  0.0235
  629ERGO    R1 9070  16.838  14.564  10.157 -0.1348  0.0393  0.0435
  629ERGO    R2 9071  16.626  14.585   9.980 -0.1417  0.0724  0.0512
  629ERGO    R3 9072  16.823  14.643   9.802 -0.1340 -0.0030  0.0351
  629ERGO    R4 9073  16.615  14.514   9.642 -0.2239  0.1529  0.0370
  629ERGO    R5 9074  16.825  14.458   9.651 -0.2585  0.0317 -0.0055
  629ERGO    C1 9075  16.793  14.529   9.278 -0.2647  0.1290  0.0135
  629ERGO    C2 9076  16.725  14.516   8.875 -0.3219 -0.0827  0.0466
  630ERGO   ROH 9077   7.959  10.302   6.277 -0.0155 -0.0223  0.0524
  630ERGO    R1 9078   8.075  10.301   6.535  0.0559 -0.0916  0.0203
  630ERGO    R2 9079   8.001  10.480   6.733  0.1986 -0.0637  0.0493
  630ERGO    R3 9080   7.961  10.253   6.877  0.1267 -0.0503  0.0505
  630ERGO    R4 9081   7.920  10.470   7.069  0.0664 -0.0305  0.0187
  630ERGO    R5 9082   8.054  10.301   7.092  0.0467 -0.0390  0.0841
  630ERGO    C1 9083   7.834  10.252   7.399 -0.0781  0.0015  0.0019
  630ERGO    C2 9084   7.872  10.160   7.792 -0.1120 -0.1164 -0.0801
  631ERGO   ROH 9085  11.561  16.446   6.212 -0.0498  0.2400  0.0153
  631ERGO    R1 9086  11.718  16.343   6.424 -0.1499  0.0817  0.0143
  631ERGO    R2 9087  11.883  16.503   6.578  0.1240 -0.1032 -0.0802
  631ERGO    R3 9088  11.742  16.394   6.783  0.0072  0.1748 -0.0084
  631ERGO    R4 9089  11.947  16.559   6.913  0.3890 -0.1974 -0.1131
  631ERGO    R5 9090  11.907  16.348   6.951  0.0048 -0.1272 -0.0825
  631ERGO    C1 9091  11.852  16.489   7.301  0.4337  0.0087 -0.0647
  631ERGO    C2 9092  11.791  16.657   7.574  0.1178  0.3718  0.0151
  632ERGO   ROH 9093  16.431   9.543   9.813 -0.1422  0.3234 -0.0207
  632ERGO    R1 9094  16.492   9.404   9.574 -0.0212  0.2895  0.0281
  632ERGO    R2 9095  16.299   9.274   9.424  0.0915  0.0569  0.0777
  632ERGO    R3 9096  16.398   9.428   9.223 -0.0537  0.0756  0.0211
  632ERGO    R4 9097  16.232   9.226   9.089  0.2357 -0.2131  0.0851
  632ERGO    R5 9098  16.441   9.273   9.045  0.1899  0.0313  0.1155
  632ERGO    C1 9099  16.285   9.343   8.704  0.1836 -0.3526  0.0361
  632ERGO    C2 9100  16.175   9.417   8.296  0.3794 -0.2082 -0.0186
  633ERGO   ROH 9101   4.339  14.750  10.771 -0.0774 -0.2367  0.0167
  633ERGO    R1 9102   4.292  14.604  10.533 -0.1495 -0.2720  0.0534
  633ERGO    R2 9103   4.056  14.467  10.487 -0.3553  0.1139 -0.0532
  633ERGO    R3 9104   4.053  14.616  10.259  0.0732  0.0115 -0.1368
  633ERGO    R4 9105   3.965  14.348  10.176 -0.5107  0.1419 -0.0200
  633ERGO    R5 9106   4.128  14.465  10.089 -0.1973 -0.2665 -0.0257
  633ERGO    C1 9107   3.909  14.418   9.780 -0.1990  0.0620 -0.0792
  633ERGO    C2 9108   3.910  14.294   9.387 -0.1782  0.1489 -0.1428
  634ERGO   ROH 9109  15.618   6.507   6.173  0.2556  0.0487 -0.1509
  634ERGO    R1 9110  15.492   6.602   6.408  0.0554 -0.0858 -0.2020
  634ERGO    R2 9111  15.446   6.441   6.628  0.1809 -0.1237 -0.2044
  634ERGO    R3 9112  15.579   6.639   6.759 -0.1086  0.0573 -0.1744
  634ERGO    R4 9113  15.461   6.474   6.972  0.3652 -0.3300 -0.1898
  634ERGO    R5 9114  15.439   6.690   6.947 -0.0814 -0.3455 -0.0330
  634ERGO    C1 9115  15.594   6.679   7.295  0.2007 -0.2802 -0.1531
  634ERGO    C2 9116  15.540   6.784   7.621  0.2788 -0.0068 -0.1413
  635ERGO   ROH 9117   5.583  17.247   6.322  0.0567 -0.1148 -0.0800
  635ERGO    R1 9118   5.592  17.369   6.578  0.2676 -0.3765  0.0397
  635ERGO    R2 9119   5.369  17.481   6.697  0.5052  0.1087  0.0298
  635ERGO    R3 9120   5.435  17.315   6.902 -0.0318 -0.2704 -0.0818
  635ERGO    R4 9121   5.231  17.492   7.013  0.3738  0.2025 -0.0281
  635ERGO    R5 9122   5.428  17.454   7.096  0.2541 -0.4098  0.0407
  635ERGO    C1 9123   5.211  17.342   7.389 -0.2068 -0.0988 -0.1666
  635ERGO    C2 9124   5.082  17.691   7.713 -0.1162  0.1617  0.2761
  636ERGO   ROH 9125  10.942   0.417  10.062 -0.1054 -0.0073  0.0022
  636ERGO    R1 9126  10.844   0.528   9.820  0.1732  0.2322 -0.0067
  636ERGO    R2 9127  11.006   0.670   9.646  0.5678 -0.2262 -0.0455
  636ERGO    R3 9128  10.914   0.489   9.466  0.0464 -0.0211 -0.0041
  636ERGO    R4 9129  11.048   0.692   9.304  0.4112 -0.3214 -0.0715
  636ERGO    R5 9130  10.845   0.620   9.278  0.2292  0.1393  0.0441
  636ERGO    C1 9131  10.987   0.534   8.935 -0.1694 -0.1843 -0.0479
  636ERGO    C2 9132  10.936   0.488   8.531 -0.0177  0.0835 -0.2143
  637ERGO   ROH 9133  17.624   6.931   6.130  0.0342 -0.0883 -0.1743
  637ERGO    R1 9134  17.576   6.946   6.408  0.0122  0.0768 -0.1866
  637ERGO    R2 9135  17.638   6.740   6.582 -0.0590  0.1561 -0.0699
  637ERGO    R3 9136  17.775   6.934   6.712 -0.0203  0.1907 -0.1596
  637ERGO    R4 9137  17.758   6.714   6.905  0.0968  0.2080 -0.1221
  637ERGO    R5 9138  17.698   6.920   6.939  0.0861  0.2074 -0.1192
  637ERGO    C1 9139  17.957   6.882   7.216  0.2238  0.2707 -0.2368
  637ERGO    C2 9140  18.228   6.887   7.521 -0.4787  0.1483  0.0496
  638ERGO   ROH 9141   3.001  16.331  10.428 -0.3452 -0.3431 -0.1090
  638ERGO    R1 9142   3.090  16.349  10.160 -0.1395 -0.6120 -0.0607
  638ERGO    R2 9143   3.062  16.140   9.980 -0.6772 -0.5430 -0.0644
  638ERGO    R3 9144   2.939  16.330   9.830 -0.0295 -0.1522 -0.1466
  638ERGO    R4 9145   3.057  16.147   9.634 -0.5144 -0.5867 -0.0698
  638ERGO    R5 9146   3.084  16.363   9.643  0.1709 -0.6433 -0.0986
  638ERGO    C1 9147   2.938  16.330   9.292  0.1884 -0.2453 -0.1502
  638ERGO    C2 9148   2.956  16.356   9.047 -0.0437 -0.0730  0.1162
  639ERGO   ROH 9149  13.805   6.107  10.668 -0.3934  0.0490  0.0120
  639ERGO    R1 9150  13.816   6.252  10.426 -0.2960  0.0694  0.0292
  639ERGO    R2 9151  13.980   6.179  10.215 -0.1950  0.1032  0.1020
  639ERGO    R3 9152  13.748   6.185  10.074 -0.1289  0.0948 -0.0107
  639ERGO    R4 9153  13.956   6.166   9.871 -0.0121  0.1822  0.0846
  639ERGO    R5 9154  13.799   6.315   9.880 -0.0491  0.1555  0.0444
  639ERGO    C1 9155  13.724   6.165   9.538  0.1564  0.2204 -0.0313
  639ERGO    C2 9156  13.655   5.973   9.237  0.1920  0.3218  0.0907
  640ERGO   ROH 9157  11.765  12.826  10.598 -0.0402 -0.1807 -0.1167
  640ERGO    R1 9158  11.795  12.689  10.352  0.0422  0.0421 -0.2335
  640ERGO    R2 9159  11.588  12.550  10.232  0.2001 -0.2340 -0.1961
  640ERGO    R3 9160  11.648  12.707  10.019 -0.2047  0.0278 -0.1268
  640ERGO    R4 9161  11.551  12.457   9.902  0.3315 -0.1386 -0.2386
  640ERGO    R5 9162  11.740  12.556   9.857  0.1043  0.3187 -0.2337
  640ERGO    C1 9163  11.585  12.551   9.509  0.0280  0.1627 -0.1983
  640ERGO    C2 9164  11.316  12.534   9.297 -0.0766 -0.1498  0.0513
  641ERGO   ROH 9165   9.573   4.348   9.715 -0.0630  0.0350  0.0386
  641ERGO    R1 9166   9.736   4.475   9.521  0.0927 -0.2160  0.0034
  641ERGO    R2 9167   9.793   4.359   9.277 -0.4626 -0.1535 -0.1644
  641ERGO    R3 9168   9.696   4.593   9.179  0.0652  0.2205  0.1498
  641ERGO    R4 9169   9.895   4.507   8.982 -0.4224 -0.2242 -0.1876
  641ERGO    R5 9170   9.887   4.701   9.082  0.2667 -0.2507 -0.0158
  641ERGO    C1 9171   9.863   4.813   8.718  0.0965  0.0858  0.0938
  641ERGO    C2 9172   9.780   4.879   8.455  0.1462  0.1877  0.2138
  642ERGO   ROH 9173   8.238  15.449  10.204 -0.2152  0.0633  0.0018
  642ERGO    R1 9174   8.135  15.290   9.993 -0.2547  0.1126 -0.0175
  642ERGO    R2 9175   7.939  15.379   9.821 -0.0496  0.2810 -0.1753
  642ERGO    R3 9176   8.119  15.310   9.630  0.0046  0.0273 -0.0347
  642ERGO    R4 9177   7.870  15.357   9.483  0.1552  0.2510 -0.2153
  642ERGO    R5 9178   7.994  15.178   9.475 -0.0323  0.1154 -0.0768
  642ERGO    C1 9179   8.000  15.278   9.107  0.3254 -0.0048 -0.1065
  642ERGO    C2 9180   7.837  15.387   8.761  0.1716 -0.1523 -0.1781
  643ERGO   ROH 9181   9.833   8.281   6.161 -0.0005 -0.1032 -0.1139
  643ERGO    R1 9182   9.977   8.333   6.399  0.0301 -0.1088 -0.1326
  643ERGO    R2 9183   9.926   8.552   6.559  0.0708 -0.1012 -0.1400
  643ERGO    R3 9184   9.901   8.363   6.753  0.0755 -0.0861 -0.1228
  643ERGO    R4 9185   9.923   8.616   6.899 -0.2297 -0.0259 -0.1531
  643ERGO    R5 9186  10.045   8.438   6.929 -0.1064  0.0687 -0.0291
  643ERGO    C1 9187   9.897   8.476   7.279 -0.4002  0.0322 -0.1447
  643ERGO    C2 9188   9.790   8.327   7.587  0.0895  0.1106 -0.0163
  644ERGO   ROH 9189   9.869   0.896   9.985 -0.1049 -0.2649 -0.1127
  644ERGO    R1 9190   9.853   1.010   9.727 -0.1925 -0.1527 -0.0589
  644ERGO    R2 9191  10.077   1.063   9.573 -0.2146  0.2621  0.0354
  644ERGO    R3 9192   9.946   0.913   9.388  0.0641  0.1554 -0.0805
  644ERGO    R4 9193  10.128   1.081   9.232 -0.0621  0.4207  0.0649
  644ERGO    R5 9194   9.913   1.061   9.203 -0.0225  0.1664 -0.0524
  644ERGO    C1 9195  10.036   0.950   8.860  0.2884  0.4129 -0.0266
  644ERGO    C2 9196  10.125   1.044   8.525  0.1975  0.1785 -0.2101
  645ERGO   ROH 9197   0.649  17.114  10.539  0.1586  0.0635  0.0154
  645ERGO    R1 9198   0.813  17.103  10.309  0.0073  0.3391 -0.1081
  645ERGO    R2 9199   0.802  16.894  10.128  0.3028  0.2605 -0.0181
  645ERGO    R3 9200   0.763  17.094   9.948 -0.2520  0.1227 -0.0752
  645ERGO    R4 9201   0.778  16.851   9.786  0.6296  0.0757 -0.0249
  645ERGO    R5 9202   0.896  17.031   9.759  0.0826  0.4879  0.0094
  645ERGO    C1 9203   0.726  17.014   9.418  0.2990 -0.1609 -0.0825
  645ERGO    C2 9204   0.690  17.103   9.076 -0.1656  0.0673  0.1160
  646ERGO   ROH 9205   6.825  17.774  10.239  0.1005 -0.2083  0.1504
  646ERGO    R1 9206   6.870  17.551  10.071  0.4905 -0.1641  0.1877
  646ERGO    R2 9207   6.708  17.492   9.855  0.3296 -0.7075  0.4425
  646ERGO    R3 9208   6.943  17.495   9.719  0.1479 -0.1002  0.1008
  646ERGO    R4 9209   6.758  17.352   9.543  0.2857 -0.8022  0.4773
  646ERGO    R5 9210   6.953  17.281   9.611  0.6214 -0.1765  0.2614
  646ERGO    C1 9211   7.009  17.273   9.234  0.0896 -0.2873  0.1768
  646ERGO    C2 9212   7.063  17.239   8.857  0.3652 -0.0207 -0.0737
  647ERGO   ROH 9213   2.318   3.558   6.377 -0.1953  0.0080 -0.0396
  647ERGO    R1 9214   2.331   3.473   6.646 -0.1353  0.0556 -0.0267
  647ERGO    R2 9215   2.569   3.402   6.768 -0.1195 -0.0270 -0.0975
  647ERGO    R3 9216   2.492   3.587   6.952  0.0285  0.0463 -0.1092
  647ERGO    R4 9217   2.706   3.436   7.084 -0.2329 -0.2503 -0.0229
  647ERGO    R5 9218   2.505   3.472   7.162 -0.2256 -0.0023 -0.1191
  647ERGO    C1 9219   2.713   3.629   7.440 -0.1599 -0.3115  0.0095
  647ERGO    C2 9220   2.941   3.590   7.779  0.1407 -0.2454  0.5331
  648ERGO   ROH 9221  17.568  13.107  10.124  0.0417 -0.1233  0.1595
  648ERGO    R1 9222  17.627  12.961   9.888 -0.0196 -0.0286  0.0840
  648ERGO    R2 9223  17.460  12.958   9.669 -0.0288  0.1438  0.0846
  648ERGO    R3 9224  17.684  13.037   9.537 -0.0024  0.1281  0.1204
  648ERGO    R4 9225  17.497  12.956   9.325  0.0910 -0.0193  0.0978
  648ERGO    R5 9226  17.701  12.884   9.353  0.0965  0.0412  0.2027
  648ERGO    C1 9227  17.729  13.029   9.001  0.1856 -0.1289  0.1389
  648ERGO    C2 9228  17.683  13.050   8.710  0.0932 -0.1545  0.0776
  649ERGO   ROH 9229  11.220  17.045  10.343 -0.3932 -0.1853 -0.0717
  649ERGO    R1 9230  11.289  17.063  10.069 -0.3633 -0.0047 -0.0545
  649ERGO    R2 9231  11.323  16.839   9.910 -0.0926  0.0894 -0.1377
  649ERGO    R3 9232  11.139  16.964   9.753 -0.2035 -0.0467 -0.1170
  649ERGO    R4 9233  11.340  16.861   9.566 -0.0209  0.3107 -0.1213
  649ERGO    R5 9234  11.269  17.066   9.580 -0.2809  0.2162 -0.0216
  649ERGO    C1 9235  11.178  16.991   9.217 -0.0832  0.3118 -0.0923
  649ERGO    C2 9236  11.179  16.799   8.877  0.2455  0.3184 -0.3641
  650ERGO   ROH 9237   3.926   4.815  10.225 -0.2166  0.1726 -0.0336
  650ERGO    R1 9238   3.862   4.998  10.019 -0.1092  0.1467 -0.0904
  650ERGO    R2 9239   4.054   5.146   9.886 -0.0304  0.0463 -0.0850
  650ERGO    R3 9240   3.939   5.035   9.665 -0.0234  0.0370 -0.0845
  650ERGO    R4 9241   4.107   5.251   9.561  0.0736 -0.0384 -0.0964
  650ERGO    R5 9242   3.895   5.221   9.521  0.0688  0.0243 -0.1328
  650ERGO    C1 9243   4.031   5.209   9.165  0.1405 -0.0964 -0.1024
  650ERGO    C2 9244   4.036   4.995   8.858  0.1297 -0.1694  0.1714
  651ERGO   ROH 9245  16.311   4.546  10.385 -0.2142 -0.0952 -0.0205
  651ERGO    R1 9246  16.321   4.668  10.130 -0.0668 -0.0668 -0.0010
  651ERGO    R2 9247  16.415   4.537   9.906 -0.0746 -0.0879  0.0149
  651ERGO    R3 9248  16.174   4.609   9.803  0.0000  0.0641 -0.0577
  651ERGO    R4 9249  16.329   4.516   9.572  0.0560  0.0382 -0.0277
  651ERGO    R5 9250  16.227   4.708   9.591  0.1432  0.0937 -0.0159
  651ERGO    C1 9251  16.053   4.572   9.280  0.2019  0.2543 -0.1206
  651ERGO    C2 9252  15.791   4.302   9.106 -0.2582  0.1691  0.2336
  652ERGO   ROH 9253  11.701   9.840  10.339  0.1131  0.1762  0.1035
  652ERGO    R1 9254  11.572   9.817  10.089  0.0547  0.1441  0.1362
  652ERGO    R2 9255  11.495  10.036   9.940  0.0619  0.1262  0.1035
  652ERGO    R3 9256  11.641   9.915   9.745 -0.0007  0.0562  0.1001
  652ERGO    R4 9257  11.449  10.085   9.601 -0.0266  0.0223  0.1003
  652ERGO    R5 9258  11.481   9.871   9.571 -0.0498  0.0124  0.1575
  652ERGO    C1 9259  11.559   9.999   9.220 -0.1369 -0.1040  0.0953
  652ERGO    C2 9260  11.467  10.109   8.927  0.1916 -0.1784 -0.0901
  653ERGO   ROH 9261  15.072   9.151  10.002 -0.0827  0.0661 -0.0720
  653ERGO    R1 9262  14.904   9.202   9.779 -0.1200  0.2701  0.0011
  653ERGO    R2 9263  14.878   9.453   9.668  0.2225  0.2857 -0.0534
  653ERGO    R3 9264  14.947   9.324   9.439 -0.1010  0.1080 -0.0553
  653ERGO    R4 9265  14.815   9.569   9.348  0.2706  0.3174 -0.0516
  653ERGO    R5 9266  14.764   9.366   9.290 -0.1045  0.3823  0.0198
  653ERGO    C1 9267  14.842   9.515   8.948 -0.0052  0.1690 -0.0525
  653ERGO    C2 9268  14.811   9.634   8.657  0.0220 -0.1437  0.0549
  654ERGO   ROH 9269   7.372   0.179   6.228  0.0558 -0.0097 -0.1141
  654ERGO    R1 9270   7.589   0.120   6.400  0.0281 -0.1232 -0.1177
  654ERGO    R2 9271   7.681   0.298   6.590  0.1529 -0.1529 -0.1514
  654ERGO    R3 9272   7.641   0.088   6.758  0.0289 -0.1021 -0.1154
  654ERGO    R4 9273   7.730   0.307   6.932 -0.0664 -0.0555 -0.1204
  654ERGO    R5 9274   7.817   0.107   6.920 -0.0717 -0.0673 -0.0069
  654ERGO    C1 9275   7.722   0.115   7.289 -0.3106  0.0490 -0.0685
  654ERGO    C2 9276   7.689   0.052   7.539  0.0552  0.0678 -0.3097
  655ERGO   ROH 9277  14.915   6.762  10.344 -0.3409 -0.0129 -0.0135
  655ERGO    R1 9278  14.951   6.716  10.067 -0.2668  0.2287 -0.0474
  655ERGO    R2 9279  14.882   6.477   9.946  0.2943  0.1069 -0.1708
  655ERGO    R3 9280  14.738   6.640   9.782 -0.1391 -0.1374 -0.0483
  655ERGO    R4 9281  14.826   6.419   9.610  0.0741  0.0139 -0.1188
  655ERGO    R5 9282  14.856   6.632   9.573 -0.3228  0.0627 -0.1571
  655ERGO    C1 9283  14.659   6.537   9.260 -0.4610 -0.2696  0.0264
  655ERGO    C2 9284  14.440   6.425   8.912  0.1501 -0.0337  0.1026
  656ERGO   ROH 9285  11.060   8.420   6.079  0.2434 -0.2077 -0.1225
  656ERGO    R1 9286  11.225   8.328   6.289  0.2871  0.0478 -0.0395
  656ERGO    R2 9287  11.330   8.497   6.481 -0.0736  0.2188  0.0249
  656ERGO    R3 9288  11.212   8.322   6.653  0.1050  0.0233 -0.0475
  656ERGO    R4 9289  11.417   8.454   6.813 -0.1057  0.2333  0.0344
  656ERGO    R5 9290  11.390   8.240   6.788  0.1703  0.2098 -0.0267
  656ERGO    C1 9291  11.356   8.266   7.167  0.0433  0.0581 -0.0280
  656ERGO    C2 9292  11.275   8.177   7.543  0.0424  0.1401  0.0010
  657ERGO   ROH 9293   4.037   7.844   9.945 -0.1162 -0.0074  0.1225
  657ERGO    R1 9294   4.005   7.893   9.668 -0.1307 -0.0042  0.1242
  657ERGO    R2 9295   4.180   7.794   9.478 -0.0509  0.1253  0.1245
  657ERGO    R3 9296   3.953   7.693   9.368  0.0200 -0.0152  0.1056
  657ERGO    R4 9297   4.157   7.660   9.160  0.0602  0.0665  0.1410
  657ERGO    R5 9298   3.964   7.758   9.138  0.0123 -0.0444  0.1002
  657ERGO    C1 9299   3.930   7.486   8.872  0.1916 -0.0995  0.1331
  657ERGO    C2 9300   3.778   7.398   8.585  0.2104  0.2193 -0.2692
  658ERGO   ROH 9301  16.340   0.420  10.505 -0.0892 -0.0301 -0.1205
  658ERGO    R1 9302  16.334   0.261  10.271 -0.0519  0.0253 -0.1590
  658ERGO    R2 9303  16.121   0.263  10.095 -0.0440  0.0303 -0.1651
  658ERGO    R3 9304  16.315   0.318   9.912 -0.0478  0.1070 -0.1470
  658ERGO    R4 9305  16.101   0.189   9.758  0.0424 -0.0453 -0.1543
  658ERGO    R5 9306  16.311   0.130   9.763  0.0784  0.0739 -0.1128
  658ERGO    C1 9307  16.271   0.198   9.390  0.0892 -0.0175 -0.1312
  658ERGO    C2 9308  16.366   0.283   9.062  0.1346 -0.2178 -0.0305
  659ERGO   ROH 9309   7.417   8.065  10.322  0.1364  0.0251  0.0865
  659ERGO    R1 9310   7.474   8.041  10.045 -0.0048  0.0007  0.0593
  659ERGO    R2 9311   7.669   7.872   9.948 -0.1120 -0.0683 -0.0317
  659ERGO    R3 9312   7.465   7.776   9.796 -0.2175  0.0001  0.0643
  659ERGO    R4 9313   7.706   7.649   9.686 -0.2935 -0.0025 -0.1154
  659ERGO    R5 9314   7.557   7.763   9.575 -0.3484  0.0492  0.0037
  659ERGO    C1 9315   7.537   7.430   9.391 -0.4982  0.0999 -0.0739
  659ERGO    C2 9316   7.738   7.262   9.118 -0.3123 -0.4544 -0.2451
  660ERGO   ROH 9317   9.781  17.458  10.395 -0.0661  0.0091  0.0067
  660ERGO    R1 9318   9.928  17.330  10.189 -0.0474  0.0073  0.0218
  660ERGO    R2 9319   9.806  17.204   9.976 -0.0260  0.0588 -0.0179
  660ERGO    R3 9320   9.966  17.368   9.829  0.0371  0.0445  0.0337
  660ERGO    R4 9321   9.882  17.158   9.642 -0.0057  0.1032 -0.0198
  660ERGO    R5 9322  10.087  17.219   9.685  0.0100  0.0364  0.0159
  660ERGO    C1 9323  10.078  17.285   9.310  0.0654  0.1157  0.0274
  660ERGO    C2 9324  10.247  17.257   8.958  0.1154  0.4587  0.0184
  661ERGO   ROH 9325   1.252  11.773  10.247  0.0456 -0.2954 -0.0151
  661ERGO    R1 9326   1.390  11.794  10.001  0.0311 -0.1088 -0.0089
  661ERGO    R2 9327   1.315  11.652   9.776  0.1074 -0.0509 -0.0700
  661ERGO    R3 9328   1.310  11.898   9.661 -0.0311 -0.0019  0.0374
  661ERGO    R4 9329   1.325  11.712   9.436  0.2344  0.1037 -0.0400
  661ERGO    R5 9330   1.459  11.880   9.474  0.0825  0.1971  0.1033
  661ERGO    C1 9331   1.327  11.979   9.130  0.1783  0.2396  0.0784
  661ERGO    C2 9332   1.265  12.139   8.832  0.0633  0.2098  0.1474
  662ERGO   ROH 9333  15.952   5.170   6.059 -0.0955 -0.3668 -0.0026
  662ERGO    R1 9334  15.956   5.162   6.342 -0.0197 -0.3650 -0.0038
  662ERGO    R2 9335  16.158   5.039   6.485  0.0944 -0.2369 -0.0553
  662ERGO    R3 9336  16.176   5.281   6.607 -0.0287 -0.2256 -0.0578
  662ERGO    R4 9337  16.230   5.087   6.820  0.2218 -0.1946 -0.0877
  662ERGO    R5 9338  16.081   5.246   6.824  0.1021 -0.3053 -0.0111
  662ERGO    C1 9339  16.288   5.343   7.129  0.1805 -0.1595 -0.1089
  662ERGO    C2 9340  16.154   5.405   7.448  0.1082  0.2649  0.2078
  663ERGO   ROH 9341   5.880   0.628   6.645 -0.1899 -0.4208  0.0946
  663ERGO    R1 9342   5.992   0.519   6.881 -0.0223 -0.2706  0.0849
  663ERGO    R2 9343   6.238   0.600   6.980 -0.0313 -0.0876 -0.0506
  663ERGO    R3 9344   6.095   0.645   7.207  0.0431 -0.0973  0.0001
  663ERGO    R4 9345   6.361   0.569   7.301  0.0956 -0.0633 -0.0955
  663ERGO    R5 9346   6.172   0.479   7.361  0.1234 -0.0873 -0.0229
  663ERGO    C1 9347   6.299   0.594   7.701  0.2394 -0.0583 -0.0739
  663ERGO    C2 9348   6.258   0.537   8.011 -0.2727 -0.0940  0.2079
  664ERGO   ROH 9349  17.901   4.271  10.201  0.0755  0.0741 -0.1595
  664ERGO    R1 9350  17.888   4.117   9.964  0.1030 -0.0147 -0.1022
  664ERGO    R2 9351  17.663   4.108   9.805  0.1077 -0.1140 -0.0948
  664ERGO    R3 9352  17.837   4.181   9.610  0.0909 -0.1566 -0.1280
  664ERGO    R4 9353  17.602   4.082   9.465 -0.1164  0.2383 -0.0875
  664ERGO    R5 9354  17.808   4.016   9.439 -0.2015  0.0129 -0.2538
  664ERGO    C1 9355  17.731   4.136   9.085 -0.2628  0.4034 -0.1146
  664ERGO    C2 9356  17.672   4.139   8.769 -0.3600 -0.1073 -0.2552
  665ERGO   ROH 9357   2.785   4.862  10.346  0.1344  0.0006 -0.0458
  665ERGO    R1 9358   2.648   4.747  10.127 -0.0273  0.0329  0.0373
  665ERGO    R2 9359   2.528   4.900   9.930 -0.0200  0.0601  0.0548
  665ERGO    R3 9360   2.681   4.747   9.765 -0.1807 -0.0682  0.0222
  665ERGO    R4 9361   2.497   4.891   9.586  0.0382  0.2519  0.0435
  665ERGO    R5 9362   2.529   4.675   9.594 -0.2429  0.2025 -0.0424
  665ERGO    C1 9363   2.622   4.743   9.230 -0.0788  0.2432  0.0063
  665ERGO    C2 9364   2.535   5.051   9.056 -0.0116 -0.1845  0.0640
  666ERGO   ROH 9365  14.588  12.545  10.526  0.1552 -0.1016 -0.0924
  666ERGO    R1 9366  14.494  12.563  10.259  0.1007 -0.1979 -0.0801
  666ERGO    R2 9367  14.474  12.803  10.125 -0.2081 -0.2071 -0.0623
  666ERGO    R3 9368  14.626  12.675   9.939 -0.0691 -0.0134 -0.0867
  666ERGO    R4 9369  14.463  12.865   9.785 -0.2308 -0.1307 -0.0484
  666ERGO    R5 9370  14.480  12.650   9.751 -0.0243 -0.1035 -0.1063
  666ERGO    C1 9371  14.598  12.780   9.413 -0.1136  0.0956 -0.0633
  666ERGO    C2 9372  14.508  12.916   9.108 -0.2115  0.0483  0.0539
  667ERGO   ROH 9373   5.491   9.523   9.779 -0.0460 -0.0905 -0.1530
  667ERGO    R1 9374   5.442   9.616   9.516  0.2467  0.0351 -0.1667
  667ERGO    R2 9375   5.645   9.657   9.333  0.4156 -0.3231 -0.0713
  667ERGO    R3 9376   5.495   9.492   9.177  0.1695 -0.0284 -0.1550
  667ERGO    R4 9377   5.697   9.602   8.995  0.3422 -0.2496 -0.0947
  667ERGO    R5 9378   5.480   9.606   8.967  0.3463  0.0896 -0.1036
  667ERGO    C1 9379   5.585   9.415   8.653  0.0686  0.0699 -0.1866
  667ERGO    C2 9380   5.667   9.374   8.267 -0.2543 -0.0854 -0.2160
  668ERGO   ROH 9381  15.476  13.128  10.220 -0.0237  0.1233 -0.0417
  668ERGO    R1 9382  15.500  13.257   9.969  0.2118  0.0165 -0.0743
  668ERGO    R2 9383  15.704  13.200   9.791  0.0741 -0.4508 -0.0827
  668ERGO    R3 9384  15.498  13.157   9.619 -0.0414 -0.0646 -0.0538
  668ERGO    R4 9385  15.712  13.268   9.452  0.1696 -0.4774 -0.0879
  668ERGO    R5 9386  15.508  13.342   9.467  0.3002 -0.0770 -0.0634
  668ERGO    C1 9387  15.523  13.267   9.094  0.1170 -0.1304 -0.0640
  668ERGO    C2 9388  15.695  13.157   8.833 -0.0417  0.1364 -0.2251
  669ERGO   ROH 9389  14.135  15.814  10.479 -0.0634  0.1803 -0.1234
  669ERGO    R1 9390  14.271  15.808  10.231 -0.1240 -0.1256 -0.1532
  669ERGO    R2 9391  14.228  15.610  10.042 -0.5197 -0.1029 -0.0980
  669ERGO    R3 9392  14.180  15.822   9.879 -0.1786 -0.0501 -0.1355
  669ERGO    R4 9393  14.185  15.590   9.700 -0.2817 -0.0505 -0.1318
  669ERGO    R5 9394  14.303  15.773   9.680 -0.0785 -0.1715 -0.0427
  669ERGO    C1 9395  14.116  15.777   9.347  0.1772  0.0294 -0.1868
  669ERGO    C2 9396  14.251  15.781   9.073  0.1449 -0.0357 -0.3307
  670ERGO   ROH 9397   7.663  13.993  10.389 -0.0879 -0.1879  0.0263
  670ERGO    R1 9398   7.729  13.840  10.160  0.0197 -0.1187  0.0113
  670ERGO    R2 9399   7.574  13.839   9.931  0.0746 -0.1280 -0.0232
  670ERGO    R3 9400   7.808  13.907   9.811  0.0789 -0.0231  0.0419
  670ERGO    R4 9401   7.624  13.852   9.590  0.1229  0.0230 -0.0115
  670ERGO    R5 9402   7.821  13.763   9.620  0.1412  0.0556 -0.0161
  670ERGO    C1 9403   7.873  13.923   9.278  0.1550  0.2095  0.0563
  670ERGO    C2 9404   7.845  13.957   8.991  0.2410 -0.0413 -0.2981
  671ERGO   ROH 9405   3.200   3.908  10.547  0.1883 -0.0053 -0.0698
  671ERGO    R1 9406   3.257   4.080  10.330  0.2184  0.0095 -0.0506
  671ERGO    R2 9407   3.505   4.090  10.209  0.2113 -0.0461 -0.0729
  671ERGO    R3 9408   3.361   4.042   9.983  0.1749  0.0274 -0.0654
  671ERGO    R4 9409   3.615   4.154   9.887  0.1930 -0.0269 -0.0752
  671ERGO    R5 9410   3.415   4.225   9.838  0.2081  0.0342 -0.0432
  671ERGO    C1 9411   3.544   4.145   9.488  0.1482  0.0534 -0.0695
  671ERGO    C2 9412   3.560   4.345   9.144  0.1150  0.2834  0.2608
  672ERGO   ROH 9413  13.953  14.723  10.412  0.0090  0.1668 -0.0475
  672ERGO    R1 9414  13.993  14.593  10.164 -0.2798  0.0584 -0.0397
  672ERGO    R2 9415  13.809  14.606   9.958 -0.2495  0.4749 -0.0450
  672ERGO    R3 9416  14.023  14.692   9.815 -0.0345 -0.0236 -0.0445
  672ERGO    R4 9417  13.819  14.627   9.613 -0.2918  0.6549 -0.0365
  672ERGO    R5 9418  14.024  14.551   9.620 -0.4789  0.0769 -0.1327
  672ERGO    C1 9419  14.026  14.720   9.278 -0.1145  0.2916 -0.0311
  672ERGO    C2 9420  14.010  14.765   8.944  0.0043 -0.1410  0.1340
  673ERGO   ROH 9421  15.011  10.444   9.510  0.2980 -0.1818  0.0038
  673ERGO    R1 9422  14.965  10.549   9.251  0.0726 -0.0502  0.0940
  673ERGO    R2 9423  15.137  10.502   9.039  0.0373  0.2853 -0.0136
  673ERGO    R3 9424  14.910  10.414   8.917  0.0808  0.1190  0.0230
  673ERGO    R4 9425  15.091  10.481   8.697 -0.0354  0.3463 -0.0079
  673ERGO    R5 9426  14.887  10.554   8.725 -0.0954  0.1582  0.0695
  673ERGO    C1 9427  14.851  10.386   8.384 -0.0369  0.2257  0.0298
  673ERGO    C2 9428  14.763  10.359   7.960  0.0520  0.1575  0.0708
  674ERGO   ROH 9429  14.460  16.453   6.723  0.0722 -0.0143 -0.0058
  674ERGO    R1 9430  14.387  16.415   6.994  0.0434  0.0076 -0.0110
  674ERGO    R2 9431  14.340  16.165   7.102 -0.0684  0.0254 -0.0234
  674ERGO    R3 9432  14.526  16.244   7.284 -0.0436 -0.0619 -0.0089
  674ERGO    R4 9433  14.381  16.026   7.416 -0.3157  0.1554  0.0692
  674ERGO    R5 9434  14.413  16.227   7.494 -0.1351  0.1713 -0.0332
  674ERGO    C1 9435  14.579  16.020   7.769 -0.4365  0.1493  0.1367
  674ERGO    C2 9436  14.486  15.960   8.004 -0.2940 -0.3074  0.1704
  675loPI    C1 9437   8.108  11.990   5.830  0.0147 -0.1291  0.0950
  675loPI    C2 9438   7.915  12.337   5.882  0.2596  0.0548 -0.1850
  675loPI    C3 9439   7.885  12.142   5.534  0.0859 -0.2340 -0.0132
  675loPI   PO4 9440   8.081  11.837   6.114  0.0226  0.1577 -0.0026
  675loPI   GL1 9441   8.320  11.589   6.312  0.0560 -0.1683 -0.1161
  675loPI   GL2 9442   8.604  11.374   6.289 -0.1602  0.2022  0.1080
  675loPI   C1A 9443   8.229  11.448   6.693 -0.3662 -0.0408 -0.0682
  675loPI   C2A 9444   8.201  11.567   7.161 -0.1988 -0.1468 -0.1111
  675loPI   C3A 9445   8.210  11.700   7.628  0.3431  0.4332  0.1564
  675loPI   C4A 9446   8.230  11.957   7.932 -0.2801  0.0474 -0.1603
  675loPI   C5A 9447   8.508  11.950   8.278  0.0537 -0.0775 -0.0374
  675loPI   C6A 9448   8.656  12.188   8.519 -0.0837  0.1345  0.1357
  675loPI   C1B 9449   8.637  11.077   6.700  0.2279  0.3208 -0.2186
  675loPI   C2B 9450   8.770  10.920   6.992 -0.1406 -0.2380  0.0849
  675loPI   C3B 9451   8.817  10.863   7.372 -0.0218 -0.5086  0.0521
  675loPI   C4B 9452   8.869  10.594   7.746 -0.0217 -0.1287  0.0109
  676loPI    C1 9453  13.080  16.341   5.867 -0.0087  0.0633  0.2099
  676loPI    C2 9454  12.688  16.393   5.933 -0.0549 -0.1626  0.1213
  676loPI    C3 9455  12.835  16.025   5.875  0.1674 -0.0770  0.1281
  676loPI   PO4 9456  13.153  16.593   6.014 -0.1752 -0.3131 -0.0169
  676loPI   GL1 9457  12.870  16.870   6.329  0.1274  0.1409  0.2843
  676loPI   GL2 9458  12.963  16.609   6.440 -0.0214 -0.1292  0.0239
  676loPI   C1A 9459  12.584  16.948   6.668  0.0129  0.0858  0.2521
  676loPI   C2A 9460  12.399  16.986   7.050 -0.1376 -0.1208  0.3708
  676loPI   C3A 9461  12.259  16.780   7.398 -0.0125 -0.1649 -0.3420
  676loPI   C4A 9462  12.303  16.697   7.843  0.1505  0.0396 -0.0129
  676loPI   C5A 9463  12.293  16.991   8.249  0.3984  0.2486  0.0450
  676loPI   C6A 9464  12.366  17.396   8.311  0.0748  0.2503 -0.0391
  676loPI   C1B 9465  13.047  16.422   6.910  0.2847  0.0007  0.1414
  676loPI   C2B 9466  13.074  16.261   7.324 -0.0307 -0.2507  0.0053
  676loPI   C3B 9467  13.269  15.860   7.420 -0.0714 -0.0628 -0.0961
  676loPI   C4B 9468  13.442  15.822   7.770 -0.0033 -0.3629  0.1008
  677loPI    C1 9469  16.272   2.207   5.935  0.0442  0.0127  0.0481
  677loPI    C2 9470  16.430   2.553   5.810 -0.2155  0.1145 -0.0037
  677loPI    C3 9471  16.621   2.333   6.084  0.0765  0.1723 -0.1577
  677loPI   PO4 9472  16.000   2.257   6.031 -0.2615  0.1868 -0.1647
  677loPI   GL1 9473  15.806   2.480   6.370 -0.0287  0.0591  0.0060
  677loPI   GL2 9474  15.827   2.660   6.498  0.0018  0.1972 -0.0838
  677loPI   C1A 9475  15.895   2.283   6.818 -0.0302 -0.2244 -0.1741
  677loPI   C2A 9476  15.968   2.185   7.279  0.2057 -0.3772  0.1217
  677loPI   C3A 9477  16.049   2.204   7.721  0.1222  0.2281 -0.1725
  677loPI   C4A 9478  16.171   2.124   8.142 -0.0456  0.0283 -0.0337
  677loPI   C5A 9479  15.983   2.227   8.569  0.0646  0.1329 -0.2497
  677loPI   C6A 9480  16.208   2.506   8.833  0.0929 -0.4243 -0.2699
  677loPI   C1B 9481  15.980   2.751   6.956  0.2774 -0.0320  0.1234
  677loPI   C2B 9482  16.047   2.696   7.389  0.2251  0.1436 -0.0964
  677loPI   C3B 9483  16.104   2.725   7.804 -0.2685 -0.0983 -0.2069
  677loPI   C4B 9484  16.183   2.612   8.226 -0.2388  0.1285  0.0404
  678loPI    C1 9485   5.163  10.013   5.578 -0.2356  0.2049 -0.1375
  678loPI    C2 9486   4.907   9.778   5.379  0.0589 -0.1877 -0.0650
  678loPI    C3 9487   5.190   9.615   5.611  0.0930  0.2503  0.2137
  678loPI   PO4 9488   5.001  10.169   5.730 -0.1520 -0.2095 -0.2239
  678loPI   GL1 9489   4.807  10.109   6.117 -0.2231 -0.1295  0.0502
  678loPI   GL2 9490   4.757  10.471   6.076  0.1694  0.1081  0.0037
  678loPI   C1A 9491   4.639  10.041   6.464  0.0881  0.3410 -0.1731
  678loPI   C2A 9492   4.594  10.062   6.895 -0.1055  0.1711 -0.2930
  678loPI   C3A 9493   4.575  10.180   7.382  0.5336  0.0480  0.0267
  678loPI   C4A 9494   4.544  10.238   7.811 -0.0273  0.1609 -0.2735
  678loPI   C5A 9495   4.151  10.265   8.127  0.2328 -0.1404 -0.1425
  678loPI   C6A 9496   3.808  10.498   8.385  0.2302  0.1096  0.0758
  678loPI   C1B 9497   4.585  10.566   6.605 -0.1728  0.0678 -0.0566
  678loPI   C2B 9498   4.568  10.557   7.072  0.0929  0.1771 -0.1801
  678loPI   C3B 9499   4.586  10.648   7.466  0.0057  0.1084  0.1872
  678loPI   C4B 9500   4.780  10.685   7.799  0.0959 -0.2608  0.1479
  679loPI    C1 9501  15.852   4.507   5.695 -0.3468  0.0477  0.0616
  679loPI    C2 9502  15.818   4.585   5.304 -0.2297  0.0393  0.0492
  679loPI    C3 9503  15.728   4.221   5.444  0.1534 -0.0937 -0.0375
  679loPI   PO4 9504  15.692   4.789   5.852 -0.1267  0.2962  0.0068
  679loPI   GL1 9505  15.728   4.746   6.254 -0.1805  0.0439 -0.4065
  679loPI   GL2 9506  16.001   4.618   6.360 -0.1304 -0.0840 -0.0096
  679loPI   C1A 9507  15.793   4.832   6.735 -0.0630 -0.0390 -0.4440
  679loPI   C2A 9508  15.840   4.862   7.085 -0.1507 -0.3990 -0.0894
  679loPI   C3A 9509  16.240   4.908   7.365  0.1475 -0.1030  0.3283
  679loPI   C4A 9510  16.413   5.053   7.801  0.0362  0.0271 -0.2156
  679loPI   C5A 9511  16.656   5.104   8.126 -0.0588 -0.0299  0.1830
  679loPI   C6A 9512  16.707   4.837   8.488 -0.1377  0.1155  0.0848
  679loPI   C1B 9513  16.167   4.495   6.888 -0.1953  0.2515 -0.1189
  679loPI   C2B 9514  16.399   4.417   7.228 -0.3051 -0.0418  0.0306
  679loPI   C3B 9515  16.491   4.465   7.684  0.0887 -0.0827 -0.0812
  679loPI   C4B 9516  16.417   4.624   8.093 -0.0001 -0.0622 -0.3159
  680loPI    C1 9517   4.149  10.507   5.706 -0.0114  0.0575 -0.1150
  680loPI    C2 9518   4.203  10.802   5.442  0.0017  0.0441 -0.1273
  680loPI    C3 9519   4.519  10.617   5.603 -0.0069  0.0055 -0.1549
  680loPI   PO4 9520   3.851  10.437   5.600  0.3442 -0.3436 -0.4884
  680loPI   GL1 9521   3.651  10.380   5.896 -0.1198 -0.0297 -0.0647
  680loPI   GL2 9522   3.777  10.506   6.093 -0.2373  0.2743 -0.1062
  680loPI   C1A 9523   3.278  10.268   6.165 -0.0455 -0.2147  0.0062
  680loPI   C2A 9524   3.222  10.188   6.637 -0.0169  0.1863  0.1090
  680loPI   C3A 9525   3.239  10.257   7.116 -0.1871 -0.1386 -0.0659
  680loPI   C4A 9526   3.163  10.216   7.578  0.1567  0.2130  0.2329
  680loPI   C5A 9527   3.055  10.210   8.006 -0.0014  0.2089  0.2926
  680loPI   C6A 9528   2.777   9.895   8.190 -0.0513 -0.0255 -0.0024
  680loPI   C1B 9529   3.669  10.485   6.515 -0.1120 -0.0466  0.1122
  680loPI   C2B 9530   3.629  10.575   6.893 -0.1703  0.0294 -0.2397
  680loPI   C3B 9531   3.573  10.529   7.416 -0.1260 -0.0035 -0.1637
  680loPI   C4B 9532   3.651  10.559   7.850 -0.1511  0.0814  0.0127
  681loPI    C1 9533   2.520  11.295   5.198 -0.2051  0.0626  0.0534
  681loPI    C2 9534   2.888  11.190   5.084 -0.2081 -0.0410  0.1369
  681loPI    C3 9535   2.603  11.249   4.809 -0.1272  0.0503  0.0715
  681loPI   PO4 9536   2.641  11.488   5.422 -0.2103  0.1741  0.0001
  681loPI   GL1 9537   2.611  11.599   5.856  0.1048 -0.1452  0.2089
  681loPI   GL2 9538   2.525  11.883   5.949 -0.2994  0.1732  0.2410
  681loPI   C1A 9539   2.719  11.507   6.203 -0.0275 -0.2084 -0.0510
  681loPI   C2A 9540   2.779  11.552   6.503  0.1423 -0.0795  0.1387
  681loPI   C3A 9541   2.735  11.599   6.919 -0.0466  0.2505 -0.2259
  681loPI   C4A 9542   2.785  11.681   7.349  0.1923  0.0270  0.4121
  681loPI   C5A 9543   2.749  11.700   7.731 -0.0187  0.0292 -0.0770
  681loPI   C6A 9544   2.672  11.800   8.117  0.2840 -0.1518  0.0060
  681loPI   C1B 9545   2.271  11.783   6.263 -0.1370 -0.2436 -0.0211
  681loPI   C2B 9546   2.260  11.779   6.718 -0.0727 -0.0807  0.1449
  681loPI   C3B 9547   2.316  11.834   7.110  0.0563  0.0018  0.0707
  681loPI   C4B 9548   2.307  11.864   7.513 -0.1940 -0.1277  0.0385
  682loPI    C1 9549  14.070   0.366   5.959 -0.1238 -0.1743  0.0201
  682loPI    C2 9550  14.319   0.082   5.827 -0.0681 -0.0563 -0.1317
  682loPI    C3 9551  14.237   0.399   5.597 -0.1381  0.0461  0.0323
  682loPI   PO4 9552  14.036   0.168   6.240 -0.1061 -0.1305 -0.1068
  682loPI   GL1 9553  14.252   0.105   6.676 -0.0984 -0.2582 -0.2470
  682loPI   GL2 9554  14.012   0.320   6.783 -0.3889  0.3500  0.2998
  682loPI   C1A 9555  14.256   0.129   7.149 -0.3146  0.2036  0.0100
  682loPI   C2A 9556  14.306   0.131   7.517 -0.4548  0.1338 -0.0415
  682loPI   C3A 9557  14.244   0.230   7.926  0.1972 -0.0716  0.4129
  682loPI   C4A 9558  14.235   0.299   8.372 -0.1236  0.1993 -0.0053
  682loPI   C5A 9559  14.302  -0.011   8.688 -0.1565  0.0599 -0.0278
  682loPI   C6A 9560  14.373  -0.294   9.030  0.0141  0.2038 -0.3896
  682loPI   C1B 9561  13.968   0.579   7.083  0.2420 -0.2671  0.0785
  682loPI   C2B 9562  14.053   0.511   7.504  0.1275 -0.3247 -0.0139
  682loPI   C3B 9563  13.963   0.693   7.962  0.0730  0.4167  0.1144
  682loPI   C4B 9564  13.599   0.762   8.183  0.2163 -0.1229  0.1234
  683loPI    C1 9565  14.865   2.833   5.746  0.0544 -0.1095  0.1183
  683loPI    C2 9566  14.853   3.223   5.660  0.0214 -0.1052  0.1427
  683loPI    C3 9567  15.101   2.982   5.459 -0.1697 -0.1234 -0.0765
  683loPI   PO4 9568  14.865   2.767   6.059 -0.1467 -0.0648 -0.1845
  683loPI   GL1 9569  14.788   2.496   6.404  0.0845 -0.2385 -0.1249
  683loPI   GL2 9570  14.617   2.796   6.587  0.2206  0.0337  0.3102
  683loPI   C1A 9571  14.967   2.602   6.838  0.2525 -0.2368  0.3297
  683loPI   C2A 9572  15.106   2.737   7.155  0.2200 -0.0347  0.1255
  683loPI   C3A 9573  15.129   2.787   7.614 -0.0385 -0.2700 -0.1889
  683loPI   C4A 9574  14.933   2.701   8.014  0.1269 -0.2548 -0.2058
  683loPI   C5A 9575  14.743   2.388   8.268  0.0010 -0.1449 -0.1480
  683loPI   C6A 9576  14.380   2.159   8.305  0.1000 -0.1223  0.1166
  683loPI   C1B 9577  14.571   2.986   6.909 -0.4495  0.1444  0.1550
  683loPI   C2B 9578  14.467   3.201   7.338 -0.1262 -0.0386 -0.2229
  683loPI   C3B 9579  14.641   3.474   7.666 -0.1938 -0.0092 -0.0534
  683loPI   C4B 9580  14.707   3.508   8.116 -0.3154 -0.0644 -0.2287
  684loPI    C1 9581   6.640  16.525   6.008 -0.0025 -0.1769 -0.0192
  684loPI    C2 9582   6.336  16.341   6.191 -0.1188  0.1232  0.0946
  684loPI    C3 9583   6.281  16.508   5.832 -0.0434  0.0352  0.0418
  684loPI   PO4 9584   6.745  16.647   6.159  0.1147 -0.1399 -0.0031
  684loPI   GL1 9585   6.668  16.573   6.611  0.1923 -0.0689  0.1468
  684loPI   GL2 9586   6.354  16.683   6.491 -0.2550 -0.1694 -0.0576
  684loPI   C1A 9587   6.716  16.507   7.074  0.2169 -0.1688 -0.1408
  684loPI   C2A 9588   6.729  16.336   7.579  0.0774 -0.3150  0.0945
  684loPI   C3A 9589   6.743  16.035   7.881 -0.0184  0.1535  0.3695
  684loPI   C4A 9590   6.595  15.897   8.264  0.2740 -0.2560 -0.0939
  684loPI   C5A 9591   6.458  15.513   8.517  0.0096  0.0813 -0.0494
  684loPI   C6A 9592   6.533  15.368   8.851 -0.2314 -0.0212 -0.0931
  684loPI   C1B 9593   6.412  16.949   6.882 -0.0986 -0.0560  0.3593
  684loPI   C2B 9594   6.263  16.994   7.312 -0.1356 -0.0401  0.0672
  684loPI   C3B 9595   6.188  16.941   7.765  0.1508 -0.0504 -0.3508
  684loPI   C4B 9596   6.051  16.761   8.141  0.0338 -0.1448  0.0243
  685loPI    C1 9597   9.152   9.543   5.648  0.2696 -0.0292  0.2658
  685loPI    C2 9598   8.997   9.405   5.990 -0.0644  0.0124  0.1353
  685loPI    C3 9599   8.765   9.441   5.666  0.2426 -0.0016 -0.0901
  685loPI   PO4 9600   9.331   9.757   5.785  0.0046  0.0771  0.0944
  685loPI   GL1 9601   9.470   9.763   6.185 -0.3037  0.3516 -0.0800
  685loPI   GL2 9602   9.514   9.943   6.338 -0.3204  0.1058 -0.2011
  685loPI   C1A 9603   9.099   9.548   6.457  0.0119  0.2144 -0.2902
  685loPI   C2A 9604   8.899   9.652   6.731 -0.0681 -0.2369 -0.6032
  685loPI   C3A 9605   8.774   9.584   7.162  0.0242  0.1223  0.0500
  685loPI   C4A 9606   8.605   9.462   7.590 -0.3114 -0.0331 -0.0915
  685loPI   C5A 9607   8.437   9.267   7.972 -0.0258  0.0713 -0.0541
  685loPI   C6A 9608   8.243   8.879   8.065 -0.2519  0.2430 -0.1254
  685loPI   C1B 9609   9.456   9.825   6.774  0.1431 -0.0174 -0.1772
  685loPI   C2B 9610   9.322   9.698   7.210 -0.1081 -0.0261 -0.2207
  685loPI   C3B 9611   9.201   9.569   7.639  0.0771 -0.1784 -0.0279
  685loPI   C4B 9612   8.901   9.618   7.944  0.2309 -0.2978 -0.2338
  686loPI    C1 9613   4.719  11.207   5.319 -0.3763  0.2160 -0.3118
  686loPI    C2 9614   4.640  10.878   5.106  0.0112 -0.1762  0.1295
  686loPI    C3 9615   5.017  11.002   5.150 -0.0915  0.0745  0.3324
  686loPI   PO4 9616   4.528  11.176   5.461  0.1585 -0.0720  0.1765
  686loPI   GL1 9617   4.353  11.303   5.901 -0.1116 -0.2161 -0.2823
  686loPI   GL2 9618   4.443  11.021   5.910 -0.2129  0.0380 -0.0260
  686loPI   C1A 9619   4.221  11.191   6.345 -0.0921  0.0350  0.0224
  686loPI   C2A 9620   4.175  11.312   6.809  0.2167 -0.3076  0.1216
  686loPI   C3A 9621   4.133  11.291   7.297  0.3494  0.1380  0.0953
  686loPI   C4A 9622   4.224  11.094   7.746 -0.0163 -0.2138 -0.3373
  686loPI   C5A 9623   4.254  11.264   8.262  0.0834 -0.3591 -0.1314
  686loPI   C6A 9624   3.952  11.501   8.423  0.1700 -0.2692 -0.0504
  686loPI   C1B 9625   4.333  10.736   6.108  0.0211 -0.0827 -0.0684
  686loPI   C2B 9626   4.089  10.745   6.486 -0.0406  0.1703 -0.2630
  686loPI   C3B 9627   4.146  10.810   6.924 -0.1569  0.1174 -0.3034
  686loPI   C4B 9628   4.107  10.789   7.336 -0.0473  0.4671 -0.0458
  687loPI    C1 9629  16.456   3.888   5.889 -0.0384 -0.0164 -0.1320
  687loPI    C2 9630  16.339   4.198   5.665 -0.3050  0.0312  0.0672
  687loPI    C3 9631  16.542   3.897   5.499 -0.1133  0.2721 -0.1448
  687loPI   PO4 9632  16.198   3.738   5.994  0.0902  0.0507  0.1161
  687loPI   GL1 9633  16.147   3.312   6.200 -0.1350 -0.2465 -0.1134
  687loPI   GL2 9634  16.142   3.002   6.318  0.1692 -0.0572  0.1916
  687loPI   C1A 9635  16.082   3.394   6.616 -0.0501 -0.0298 -0.1889
  687loPI   C2A 9636  15.937   3.285   7.022 -0.0326 -0.2690 -0.0959
  687loPI   C3A 9637  15.970   3.316   7.413 -0.0467  0.1876 -0.1312
  687loPI   C4A 9638  16.086   3.266   7.822 -0.0217 -0.0060 -0.2664
  687loPI   C5A 9639  16.166   3.115   8.194 -0.2146  0.2920  0.0569
  687loPI   C6A 9640  16.103   2.972   8.588  0.1941 -0.1466 -0.0732
  687loPI   C1B 9641  16.381   2.970   6.697 -0.2039  0.4192  0.3694
  687loPI   C2B 9642  16.493   2.937   7.037  0.0381  0.2897 -0.2124
  687loPI   C3B 9643  16.393   3.013   7.471  0.1008 -0.0695  0.2565
  687loPI   C4B 9644  16.545   2.949   7.899  0.0607 -0.1165 -0.3612
  688loPI    C1 9645  11.200  13.732   5.794  0.1727  0.0578 -0.0355
  688loPI    C2 9646  10.937  13.626   5.511  0.0964 -0.1559  0.1133
  688loPI    C3 9647  11.107  13.988   5.500 -0.1405 -0.0469 -0.0311
  688loPI   PO4 9648  11.114  13.609   6.008  0.2437 -0.2514 -0.0905
  688loPI   GL1 9649  11.190  13.600   6.432 -0.0725  0.4183  0.0538
  688loPI   GL2 9650  11.439  13.713   6.615  0.1530 -0.1562  0.1525
  688loPI   C1A 9651  10.883  13.577   6.815  0.0924 -0.0425 -0.0213
  688loPI   C2A 9652  10.571  13.669   7.235  0.1669  0.2534 -0.4529
  688loPI   C3A 9653  10.440  13.624   7.647 -0.1447  0.0655  0.2711
  688loPI   C4A 9654  10.475  13.621   8.009 -0.1261  0.0950 -0.0182
  688loPI   C5A 9655  10.719  13.718   8.312 -0.0269  0.1390  0.0093
  688loPI   C6A 9656  10.844  13.950   8.631  0.5627  0.0824 -0.0199
  688loPI   C1B 9657  11.149  13.945   6.870 -0.5142  0.3227 -0.0283
  688loPI   C2B 9658  11.029  13.979   7.329  0.0530 -0.0888 -0.0719
  688loPI   C3B 9659  11.215  14.025   7.663 -0.3163  0.0766  0.2167
  688loPI   C4B 9660  11.414  14.425   7.965  0.0688  0.1738 -0.0245
  689loPI    C1 9661   7.960  15.934   5.505  0.1450 -0.0907  0.0796
  689loPI    C2 9662   7.717  15.625   5.580  0.1337 -0.0255  0.3229
  689loPI    C3 9663   7.563  15.985   5.496  0.1464 -0.0970 -0.0211
  689loPI   PO4 9664   8.133  15.937   5.741 -0.0301 -0.0890  0.0999
  689loPI   GL1 9665   8.292  15.929   6.115 -0.1245 -0.2223 -0.0811
  689loPI   GL2 9666   8.110  15.891   6.402  0.0401  0.0593 -0.0060
  689loPI   C1A 9667   8.626  15.708   6.305  0.2280  0.1479 -0.1418
  689loPI   C2A 9668   8.853  15.548   6.678 -0.2196  0.1961 -0.0048
  689loPI   C3A 9669   9.061  15.392   7.022 -0.1015 -0.0246  0.3497
  689loPI   C4A 9670   9.083  15.219   7.395 -0.0338 -0.0288  0.4793
  689loPI   C5A 9671   9.011  15.221   7.771 -0.1770 -0.1505 -0.1989
  689loPI   C6A 9672   9.246  15.442   7.983  0.2525  0.1494 -0.1619
  689loPI   C1B 9673   8.221  15.976   6.790 -0.3357 -0.3095  0.1211
  689loPI   C2B 9674   8.257  16.102   7.162 -0.2950 -0.0461 -0.1305
  689loPI   C3B 9675   8.361  16.078   7.570 -0.3254  0.4935 -0.1028
  689loPI   C4B 9676   8.535  16.202   7.888  0.0143 -0.2980  0.0827
  690loPI    C1 9677   6.865  13.563   5.615  0.0101  0.0931  0.0062
  690loPI    C2 9678   6.503  13.714   5.534 -0.0489 -0.0271  0.0435
  690loPI    C3 9679   6.759  13.634   5.236 -0.2901 -0.5318 -0.0397
  690loPI   PO4 9680   6.868  13.525   5.885  0.1402 -0.1475 -0.2036
  690loPI   GL1 9681   6.870  13.477   6.268 -0.2225  0.0705 -0.0829
  690loPI   GL2 9682   6.644  13.667   6.399 -0.2425  0.0086  0.2071
  690loPI   C1A 9683   6.973  13.512   6.746 -0.2245  0.0421  0.2142
  690loPI   C2A 9684   6.991  13.465   7.206  0.0276 -0.0523 -0.2703
  690loPI   C3A 9685   7.343  13.344   7.503 -0.0205  0.0034 -0.0195
  690loPI   C4A 9686   7.350  13.360   7.941 -0.2090  0.0676 -0.1553
  690loPI   C5A 9687   7.457  13.257   8.407  0.4326  0.0819 -0.0021
  690loPI   C6A 9688   7.725  13.100   8.746  0.2149 -0.2912  0.3329
  690loPI   C1B 9689   6.457  13.508   6.803  0.0452 -0.0088  0.1175
  690loPI   C2B 9690   6.289  13.716   7.158  0.1133  0.0688 -0.0256
  690loPI   C3B 9691   6.283  13.575   7.542  0.0056 -0.0151 -0.3589
  690loPI   C4B 9692   6.507  13.393   7.829  0.2808 -0.2243 -0.1372
  691loPI    C1 9693  17.876  17.310   5.617  0.0070  0.0523  0.0004
  691loPI    C2 9694  18.258  17.269   5.506  0.0563 -0.0392  0.1985
  691loPI    C3 9695  17.967  17.096   5.291  0.1219  0.0642  0.0245
  691loPI   PO4 9696  17.834  17.516   5.773 -0.0624  0.2088 -0.2669
  691loPI   GL1 9697  17.686  17.600   6.160  0.1752 -0.0989  0.0478
  691loPI   GL2 9698  17.526  17.897   6.071  0.3782  0.2627 -0.0821
  691loPI   C1A 9699  17.672  17.605   6.579 -0.1683 -0.1913  0.2574
  691loPI   C2A 9700  17.690  17.615   7.025 -0.0953  0.1744  0.2929
  691loPI   C3A 9701  17.713  17.458   7.436  0.2075 -0.0248 -0.2641
  691loPI   C4A 9702  17.453  17.564   7.921 -0.0955 -0.1432  0.0615
  691loPI   C5A 9703  17.321  17.358   8.161  0.2647  0.0764 -0.1025
  691loPI   C6A 9704  17.192  16.988   8.438 -0.2730 -0.0736  0.2299
  691loPI   C1B 9705  17.381  18.085   6.580 -0.2823 -0.1519  0.0615
  691loPI   C2B 9706  17.351  17.992   7.075  0.0613  0.1959  0.2303
  691loPI   C3B 9707  17.353  17.921   7.457  0.1044  0.0526  0.3567
  691loPI   C4B 9708  17.281  18.008   7.855  0.0198 -0.0687 -0.1298
  692loPI    C1 9709  13.207   1.350   5.644 -0.1235  0.0094  0.0541
  692loPI    C2 9710  13.194   1.084   5.346  0.2982  0.0293  0.0116
  692loPI    C3 9711  13.521   1.307   5.400 -0.0274  0.5044  0.0800
  692loPI   PO4 9712  13.056   1.313   5.906  0.0856 -0.1874  0.0144
  692loPI   GL1 9713  13.100   1.390   6.286 -0.2141 -0.0580 -0.2168
  692loPI   GL2 9714  13.319   1.238   6.454 -0.1979  0.1889  0.2026
  692loPI   C1A 9715  12.945   1.402   6.690 -0.0681  0.1555  0.0550
  692loPI   C2A 9716  12.974   1.416   7.154 -0.1697 -0.0917  0.1438
  692loPI   C3A 9717  12.782   1.375   7.443 -0.1198 -0.0536 -0.0014
  692loPI   C4A 9718  12.873   1.398   7.814 -0.0205 -0.0521 -0.1800
  692loPI   C5A 9719  12.725   1.113   8.171 -0.2817  0.3330  0.5166
  692loPI   C6A 9720  12.943   0.909   8.483 -0.0846 -0.1758  0.3331
  692loPI   C1B 9721  13.437   1.267   6.831 -0.4533  0.2145 -0.2542
  692loPI   C2B 9722  13.430   1.210   7.296  0.2582  0.1497 -0.0793
  692loPI   C3B 9723  13.375   1.107   7.650 -0.1184 -0.2181 -0.0407
  692loPI   C4B 9724  13.176   0.981   8.067  0.1967  0.3784 -0.1305
  693loPI    C1 9725  10.840   6.472   5.466 -0.1420  0.0120 -0.2592
  693loPI    C2 9726  10.673   6.718   5.199 -0.2445 -0.2119 -0.4040
  693loPI    C3 9727  10.551   6.338   5.225 -0.2630 -0.1838 -0.0106
  693loPI   PO4 9728  10.805   6.597   5.666  0.1697  0.1850 -0.2143
  693loPI   GL1 9729  10.887   6.761   5.984  0.1185 -0.1155 -0.5247
  693loPI   GL2 9730  10.976   7.082   6.050 -0.0824 -0.0872 -0.0482
  693loPI   C1A 9731  11.020   6.690   6.410 -0.0144  0.0611  0.1003
  693loPI   C2A 9732  11.153   6.673   6.785 -0.1359  0.1564 -0.2863
  693loPI   C3A 9733  11.219   6.548   7.275  0.1318  0.1153  0.1400
  693loPI   C4A 9734  11.307   6.417   7.655 -0.1123 -0.3007 -0.2013
  693loPI   C5A 9735  11.298   6.759   8.035 -0.1725  0.1740 -0.0371
  693loPI   C6A 9736  11.431   7.061   8.304  0.2840 -0.3463  0.1735
  693loPI   C1B 9737  11.168   7.223   6.390 -0.2159 -0.2030 -0.0178
  693loPI   C2B 9738  11.117   7.226   6.790 -0.1061  0.2729 -0.0144
  693loPI   C3B 9739  11.284   7.126   7.140  0.0021 -0.1209  0.0402
  693loPI   C4B 9740  11.259   7.097   7.594 -0.0998 -0.0514 -0.2480
  694loPI    C1 9741   3.918   1.291   6.269  0.1100 -0.0213  0.0734
  694loPI    C2 9742   3.900   1.536   5.954  0.0369 -0.0407  0.0623
  694loPI    C3 9743   4.195   1.268   5.982  0.0558 -0.0243  0.0211
  694loPI   PO4 9744   3.813   1.409   6.405 -0.0751  0.1652 -0.3562
  694loPI   GL1 9745   3.976   1.279   6.761 -0.2665 -0.3674  0.0116
  694loPI   GL2 9746   4.246   1.380   6.905 -0.1223 -0.2816 -0.2973
  694loPI   C1A 9747   3.804   1.291   7.097  0.2386 -0.0988 -0.2280
  694loPI   C2A 9748   3.721   1.145   7.464 -0.0380  0.2411 -0.0133
  694loPI   C3A 9749   3.978   0.903   7.809  0.1727  0.4103 -0.1080
  694loPI   C4A 9750   4.273   0.744   8.085 -0.0272  0.2974  0.0123
  694loPI   C5A 9751   4.256   0.483   8.353  0.3772  0.0147  0.0238
  694loPI   C6A 9752   4.357   0.347   8.787  0.3232 -0.0210 -0.0056
  694loPI   C1B 9753   4.217   1.323   7.398  0.2735 -0.0885 -0.3494
  694loPI   C2B 9754   4.210   1.301   7.854  0.2308 -0.0898 -0.1658
  694loPI   C3B 9755   4.111   1.191   8.300 -0.1402  0.0720 -0.0049
  694loPI   C4B 9756   3.848   0.727   8.443  0.2182  0.2690 -0.0856
  695loPI    C1 9757  16.431  17.952   5.614  0.1649 -0.3125  0.0875
  695loPI    C2 9758  16.197  18.276   5.626  0.4446 -0.0895 -0.2674
  695loPI    C3 9759  16.055  17.923   5.749  0.1000  0.1410  0.0200
  695loPI   PO4 9760  16.633  17.945   5.799 -0.2585  0.1323 -0.2079
  695loPI   GL1 9761  17.067  17.907   5.956  0.0542 -0.0123  0.0529
  695loPI   GL2 9762  16.909  18.132   6.131 -0.4345  0.3909 -0.0819
  695loPI   C1A 9763  17.133  17.693   6.377 -0.0168  0.1303 -0.0305
  695loPI   C2A 9764  17.227  17.618   6.776  0.1456  0.0299  0.2730
  695loPI   C3A 9765  17.264  17.455   7.177  0.0416  0.3370 -0.2522
  695loPI   C4A 9766  17.057  17.162   7.396  0.2033 -0.0877 -0.1525
  695loPI   C5A 9767  16.886  17.060   7.763 -0.1770 -0.1808 -0.1538
  695loPI   C6A 9768  17.061  16.730   7.994 -0.1089  0.2493 -0.2373
  695loPI   C1B 9769  16.874  18.063   6.574 -0.2756 -0.0803 -0.0716
  695loPI   C2B 9770  16.866  17.970   6.978 -0.0374  0.2599 -0.0413
  695loPI   C3B 9771  16.861  17.717   7.351  0.1086 -0.0839 -0.0767
  695loPI   C4B 9772  16.947  17.547   7.759 -0.0062 -0.0747  0.0259
  696loPI    C1 9773  12.235  11.799   6.055 -0.1740 -0.0655 -0.0384
  696loPI    C2 9774  12.113  11.881   5.683 -0.0317 -0.1431 -0.1035
  696loPI    C3 9775  12.387  11.597   5.744  0.0965  0.0102  0.0424
  696loPI   PO4 9776  12.041  11.823   6.189 -0.0315 -0.0257  0.0839
  696loPI   GL1 9777  11.847  11.974   6.493 -0.3666  0.1958  0.1216
  696loPI   GL2 9778  11.910  11.752   6.681  0.0005 -0.3241  0.2204
  696loPI   C1A 9779  11.766  12.250   6.824 -0.2170  0.1483 -0.0091
  696loPI   C2A 9780  11.872  12.244   7.293 -0.2959 -0.3209  0.1972
  696loPI   C3A 9781  11.781  12.266   7.671  0.1107  0.0382  0.2664
  696loPI   C4A 9782  11.681  12.208   8.131  0.0012 -0.2573 -0.2718
  696loPI   C5A 9783  11.429  12.279   8.471 -0.1355  0.1869  0.0394
  696loPI   C6A 9784  11.325  12.731   8.725 -0.0044  0.0331  0.1609
  696loPI   C1B 9785  11.858  11.695   7.049 -0.0787 -0.2195  0.1121
  696loPI   C2B 9786  11.848  11.726   7.393  0.1929 -0.0637 -0.1111
  696loPI   C3B 9787  11.554  11.812   7.785  0.2282  0.1166 -0.1978
  696loPI   C4B 9788  11.517  11.696   8.160 -0.0789 -0.0215 -0.2689
  697loPI    C1 9789  17.253  15.825   5.508 -0.0374 -0.2017  0.0007
  697loPI    C2 9790  16.976  16.107   5.573  0.1177 -0.1087  0.2727
  697loPI    C3 9791  16.947  15.751   5.754  0.0967 -0.1520  0.1847
  697loPI   PO4 9792  17.476  15.967   5.632  0.2888 -0.0061  0.1072
  697loPI   GL1 9793  17.757  15.916   5.985  0.2194 -0.1697  0.1718
  697loPI   GL2 9794  18.049  15.831   5.796  0.0495 -0.0546 -0.0437
  697loPI   C1A 9795  17.875  15.840   6.420 -0.0993 -0.0477  0.0084
  697loPI   C2A 9796  17.717  15.472   6.763  0.0328 -0.0848  0.0024
  697loPI   C3A 9797  17.578  15.557   7.180  0.0711  0.1609  0.1287
  697loPI   C4A 9798  17.557  15.599   7.612  0.0759  0.4134  0.5791
  697loPI   C5A 9799  17.113  15.616   7.756  0.0950  0.2171 -0.1086
  697loPI   C6A 9800  16.832  15.767   7.967  0.0195  0.1198  0.2317
  697loPI   C1B 9801  18.292  15.917   6.042  0.1950 -0.2110 -0.0949
  697loPI   C2B 9802  18.417  15.984   6.454 -0.3713  0.2397 -0.2455
  697loPI   C3B 9803  18.175  15.902   6.830  0.1052 -0.0877 -0.2086
  697loPI   C4B 9804  17.948  15.946   7.308 -0.2780 -0.0911  0.1220
  698loPI    C1 9805   8.886  10.032   5.623  0.1156 -0.1264 -0.1199
  698loPI    C2 9806   8.760   9.785   5.335  0.1857  0.1308 -0.3760
  698loPI    C3 9807   9.129   9.940   5.319  0.2073  0.1093 -0.1206
  698loPI   PO4 9808   8.819   9.940   5.846 -0.0888 -0.0180 -0.2561
  698loPI   GL1 9809   9.044  10.017   6.367 -0.0145  0.0767  0.1956
  698loPI   GL2 9810   8.778  10.184   6.315 -0.0899 -0.2119  0.3032
  698loPI   C1A 9811   8.970  10.142   6.767  0.7072  0.0466 -0.2113
  698loPI   C2A 9812   8.878  10.061   7.206 -0.0790 -0.2079 -0.0470
  698loPI   C3A 9813   8.855  10.078   7.588 -0.3760  0.4113  0.1130
  698loPI   C4A 9814   8.768  10.067   8.051 -0.0241 -0.3185 -0.2082
  698loPI   C5A 9815   8.786  10.049   8.426  0.1125 -0.4132 -0.0226
  698loPI   C6A 9816   8.858  10.261   8.832 -0.1413  0.2220 -0.4413
  698loPI   C1B 9817   8.527   9.976   6.577 -0.1886 -0.0626  0.1995
  698loPI   C2B 9818   8.429   9.955   6.983 -0.3793  0.1047 -0.1809
  698loPI   C3B 9819   8.346   9.924   7.421 -0.0575  0.2163  0.2702
  698loPI   C4B 9820   8.283   9.816   7.814  0.1598  0.1255 -0.0124
  699loPI    C1 9821   1.197   1.991   5.772 -0.0693 -0.0067 -0.2224
  699loPI    C2 9822   0.911   1.896   5.510 -0.1308  0.2907 -0.2662
  699loPI    C3 9823   1.168   2.191   5.427  0.0434  0.1805 -0.1249
  699loPI   PO4 9824   1.009   2.013   6.033  0.0453  0.1806 -0.0224
  699loPI   GL1 9825   1.154   1.815   6.382 -0.2279 -0.0391  0.1987
  699loPI   GL2 9826   1.136   1.532   6.525 -0.2340 -0.3278  0.0403
  699loPI   C1A 9827   0.944   2.145   6.708  0.0162  0.0736  0.1792
  699loPI   C2A 9828   0.736   2.092   7.152  0.2282  0.0410 -0.2880
  699loPI   C3A 9829   0.755   2.118   7.537  0.0116 -0.1929  0.2115
  699loPI   C4A 9830   0.866   2.284   7.920  0.1955 -0.1878 -0.0641
  699loPI   C5A 9831   0.472   2.459   8.241 -0.1692 -0.1866 -0.1378
  699loPI   C6A 9832   0.497   2.595   8.761 -0.2421 -0.1725  0.1491
  699loPI   C1B 9833   0.935   1.403   6.865 -0.0495  0.0002  0.1998
  699loPI   C2B 9834   0.871   1.155   7.230 -0.3087 -0.0225 -0.2031
  699loPI   C3B 9835   0.807   1.063   7.647  0.1914 -0.0592 -0.2014
  699loPI   C4B 9836   1.126   0.858   7.919  0.1650  0.1191  0.1215
  700loPI    C1 9837   1.086   6.399   5.495  0.0504  0.0542 -0.0901
  700loPI    C2 9838   1.386   6.588   5.310  0.3283 -0.1985  0.0940
  700loPI    C3 9839   1.128   6.367   5.099  0.2749  0.0130 -0.0643
  700loPI   PO4 9840   1.187   6.247   5.620  0.0255 -0.0259  0.1618
  700loPI   GL1 9841   1.252   6.145   6.004  0.0620  0.1152 -0.5430
  700loPI   GL2 9842   1.010   6.352   6.114 -0.2517 -0.0552  0.0377
  700loPI   C1A 9843   1.358   5.964   6.411  0.1192  0.1360 -0.1069
  700loPI   C2A 9844   1.457   6.012   6.894 -0.2286 -0.1962  0.0184
  700loPI   C3A 9845   1.497   6.141   7.298  0.2861  0.3079 -0.2518
  700loPI   C4A 9846   1.451   6.075   7.676 -0.0122  0.0983 -0.0071
  700loPI   C5A 9847   1.402   5.891   8.088  0.1993 -0.2116 -0.1309
  700loPI   C6A 9848   1.154   5.597   8.292 -0.0334 -0.1060 -0.1583
  700loPI   C1B 9849   1.177   6.373   6.610 -0.0241 -0.1199 -0.1661
  700loPI   C2B 9850   1.135   6.386   7.060 -0.3347  0.1935 -0.0369
  700loPI   C3B 9851   1.067   6.414   7.554  0.0919  0.2224  0.0841
  700loPI   C4B 9852   1.151   6.479   7.934 -0.1088 -0.1432  0.0155
  701loPI    C1 9853   2.107  12.536   5.300  0.1378  0.0370  0.2147
  701loPI    C2 9854   2.110  12.923   5.198 -0.0020  0.0585  0.2899
  701loPI    C3 9855   2.376  12.671   5.037 -0.0853  0.1320  0.0319
  701loPI   PO4 9856   2.077  12.616   5.667 -0.2700  0.0824  0.3192
  701loPI   GL1 9857   2.022  12.744   6.072 -0.1982 -0.1658  0.2072
  701loPI   GL2 9858   2.353  12.825   6.086  0.0645  0.1120  0.1658
  701loPI   C1A 9859   1.907  12.648   6.304  0.0098  0.0273 -0.2149
  701loPI   C2A 9860   1.873  12.686   6.723  0.2199 -0.1671 -0.0631
  701loPI   C3A 9861   1.871  12.650   7.234 -0.1271  0.1792 -0.0116
  701loPI   C4A 9862   1.709  12.652   7.606 -0.0583 -0.2346  0.0236
  701loPI   C5A 9863   1.660  12.731   8.074 -0.3194  0.1546 -0.2861
  701loPI   C6A 9864   1.514  13.160   8.313 -0.1281  0.0366  0.1597
  701loPI   C1B 9865   2.384  12.964   6.399  0.0244 -0.0822  0.0100
  701loPI   C2B 9866   2.328  12.910   6.774  0.2368  0.0144  0.2570
  701loPI   C3B 9867   2.263  12.948   7.281  0.0794 -0.2534  0.1835
  701loPI   C4B 9868   2.075  12.936   7.718  0.1149  0.1601 -0.0535
  702loPI    C1 9869  12.953   3.675   5.536 -0.0303 -0.1502 -0.4512
  702loPI    C2 9870  13.285   3.732   5.319  0.0434  0.1110 -0.2740
  702loPI    C3 9871  13.201   3.369   5.463  0.2797  0.0536 -0.2767
  702loPI   PO4 9872  12.904   3.948   5.683  0.0140 -0.1846  0.1079
  702loPI   GL1 9873  12.827   4.058   6.108 -0.2532  0.1139  0.1943
  702loPI   GL2 9874  12.798   4.305   6.132 -0.4358  0.2329 -0.1923
  702loPI   C1A 9875  12.897   3.920   6.458  0.3060 -0.1500 -0.2467
  702loPI   C2A 9876  12.872   3.780   6.802  0.1692 -0.1040 -0.0953
  702loPI   C3A 9877  12.746   3.790   7.147 -0.1055 -0.0954 -0.1407
  702loPI   C4A 9878  12.799   3.661   7.642  0.2874 -0.1946  0.2663
  702loPI   C5A 9879  12.662   3.474   7.922 -0.0493 -0.0251  0.2744
  702loPI   C6A 9880  12.404   3.138   7.952  0.2082 -0.1971 -0.0400
  702loPI   C1B 9881  12.513   4.360   6.507 -0.5482 -0.1799  0.1649
  702loPI   C2B 9882  12.571   4.363   6.846  0.0251 -0.2932 -0.3382
  702loPI   C3B 9883  12.547   4.311   7.171 -0.2871 -0.1814 -0.0313
  702loPI   C4B 9884  12.564   4.146   7.507  0.1524 -0.1531 -0.2536
  703loPI    C1 9885   9.209  13.479   5.859  0.2066  0.1295 -0.0652
  703loPI    C2 9886   9.037  13.120   5.893 -0.1400  0.3051  0.0824
  703loPI    C3 9887   9.423  13.148   5.791 -0.0511 -0.1147  0.2807
  703loPI   PO4 9888   9.180  13.610   6.116  0.1177  0.0369  0.0461
  703loPI   GL1 9889   9.296  13.953   6.429  0.1696  0.0568  0.2027
  703loPI   GL2 9890   9.625  14.062   6.602 -0.0388 -0.1370  0.2047
  703loPI   C1A 9891   9.229  13.733   6.753 -0.3314 -0.0219  0.2753
  703loPI   C2A 9892   9.327  13.755   7.166 -0.1728 -0.2866 -0.0421
  703loPI   C3A 9893   9.616  13.718   7.471  0.1493 -0.3521  0.0404
  703loPI   C4A 9894   9.680  13.990   7.734 -0.1774  0.0231 -0.2459
  703loPI   C5A 9895   9.512  14.330   7.938 -0.3480 -0.0047  0.4744
  703loPI   C6A 9896   9.242  14.625   7.870 -0.3093  0.1154 -0.2917
  703loPI   C1B 9897   9.956  14.165   6.767  0.4092 -0.1559 -0.3190
  703loPI   C2B 9898  10.194  14.016   7.058 -0.0681  0.1206  0.1739
  703loPI   C3B 9899  10.150  13.960   7.457  0.1056  0.1687 -0.0181
  703loPI   C4B 9900  10.174  14.102   7.915  0.2148  0.0840 -0.0022
  704loPI    C1 9901  11.773   9.183   5.569  0.0672 -0.2082  0.1756
  704loPI    C2 9902  11.478   9.182   5.839 -0.1878  0.1181 -0.0923
  704loPI    C3 9903  11.400   9.093   5.456  0.0265  0.3721 -0.1982
  704loPI   PO4 9904  11.882   9.376   5.639  0.0872 -0.0282 -0.2706
  704loPI   GL1 9905  11.807   9.533   5.955  0.0911  0.1982  0.0143
  704loPI   GL2 9906  11.562   9.609   6.126  0.0472 -0.4709  0.1769
  704loPI   C1A 9907  12.132   9.562   6.239 -0.2965  0.1821  0.0530
  704loPI   C2A 9908  12.288   9.544   6.670  0.1398 -0.2813 -0.1799
  704loPI   C3A 9909  12.302   9.650   7.082  0.1263 -0.0433  0.0597
  704loPI   C4A 9910  12.356   9.590   7.509  0.2303  0.2415 -0.1203
  704loPI   C5A 9911  12.304   9.368   7.798  0.0752 -0.0167 -0.1772
  704loPI   C6A 9912  12.458   8.941   7.871 -0.2327 -0.2212  0.0260
  704loPI   C1B 9913  11.654   9.270   6.453  0.1119 -0.4379  0.0698
  704loPI   C2B 9914  11.768   9.277   6.891  0.3522 -0.0466  0.0910
  704loPI   C3B 9915  11.957   9.368   7.313 -0.0401  0.0238  0.1968
  704loPI   C4B 9916  11.844   9.521   7.697  0.0327 -0.0173 -0.1769
  705loPI    C1 9917   6.007  16.044   5.901  0.0283  0.0472  0.1347
  705loPI    C2 9918   5.712  16.086   5.634 -0.1586 -0.0112  0.3294
  705loPI    C3 9919   5.963  15.775   5.607  0.1226  0.2396 -0.0584
  705loPI   PO4 9920   5.913  16.069   6.135 -0.1868  0.0180  0.0048
  705loPI   GL1 9921   5.653  16.053   6.482  0.0404 -0.1641  0.0823
  705loPI   GL2 9922   5.483  15.805   6.677 -0.0588  0.2257  0.2806
  705loPI   C1A 9923   5.809  16.239   6.815  0.0094  0.3536 -0.2719
  705loPI   C2A 9924   5.889  16.164   7.258  0.0954 -0.3078  0.0013
  705loPI   C3A 9925   5.812  15.979   7.628  0.1776  0.2685  0.5801
  705loPI   C4A 9926   5.597  15.993   7.985  0.1002  0.0503  0.0573
  705loPI   C5A 9927   5.454  16.075   8.423  0.0399 -0.0929 -0.2358
  705loPI   C6A 9928   5.343  15.984   8.915  0.0686  0.1847  0.0966
  705loPI   C1B 9929   5.447  15.909   7.117 -0.1347  0.2202  0.1646
  705loPI   C2B 9930   5.371  15.837   7.542  0.0118  0.0657 -0.0637
  705loPI   C3B 9931   5.337  15.510   7.937 -0.0349 -0.0972  0.1653
  705loPI   C4B 9932   5.304  15.181   8.241 -0.2224  0.0898 -0.1996
  706loPI    C1 9933  12.221  14.013   6.388  0.0470  0.1421 -0.0245
  706loPI    C2 9934  12.051  14.157   6.056 -0.2069  0.0434  0.0599
  706loPI    C3 9935  12.081  13.762   6.110  0.0995  0.0591  0.0238
  706loPI   PO4 9936  12.340  14.252   6.498 -0.1803 -0.1723 -0.3316
  706loPI   GL1 9937  12.404  14.541   6.773  0.0116 -0.1088  0.1209
  706loPI   GL2 9938  12.711  14.481   6.834 -0.1429 -0.1363  0.0816
  706loPI   C1A 9939  12.503  14.838   7.157  0.3323 -0.2861 -0.0621
  706loPI   C2A 9940  12.558  15.056   7.558 -0.4778  0.3160  0.2045
  706loPI   C3A 9941  12.679  15.386   7.830 -0.1613 -0.3328  0.1250
  706loPI   C4A 9942  12.804  15.413   8.231 -0.5899  0.0526 -0.0523
  706loPI   C5A 9943  12.928  15.627   8.564  0.0609  0.0317 -0.0537
  706loPI   C6A 9944  13.268  15.578   8.888 -0.1175  0.1576 -0.1756
  706loPI   C1B 9945  12.548  14.372   7.185  0.1471 -0.0431  0.1712
  706loPI   C2B 9946  12.486  14.213   7.616  0.2506  0.0537  0.2700
  706loPI   C3B 9947  12.336  14.055   8.023  0.0013 -0.1625 -0.0233
  706loPI   C4B 9948  12.327  14.034   8.502  0.1522 -0.0089 -0.0233
  707loPI    C1 9949   7.197  15.609   5.683 -0.1498 -0.0831  0.0211
  707loPI    C2 9950   7.027  15.935   5.527 -0.0413 -0.0044  0.0655
  707loPI    C3 9951   7.255  15.700   5.298  0.1570  0.1371  0.1150
  707loPI   PO4 9952   7.292  15.729   5.900  0.0331  0.1538  0.0891
  707loPI   GL1 9953   7.545  15.574   6.233 -0.0554 -0.6828  0.0153
  707loPI   GL2 9954   7.474  15.806   6.387  0.0321 -0.1921  0.0328
  707loPI   C1A 9955   7.828  15.640   6.703  0.1261  0.3209 -0.0966
  707loPI   C2A 9956   7.957  15.508   7.062 -0.3099  0.1499 -0.1053
  707loPI   C3A 9957   8.138  15.662   7.441  0.2184  0.1153  0.0443
  707loPI   C4A 9958   8.009  15.697   7.754  0.1677  0.0339  0.0160
  707loPI   C5A 9959   7.862  15.769   8.133  0.0013  0.1046 -0.0766
  707loPI   C6A 9960   7.943  15.872   8.573  0.2450 -0.2865  0.1952
  707loPI   C1B 9961   7.359  15.890   6.777  0.3734 -0.3606  0.0486
  707loPI   C2B 9962   7.106  15.892   7.073 -0.2970 -0.0316 -0.1238
  707loPI   C3B 9963   7.016  15.812   7.531  0.0442 -0.0437 -0.1597
  707loPI   C4B 9964   6.875  15.544   7.721 -0.1307  0.3175 -0.0671
  708loPI    C1 9965  12.448   7.530   5.396  0.0398  0.1706  0.0944
  708loPI    C2 9966  12.245   7.325   5.118  0.0165 -0.0333  0.2596
  708loPI    C3 9967  12.162   7.711   5.183 -0.2704 -0.0962  0.2761
  708loPI   PO4 9968  12.388   7.356   5.653  0.2337 -0.0070  0.2451
  708loPI   GL1 9969  12.054   7.170   5.897 -0.1282  0.1415 -0.2070
  708loPI   GL2 9970  11.762   6.991   5.863  0.5193  0.0013 -0.1442
  708loPI   C1A 9971  12.044   7.034   6.324  0.1963 -0.2409 -0.0624
  708loPI   C2A 9972  12.040   7.098   6.697 -0.0925 -0.0205 -0.2807
  708loPI   C3A 9973  11.996   7.116   7.161  0.3059 -0.1435  0.0223
  708loPI   C4A 9974  12.262   7.007   7.488  0.2334  0.0918  0.0437
  708loPI   C5A 9975  12.350   7.102   7.896 -0.0535 -0.1469  0.0132
  708loPI   C6A 9976  12.556   7.190   8.293  0.0453  0.2279 -0.1331
  708loPI   C1B 9977  11.564   6.873   6.287  0.0675  0.3822 -0.2051
  708loPI   C2B 9978  11.603   6.924   6.692  0.1562  0.0792  0.1096
  708loPI   C3B 9979  11.653   6.791   7.137  0.0461  0.0754  0.0470
  708loPI   C4B 9980  11.685   6.752   7.464 -0.2112  0.1511 -0.2589
  709loPI    C1 9981   7.472   8.812   5.744 -0.1257 -0.0459  0.1096
  709loPI    C2 9982   7.663   8.523   5.943 -0.2589 -0.2533 -0.0592
  709loPI    C3 9983   7.302   8.453   5.787 -0.2108 -0.0544 -0.2645
  709loPI   PO4 9984   7.501   9.034   5.848 -0.0592  0.1415 -0.3576
  709loPI   GL1 9985   7.346   9.098   6.225 -0.1349 -0.1107 -0.1113
  709loPI   GL2 9986   7.594   8.866   6.316  0.1680  0.2832 -0.1932
  709loPI   C1A 9987   7.096   9.051   6.546  0.0523 -0.4732 -0.0892
  709loPI   C2A 9988   6.831   9.163   6.890 -0.1250 -0.2201  0.0079
  709loPI   C3A 9989   6.860   9.163   7.328 -0.3762  0.2016 -0.2036
  709loPI   C4A 9990   7.017   9.248   7.727  0.0014 -0.0863 -0.2694
  709loPI   C5A 9991   7.569   9.328   7.758  0.0417  0.2431 -0.0290
  709loPI   C6A 9992   7.907   9.084   7.785  0.0531 -0.2127 -0.3520
  709loPI   C1B 9993   7.458   8.873   6.769  0.0049 -0.0764  0.2171
  709loPI   C2B 9994   7.169   8.851   7.036 -0.1260  0.3327  0.1914
  709loPI   C3B 9995   6.991   8.491   7.184  0.1383  0.0174  0.1608
  709loPI   C4B 9996   6.684   8.605   7.505 -0.1704 -0.3313 -0.0123
  710loPI    C1 9997  11.392  16.221   5.518  0.1062 -0.1584  0.0386
  710loPI    C2 9998  11.036  16.039   5.519 -0.0529  0.1469 -0.0782
  710loPI    C3 9999  11.262  16.033   5.190  0.1123 -0.1599  0.0371
  710loPI   PO410000  11.499  16.152   5.792  0.2655 -0.0957 -0.1247
  710loPI   GL110001  11.362  15.895   6.037 -0.0753 -0.2040  0.0653
  710loPI   GL210002  11.282  15.600   6.145  0.1782  0.1982 -0.2900
  710loPI   C1A10003  11.168  16.166   6.436  0.0754  0.1611  0.1643
  710loPI   C2A10004  11.293  16.526   6.685  0.2675 -0.1567 -0.0284
  710loPI   C3A10005  11.501  16.826   6.955 -0.1014  0.0345  0.2036
  710loPI   C4A10006  11.452  16.980   7.331 -0.2675 -0.1088 -0.0088
  710loPI   C5A10007  11.364  17.221   7.593 -0.0564 -0.0249 -0.0881
  710loPI   C6A10008  11.111  17.251   7.955 -0.1025 -0.1238 -0.0109
  710loPI   C1B10009  11.495  15.757   6.490 -0.1630  0.1773 -0.0771
  710loPI   C2B10010  11.380  16.024   6.847  0.1504 -0.1187 -0.0794
  710loPI   C3B10011  11.384  16.351   7.159 -0.1603 -0.1359 -0.1450
  710loPI   C4B10012  11.282  16.591   7.534 -0.1892  0.0583 -0.0457
  711loPI    C110013   0.108   6.529   5.465  0.0028 -0.1688  0.1708
  711loPI    C210014  -0.162   6.712   5.696 -0.0493 -0.0033 -0.0191
  711loPI    C310015  -0.283   6.482   5.391  0.0163 -0.3275  0.1949
  711loPI   PO410016   0.284   6.435   5.708  0.2680 -0.0269 -0.1830
  711loPI   GL110017   0.294   6.446   6.101  0.0013  0.0266  0.0724
  711loPI   GL210018   0.166   6.684   6.311  0.0067  0.2405  0.2263
  711loPI   C1A10019   0.665   6.599   6.403  0.1565 -0.2171  0.0579
  711loPI   C2A10020   0.746   6.642   6.860  0.1012  0.0592  0.0961
  711loPI   C3A10021   0.682   6.676   7.242  0.4432 -0.1842  0.0799
  711loPI   C4A10022   0.707   6.737   7.742 -0.2241  0.0472  0.1445
  711loPI   C5A10023   0.744   6.740   8.150  0.0828  0.2363 -0.0426
  711loPI   C6A10024   0.403   6.874   8.287 -0.1461  0.0478 -0.2632
  711loPI   C1B10025   0.255   6.804   6.682 -0.2278 -0.0429 -0.1174
  711loPI   C2B10026   0.451   7.080   7.068 -0.2015 -0.0378 -0.4187
  711loPI   C3B10027   0.718   7.192   7.485  0.0847  0.0109 -0.4720
  711loPI   C4B10028   0.738   7.218   7.893 -0.3187  0.2840 -0.0657
  712loPI    C110029   9.308   6.697   5.855 -0.0837 -0.0147 -0.1364
  712loPI    C210030   9.458   6.901   5.545  0.0334 -0.1539 -0.1726
  712loPI    C310031   9.372   7.090   5.887  0.0172 -0.0214 -0.2495
  712loPI   PO410032   9.539   6.533   5.910  0.3490 -0.4098  0.1271
  712loPI   GL110033   9.494   6.255   6.315  0.2095 -0.2626  0.4149
  712loPI   GL210034   9.267   6.428   6.388  0.0441  0.0222  0.0726
  712loPI   C1A10035   9.627   5.940   6.663  0.0298 -0.0540  0.1130
  712loPI   C2A10036   9.829   5.868   6.894 -0.2811 -0.3402  0.0069
  712loPI   C3A10037   9.921   5.877   7.307  0.0388  0.0655 -0.1017
  712loPI   C4A10038   9.813   5.885   7.661 -0.0814  0.0012 -0.1056
  712loPI   C5A10039   9.532   6.024   8.083  0.2945 -0.0452  0.1618
  712loPI   C6A10040   9.609   5.929   8.508  0.0572 -0.0597 -0.1964
  712loPI   C1B10041   9.363   6.277   6.831  0.0118 -0.2085 -0.2140
  712loPI   C2B10042   9.431   6.193   7.245 -0.1204 -0.2295 -0.1946
  712loPI   C3B10043   9.408   6.251   7.679 -0.2616 -0.0708 -0.0276
  712loPI   C4B10044   9.267   6.442   8.001 -0.0642  0.2782  0.2988
  713loPI    C110045   2.318  11.749   5.121  0.0830 -0.2251 -0.0045
  713loPI    C210046   2.148  11.492   4.865 -0.2318  0.1894 -0.2232
  713loPI    C310047   2.462  11.711   4.750  0.0846 -0.1424 -0.0125
  713loPI   PO410048   2.143  12.003   5.247  0.1106 -0.2935  0.0688
  713loPI   GL110049   2.126  12.169   5.731 -0.3284  0.0617  0.0821
  713loPI   GL210050   2.468  12.366   5.855 -0.1625 -0.1447  0.0742
  713loPI   C1A10051   1.866  11.996   6.075  0.0789 -0.2259  0.1672
  713loPI   C2A10052   1.856  12.187   6.456 -0.2023 -0.0783  0.0800
  713loPI   C3A10053   1.881  12.166   6.958 -0.0854  0.0244  0.2273
  713loPI   C4A10054   1.905  12.100   7.365  0.2095  0.1888 -0.0054
  713loPI   C5A10055   1.897  12.212   7.794 -0.2338 -0.1054  0.1477
  713loPI   C6A10056   2.138  11.980   8.026 -0.0665 -0.1398  0.0448
  713loPI   C1B10057   2.325  12.326   6.260  0.0835 -0.1068  0.0872
  713loPI   C2B10058   2.310  12.320   6.738 -0.2294 -0.1603  0.2670
  713loPI   C3B10059   2.322  12.396   7.091  0.1101 -0.4967 -0.0176
  713loPI   C4B10060   2.250  12.436   7.501 -0.0778 -0.1214 -0.1576
  714loPI    C110061  14.185   2.423   5.520 -0.0142  0.0810 -0.0113
  714loPI    C210062  13.985   2.693   5.302 -0.0291 -0.0412 -0.1503
  714loPI    C310063  14.182   2.395   5.121  0.2038  0.0250 -0.0101
  714loPI   PO410064  14.158   2.258   5.772  0.1763 -0.2000 -0.0336
  714loPI   GL110065  13.909   2.291   6.046  0.0284 -0.1025  0.0749
  714loPI   GL210066  13.885   2.549   6.288 -0.0644  0.2436 -0.0719
  714loPI   C1A10067  13.798   2.099   6.414  0.1156 -0.1132 -0.1404
  714loPI   C2A10068  13.804   1.948   6.906  0.2399 -0.2006 -0.1551
  714loPI   C3A10069  13.731   1.574   7.102 -0.2649  0.2277 -0.1304
  714loPI   C4A10070  13.751   1.456   7.582 -0.2145 -0.1292  0.0830
  714loPI   C5A10071  13.585   1.312   8.071  0.2154  0.0454 -0.0904
  714loPI   C6A10072  13.543   1.447   8.412  0.0486 -0.1074  0.3179
  714loPI   C1B10073  13.861   2.447   6.766 -0.1562  0.3000  0.1275
  714loPI   C2B10074  13.756   2.372   7.186  0.0712  0.0610 -0.2545
  714loPI   C3B10075  13.750   2.021   7.461  0.0280  0.1027 -0.1008
  714loPI   C4B10076  13.728   1.793   7.918  0.0652  0.2561 -0.1759
  715loPI    C110077   6.547   7.164   5.573 -0.0439  0.0481 -0.0599
  715loPI    C210078   6.537   7.562   5.615 -0.0533  0.0387  0.0277
  715loPI    C310079   6.596   7.401   5.254  0.0031  0.1201  0.0004
  715loPI   PO410080   6.634   7.140   5.882 -0.3432 -0.1416 -0.1086
  715loPI   GL110081   6.520   6.947   6.310  0.1626 -0.3557 -0.1409
  715loPI   GL210082   6.353   7.162   6.371  0.2049  0.1331  0.1621
  715loPI   C1A10083   6.570   6.789   6.753 -0.2942  0.2138  0.1452
  715loPI   C2A10084   6.587   6.844   7.214 -0.3216 -0.1262 -0.2687
  715loPI   C3A10085   6.601   6.663   7.616 -0.0592 -0.0457  0.1569
  715loPI   C4A10086   6.351   6.774   8.008  0.1147 -0.0176  0.0178
  715loPI   C5A10087   6.110   7.096   8.267 -0.0468 -0.0745  0.1304
  715loPI   C6A10088   5.665   7.263   8.226  0.0928 -0.4984  0.0979
  715loPI   C1B10089   6.435   7.243   6.824  0.0027  0.5128  0.0504
  715loPI   C2B10090   6.383   7.292   7.261  0.1677 -0.2185  0.3286
  715loPI   C3B10091   6.515   7.132   7.680 -0.0754 -0.1634 -0.1431
  715loPI   C4B10092   6.814   6.928   7.952 -0.1828  0.0619 -0.0044
  716loPI    C110093   9.523  12.013   5.867 -0.1411  0.0579 -0.0160
  716loPI    C210094   9.493  11.859   5.499  0.1566 -0.3601  0.1269
  716loPI    C310095   9.707  12.191   5.560  0.0113 -0.2241 -0.0916
  716loPI   PO410096   9.499  11.767   6.046 -0.0566  0.2498 -0.1668
  716loPI   GL110097   9.639  11.764   6.436  0.3003  0.1366 -0.2792
  716loPI   GL210098   9.465  11.469   6.507  0.0526 -0.4560 -0.2574
  716loPI   C1A10099   9.809  11.978   6.814 -0.1646 -0.1095 -0.3545
  716loPI   C2A10100   9.827  12.160   7.283  0.0662 -0.0436  0.1824
  716loPI   C3A10101   9.788  12.230   7.692 -0.0274  0.1394 -0.2038
  716loPI   C4A10102   9.602  12.079   8.050  0.1810  0.3191 -0.0889
  716loPI   C5A10103   9.270  12.062   8.304  0.1575 -0.0265  0.1280
  716loPI   C6A10104   9.039  12.411   8.289 -0.2448  0.0875 -0.2424
  716loPI   C1B10105   9.554  11.316   7.015 -0.2383 -0.1111  0.0441
  716loPI   C2B10106   9.661  11.328   7.505  0.0842 -0.2568 -0.0749
  716loPI   C3B10107   9.624  11.404   7.901 -0.2012  0.1311  0.0200
  716loPI   C4B10108   9.352  11.591   8.161  0.5665  0.0240 -0.0171
  717loPI    C110109   2.920  17.805   5.537 -0.1432 -0.0076 -0.5204
  717loPI    C210110   2.598  17.575   5.479 -0.1474 -0.0882 -0.1926
  717loPI    C310111   2.652  17.902   5.256 -0.5381  0.0127 -0.1478
  717loPI   PO410112   2.906  17.794   5.839 -0.0589  0.0316  0.2586
  717loPI   GL110113   3.016  18.062   6.244 -0.0885  0.1786  0.2795
  717loPI   GL210114   2.877  17.931   6.483 -0.2139 -0.1094 -0.1012
  717loPI   C1A10115   2.758  18.401   6.506  0.3463  0.0624 -0.2793
  717loPI   C2A10116   2.454  18.386   6.910 -0.2637 -0.2211 -0.1998
  717loPI   C3A10117   2.272  18.345   7.355  0.2012  0.0400  0.2782
  717loPI   C4A10118   2.487  18.429   7.791 -0.0741  0.0214  0.1167
  717loPI   C5A10119   2.611  18.590   8.228  0.0638 -0.2089  0.1111
  717loPI   C6A10120   2.836  18.481   8.520  0.3629 -0.0143  0.3797
  717loPI   C1B10121   2.934  18.147   6.891  0.1055  0.1608  0.0131
  717loPI   C2B10122   3.272  18.332   7.120  0.2105 -0.0552 -0.0555
  717loPI   C3B10123   3.242  18.312   7.599 -0.0737 -0.1153 -0.2259
  717loPI   C4B10124   2.957  18.464   7.916  0.0533  0.1094 -0.1694
  718loPI    C110125   6.476   2.115   6.205  0.0491  0.1888  0.0430
  718loPI    C210126   6.295   1.937   5.896 -0.0542  0.2191  0.0856
  718loPI    C310127   6.642   2.127   5.842  0.1838 -0.2032  0.0863
  718loPI   PO410128   6.466   1.906   6.379 -0.3783 -0.0255  0.0023
  718loPI   GL110129   6.526   1.980   6.778  0.2798  0.5247  0.0735
  718loPI   GL210130   6.349   2.259   6.683 -0.2129 -0.0621  0.0947
  718loPI   C1A10131   6.431   2.215   7.155 -0.1611  0.4960 -0.1511
  718loPI   C2A10132   6.618   2.432   7.515 -0.0011 -0.2425 -0.3229
  718loPI   C3A10133   6.558   2.368   7.986  0.2477 -0.1625  0.0115
  718loPI   C4A10134   6.661   2.450   8.438 -0.0308 -0.1645  0.0231
  718loPI   C5A10135   6.501   2.803   8.759 -0.1192 -0.1843  0.2183
  718loPI   C6A10136   6.616   3.111   9.110  0.0756 -0.0641  0.0211
  718loPI   C1B10137   6.719   2.421   6.781 -0.0088  0.3046 -0.1336
  718loPI   C2B10138   6.931   2.615   7.136 -0.0491 -0.0701 -0.2864
  718loPI   C3B10139   7.270   2.744   7.325 -0.0772 -0.0868  0.0281
  718loPI   C4B10140   7.660   2.886   7.481 -0.2941 -0.0510  0.2733
  719loPI    C110141  10.149   9.911   5.573 -0.0224 -0.0951  0.1005
  719loPI    C210142  10.185  10.219   5.321 -0.0183 -0.0260  0.1850
  719loPI    C310143  10.236   9.845   5.188  0.0010  0.0108  0.0874
  719loPI   PO410144  10.284   9.907   5.789 -0.2022  0.2173 -0.1290
  719loPI   GL110145  10.194   9.631   6.131  0.2373  0.0596  0.0772
  719loPI   GL210146  10.008   9.804   6.225 -0.1731 -0.0976 -0.2781
  719loPI   C1A10147  10.378   9.474   6.503  0.2281 -0.1243 -0.2880
  719loPI   C2A10148  10.212   9.303   6.960 -0.2073 -0.0958 -0.1274
  719loPI   C3A10149  10.412   9.233   7.484 -0.1176 -0.1100 -0.0354
  719loPI   C4A10150  10.283   9.126   8.013 -0.1549  0.0340  0.1105
  719loPI   C5A10151  10.083   9.460   8.303  0.0251  0.1780  0.2946
  719loPI   C6A10152  10.215   9.855   8.359  0.3645 -0.1520  0.1695
  719loPI   C1B10153  10.079   9.852   6.677 -0.0875  0.0520 -0.1747
  719loPI   C2B10154  10.307   9.796   6.987  0.3498 -0.1431  0.1111
  719loPI   C3B10155  10.460   9.732   7.471  0.1387 -0.0642 -0.2571
  719loPI   C4B10156  10.496   9.614   7.869 -0.1245 -0.1867 -0.1468
  720loPI    C110157  15.693   7.017   6.008 -0.0348 -0.0301  0.1956
  720loPI    C210158  15.748   6.742   5.722  0.0514  0.3724 -0.1855
  720loPI    C310159  15.378   6.860   5.817 -0.0243 -0.2405  0.3479
  720loPI   PO410160  15.783   7.229   5.964  0.1228 -0.0179  0.0074
  720loPI   GL110161  16.086   7.482   6.261  0.2993 -0.0664  0.0650
  720loPI   GL210162  15.825   7.544   6.342 -0.3114  0.0545  0.1792
  720loPI   C1A10163  16.102   7.279   6.686 -0.1447 -0.1903 -0.1704
  720loPI   C2A10164  16.161   7.283   7.111 -0.0160 -0.3812 -0.0323
  720loPI   C3A10165  16.036   7.144   7.479  0.1967 -0.0356 -0.1393
  720loPI   C4A10166  15.861   7.113   7.866  0.1038 -0.1129 -0.2368
  720loPI   C5A10167  15.512   6.952   8.056 -0.1653  0.0231 -0.6158
  720loPI   C6A10168  15.090   6.988   8.174 -0.0379 -0.2043 -0.1329
  720loPI   C1B10169  15.932   7.802   6.645  0.0646 -0.1465  0.0177
  720loPI   C2B10170  16.021   7.829   7.063  0.3373 -0.1462 -0.4935
  720loPI   C3B10171  15.899   7.688   7.398 -0.0823 -0.0655 -0.3318
  720loPI   C4B10172  15.783   7.707   7.800  0.1669  0.2761 -0.4351
  721loPI    C110173  15.019   9.401   5.401  0.1138  0.1313  0.0290
  721loPI    C210174  14.815   9.407   5.056 -0.0964  0.1488  0.1518
  721loPI    C310175  15.215   9.381   5.052 -0.0932  0.2101 -0.0937
  721loPI   PO410176  14.773   9.556   5.591 -0.0574  0.1162  0.1433
  721loPI   GL110177  14.740   9.189   5.899  0.2644  0.4225  0.1133
  721loPI   GL210178  15.131   9.262   5.923  0.2060 -0.1382  0.1149
  721loPI   C1A10179  14.477   9.197   6.211 -0.0097 -0.3643  0.2028
  721loPI   C2A10180  14.477   9.414   6.529  0.2388  0.3200 -0.1208
  721loPI   C3A10181  14.491   9.585   6.916 -0.1253 -0.0857  0.0263
  721loPI   C4A10182  14.538   9.634   7.345 -0.1844  0.0212 -0.0164
  721loPI   C5A10183  14.740   9.702   7.831  0.0797 -0.1783 -0.0881
  721loPI   C6A10184  14.856   9.876   8.227 -0.0080 -0.0594 -0.0935
  721loPI   C1B10185  14.905   9.491   6.257 -0.0385 -0.2662 -0.1614
  721loPI   C2B10186  14.911   9.466   6.711 -0.2640 -0.0572  0.1516
  721loPI   C3B10187  14.953   9.421   7.037 -0.0839  0.0367  0.1572
  721loPI   C4B10188  15.020   9.379   7.539  0.1701  0.0355  0.2321
  722loPI    C110189   1.872  13.517   4.968  0.0627 -0.0282  0.0515
  722loPI    C210190   2.069  13.220   4.787  0.1491  0.0843 -0.0407
  722loPI    C310191   1.704  13.323   4.662  0.0545 -0.0850  0.0919
  722loPI   PO410192   1.980  13.427   5.268 -0.0097 -0.0648 -0.4272
  722loPI   GL110193   2.126  13.342   5.726 -0.3629  0.0779 -0.0280
  722loPI   GL210194   1.900  13.054   5.626  0.1202  0.0629  0.1810
  722loPI   C1A10195   2.127  13.334   6.213 -0.2924  0.0408  0.1247
  722loPI   C2A10196   1.922  13.169   6.554  0.1546  0.0933 -0.1508
  722loPI   C3A10197   1.882  13.228   7.045  0.1526 -0.0013  0.0669
  722loPI   C4A10198   1.734  13.109   7.400 -0.1872 -0.1600 -0.2561
  722loPI   C5A10199   1.590  13.355   7.796  0.1523 -0.0214 -0.1116
  722loPI   C6A10200   1.348  13.565   8.001 -0.0856 -0.2034  0.1809
  722loPI   C1B10201   1.686  13.090   5.952  0.0881 -0.0173 -0.2169
  722loPI   C2B10202   1.505  12.917   6.204 -0.0017  0.0768  0.0039
  722loPI   C3B10203   1.472  12.943   6.575 -0.0256  0.1540 -0.0211
  722loPI   C4B10204   1.460  12.979   7.007  0.0001  0.1114  0.0951
  723loPI    C110205  15.258  10.187   5.152  0.0438 -0.0949 -0.1048
  723loPI    C210206  15.044   9.870   5.271  0.1242 -0.1293 -0.0506
  723loPI    C310207  15.209   9.875   4.907 -0.0567 -0.0574 -0.1328
  723loPI   PO410208  15.464  10.144   5.378 -0.2282  0.0266 -0.0339
  723loPI   GL110209  15.497  10.408   5.645 -0.2579 -0.0051  0.0757
  723loPI   GL210210  15.794  10.590   5.745 -0.2042 -0.1138  0.0774
  723loPI   C1A10211  15.353  10.275   6.003  0.2069  0.1619 -0.2054
  723loPI   C2A10212  15.241  10.035   6.304 -0.2548  0.3264 -0.1398
  723loPI   C3A10213  14.948   9.976   6.445  0.2757 -0.0199  0.1342
  723loPI   C4A10214  14.961   9.950   6.942  0.0875 -0.0962  0.1368
  723loPI   C5A10215  14.999   9.802   7.339 -0.0609 -0.2759 -0.1519
  723loPI   C6A10216  15.075  10.057   7.693  0.1115 -0.3050  0.1055
  723loPI   C1B10217  15.863  10.434   6.139  0.1898 -0.3243 -0.0685
  723loPI   C2B10218  15.617  10.324   6.439 -0.1969 -0.0612 -0.1007
  723loPI   C3B10219  15.363  10.254   6.796  0.1590  0.0406 -0.1869
  723loPI   C4B10220  15.417  10.092   7.305  0.2913  0.0208  0.1330
  724loPI    C110221  14.534   6.399   5.486  0.1374  0.0524  0.0295
  724loPI    C210222  14.503   6.008   5.563  0.0343  0.1138  0.3138
  724loPI    C310223  14.862   6.170   5.491  0.0562 -0.0654 -0.0026
  724loPI   PO410224  14.384   6.461   5.753  0.0384 -0.0886 -0.1582
  724loPI   GL110225  14.359   6.546   6.137  0.0727  0.1901  0.0619
  724loPI   GL210226  14.052   6.498   6.136  0.1305  0.1099 -0.1400
  724loPI   C1A10227  14.673   6.586   6.403 -0.0234  0.0478 -0.4562
  724loPI   C2A10228  14.707   6.571   6.802 -0.0185  0.2514 -0.2311
  724loPI   C3A10229  14.673   6.726   7.126 -0.2852  0.2377 -0.1876
  724loPI   C4A10230  14.511   6.610   7.532  0.2808  0.0225  0.1250
  724loPI   C5A10231  14.365   6.482   7.866 -0.0550  0.1712 -0.2866
  724loPI   C6A10232  14.420   6.320   8.278 -0.0250 -0.2091  0.0252
  724loPI   C1B10233  14.183   6.587   6.614 -0.2122  0.0915  0.0835
  724loPI   C2B10234  14.191   6.647   7.012 -0.2516 -0.0351  0.0976
  724loPI   C3B10235  14.036   6.693   7.462 -0.0050  0.1715  0.2753
  724loPI   C4B10236  13.833   6.523   7.915 -0.1465  0.1968  0.0194
  725loPI    C110237   6.885   9.436   5.740 -0.0302  0.0490 -0.1263
  725loPI    C210238   7.213   9.284   5.568 -0.0726 -0.2867  0.0809
  725loPI    C310239   6.851   9.201   5.418 -0.0701  0.0294 -0.1079
  725loPI   PO410240   6.923   9.396   6.004 -0.1074  0.2693  0.1282
  725loPI   GL110241   6.959   9.499   6.334  0.1732 -0.5806  0.0026
  725loPI   GL210242   7.179   9.645   6.490 -0.0204  0.0748  0.0382
  725loPI   C1A10243   6.647   9.621   6.615 -0.0358 -0.0307 -0.3230
  725loPI   C2A10244   6.501   9.511   7.057  0.0096  0.1614  0.1727
  725loPI   C3A10245   6.458   9.518   7.457  0.1403  0.0807  0.2590
  725loPI   C4A10246   6.537   9.233   7.799  0.0993 -0.1967  0.3138
  725loPI   C5A10247   6.688   9.354   8.234  0.0619 -0.0774 -0.1777
  725loPI   C6A10248   7.003   9.567   8.592 -0.2405 -0.0044  0.3107
  725loPI   C1B10249   7.083   9.621   6.898 -0.0729 -0.1666  0.2505
  725loPI   C2B10250   7.011   9.673   7.262  0.0784  0.0361  0.1432
  725loPI   C3B10251   6.973   9.828   7.659 -0.2623  0.0232 -0.4358
  725loPI   C4B10252   7.016   9.713   8.131  0.2439  0.0705 -0.1813
  726loPI    C110253   2.310   4.978   5.397 -0.0683  0.0712  0.1055
  726loPI    C210254   2.657   5.085   5.229 -0.1023 -0.1630 -0.1207
  726loPI    C310255   2.370   5.357   5.285  0.1261  0.0386  0.0952
  726loPI   PO410256   2.495   4.832   5.719 -0.2152 -0.0462  0.2125
  726loPI   GL110257   2.116   4.962   6.030 -0.2283 -0.1040 -0.1643
  726loPI   GL210258   1.739   4.789   6.044 -0.0089  0.1319 -0.0782
  726loPI   C1A10259   2.277   4.965   6.437  0.1547 -0.1183  0.1804
  726loPI   C2A10260   2.347   5.014   6.854  0.2525 -0.1659 -0.0199
  726loPI   C3A10261   2.249   5.005   7.258  0.0385  0.1019 -0.1857
  726loPI   C4A10262   2.239   4.949   7.640  0.1283  0.2127  0.4001
  726loPI   C5A10263   2.259   4.856   8.002  0.1832  0.1810 -0.0876
  726loPI   C6A10264   2.169   4.613   8.343  0.1487  0.1087  0.2339
  726loPI   C1B10265   1.882   4.685   6.400  0.2287 -0.3246 -0.1025
  726loPI   C2B10266   1.975   4.753   6.786 -0.0211  0.0303  0.0094
  726loPI   C3B10267   1.776   4.708   7.203  0.2899 -0.2681 -0.2878
  726loPI   C4B10268   1.719   4.799   7.691  0.2425  0.0037  0.1699
  727loPI    C110269  14.571  16.190   5.701  0.0375  0.0794  0.0951
  727loPI    C210270  14.739  16.543   5.786 -0.0283  0.1517 -0.0716
  727loPI    C310271  14.738  16.407   5.410 -0.2122  0.0838 -0.0477
  727loPI   PO410272  14.614  16.136   5.943  0.0400  0.6257 -0.1162
  727loPI   GL110273  14.622  15.886   6.319  0.1794 -0.2688  0.2584
  727loPI   GL210274  14.832  16.001   6.466 -0.1611 -0.1505  0.4311
  727loPI   C1A10275  14.417  15.801   6.752 -0.0998 -0.0275 -0.0682
  727loPI   C2A10276  14.565  15.548   7.038 -0.1551  0.2404  0.0575
  727loPI   C3A10277  14.656  15.391   7.469 -0.1480 -0.1934 -0.2260
  727loPI   C4A10278  14.710  15.515   7.831  0.0719 -0.1704 -0.1785
  727loPI   C5A10279  15.165  15.375   8.076 -0.1977 -0.2886 -0.1830
  727loPI   C6A10280  15.400  15.006   8.169  0.1765  0.1547  0.1997
  727loPI   C1B10281  14.857  16.060   6.963  0.0664 -0.4299  0.0011
  727loPI   C2B10282  14.934  15.767   7.287 -0.2289 -0.0503  0.0532
  727loPI   C3B10283  15.071  15.863   7.682 -0.0197 -0.2975 -0.0266
  727loPI   C4B10284  15.434  15.810   7.954  0.1049 -0.1152  0.1128
  728loPI    C110285   1.850   6.796   5.801  0.2472  0.1539  0.0842
  728loPI    C210286   1.685   7.053   5.542  0.1126  0.1751  0.1899
  728loPI    C310287   1.629   7.101   5.936 -0.0006 -0.0755  0.2068
  728loPI   PO410288   2.161   6.841   5.687 -0.1590  0.0214  0.1241
  728loPI   GL110289   2.499   6.868   5.972 -0.0404 -0.3948  0.1765
  728loPI   GL210290   2.894   6.868   6.199  0.0226 -0.1932 -0.1617
  728loPI   C1A10291   2.455   6.784   6.448  0.1199 -0.0286  0.1269
  728loPI   C2A10292   2.400   6.635   6.764 -0.0190 -0.1885 -0.1569
  728loPI   C3A10293   2.397   6.520   7.207 -0.2773 -0.0381  0.0646
  728loPI   C4A10294   2.422   6.418   7.651  0.1864 -0.0953  0.2127
  728loPI   C5A10295   2.361   6.295   7.985  0.0378 -0.0401 -0.0763
  728loPI   C6A10296   2.403   5.869   8.226 -0.1115 -0.1517 -0.1737
  728loPI   C1B10297   2.942   6.778   6.632  0.0742  0.0419 -0.0022
  728loPI   C2B10298   2.877   6.682   7.067 -0.1777 -0.1281 -0.0407
  728loPI   C3B10299   2.857   6.763   7.443 -0.0674 -0.0378  0.2509
  728loPI   C4B10300   2.844   6.584   7.814  0.2225 -0.2556  0.0426
  729loPI    C110301   2.740   5.505   5.620 -0.0996  0.4394  0.2765
  729loPI    C210302   2.650   5.749   5.316 -0.1528  0.2644  0.1500
  729loPI    C310303   2.988   5.536   5.308 -0.1169  0.3166  0.2501
  729loPI   PO410304   2.720   5.614   5.792 -0.1615  0.2000  0.2912
  729loPI   GL110305   2.567   6.039   6.086  0.0668 -0.1162  0.2122
  729loPI   GL210306   2.578   6.339   6.199 -0.2283 -0.2954  0.0339
  729loPI   C1A10307   2.778   5.846   6.421  0.1577 -0.2199  0.0312
  729loPI   C2A10308   2.835   5.704   6.826  0.2431  0.0192  0.0650
  729loPI   C3A10309   2.758   5.686   7.330 -0.0317 -0.0505  0.2141
  729loPI   C4A10310   2.752   5.602   7.733  0.1303  0.1330 -0.0220
  729loPI   C5A10311   2.793   5.497   8.154 -0.1736  0.1239  0.0717
  729loPI   C6A10312   2.536   5.264   8.482 -0.1057 -0.0538 -0.0990
  729loPI   C1B10313   2.799   6.306   6.601  0.1146 -0.2287  0.0070
  729loPI   C2B10314   2.852   6.185   7.046 -0.1181 -0.1347  0.1117
  729loPI   C3B10315   2.779   6.229   7.385  0.0723  0.0734  0.2211
  729loPI   C4B10316   2.751   6.073   7.820  0.3558  0.0888 -0.2089
  730loPI    C110317   5.259   7.943   5.729  0.0609 -0.1139 -0.0160
  730loPI    C210318   4.926   7.722   5.721 -0.1789  0.2419 -0.1108
  730loPI    C310319   5.236   7.625   5.487 -0.0755 -0.2954  0.2311
  730loPI   PO410320   5.245   8.140   5.909 -0.0903 -0.0832  0.1323
  730loPI   GL110321   5.464   8.383   6.274 -0.2732  0.0485  0.3138
  730loPI   GL210322   5.500   8.098   6.344 -0.1667  0.1798  0.0831
  730loPI   C1A10323   5.587   8.467   6.688  0.0826 -0.1156  0.0664
  730loPI   C2A10324   5.700   8.379   7.051 -0.0361  0.1095  0.0130
  730loPI   C3A10325   5.811   8.218   7.527  0.3137 -0.0574  0.2978
  730loPI   C4A10326   5.831   7.830   7.825  0.1378 -0.3250 -0.0562
  730loPI   C5A10327   6.009   7.755   8.205  0.2001 -0.3699 -0.1180
  730loPI   C6A10328   6.267   7.836   8.383  0.0587 -0.0468 -0.1155
  730loPI   C1B10329   5.620   7.929   6.771  0.1084 -0.0225 -0.1472
  730loPI   C2B10330   5.556   7.851   7.180  0.2141 -0.1219 -0.0810
  730loPI   C3B10331   5.455   7.553   7.497 -0.0560  0.0650  0.0175
  730loPI   C4B10332   5.388   7.605   7.894 -0.2048 -0.2367 -0.0598
  731loPI    C110333   1.824   5.179   5.435 -0.0389  0.0820 -0.0299
  731loPI    C210334   1.664   4.994   5.119  0.2613 -0.0057 -0.1345
  731loPI    C310335   1.612   5.387   5.168  0.2591  0.0186 -0.3238
  731loPI   PO410336   1.764   5.049   5.677 -0.3308 -0.0784  0.2198
  731loPI   GL110337   1.712   5.369   5.913  0.0565  0.3690 -0.2278
  731loPI   GL210338   1.619   5.675   6.038  0.1019  0.1898  0.2315
  731loPI   C1A10339   1.894   5.215   6.357  0.0399 -0.1778  0.0646
  731loPI   C2A10340   1.901   5.265   6.808  0.0778 -0.2846  0.1093
  731loPI   C3A10341   1.837   5.258   7.209  0.3017 -0.1034  0.0267
  731loPI   C4A10342   1.813   5.252   7.588  0.0092  0.0863 -0.2197
  731loPI   C5A10343   1.730   5.192   7.971 -0.2244  0.1101 -0.0734
  731loPI   C6A10344   1.659   5.465   8.194  0.0449 -0.1153 -0.2770
  731loPI   C1B10345   1.413   5.456   6.487 -0.2549  0.0726  0.2559
  731loPI   C2B10346   1.456   5.461   6.854  0.1288 -0.0686  0.1715
  731loPI   C3B10347   1.379   5.578   7.260 -0.3119  0.1139 -0.0008
  731loPI   C4B10348   1.416   5.586   7.616  0.0019 -0.0559  0.0636
  732loPI    C110349  15.262  15.667   5.918 -0.0364  0.1178 -0.1939
  732loPI    C210350  14.952  15.833   5.727 -0.2744 -0.3127 -0.1934
  732loPI    C310351  15.168  15.547   5.548  0.0421 -0.1112 -0.1413
  732loPI   PO410352  15.161  15.700   6.206  0.4675  0.0890 -0.2691
  732loPI   GL110353  15.381  15.730   6.645  0.0160  0.3012  0.0987
  732loPI   GL210354  15.520  15.360   6.554 -0.2031 -0.0729  0.2896
  732loPI   C1A10355  15.346  16.114   6.888  0.0613  0.0620  0.0384
  732loPI   C2A10356  15.238  16.396   7.211 -0.1577  0.2191  0.1952
  732loPI   C3A10357  15.005  16.333   7.522 -0.2296 -0.0524 -0.1222
  732loPI   C4A10358  14.892  16.518   7.836 -0.2055 -0.1584  0.1881
  732loPI   C5A10359  14.789  16.866   8.074  0.1618 -0.4470 -0.0828
  732loPI   C6A10360  14.422  17.095   8.191  0.1116 -0.0239 -0.1036
  732loPI   C1B10361  15.245  15.440   7.006  0.4602 -0.0651 -0.2292
  732loPI   C2B10362  15.436  15.797   7.309  0.0689 -0.0108 -0.0945
  732loPI   C3B10363  15.483  16.087   7.540 -0.0189 -0.0330 -0.1014
  732loPI   C4B10364  15.339  16.296   7.929 -0.0627 -0.1766 -0.1434
  733loPI    C110365  16.739  16.990   5.573  0.1568 -0.1317 -0.0751
  733loPI    C210366  17.025  17.001   5.293  0.0167 -0.1498 -0.2201
  733loPI    C310367  16.660  17.143   5.212  0.0150 -0.0231  0.0011
  733loPI   PO410368  16.890  17.076   5.773  0.0379  0.4930  0.0428
  733loPI   GL110369  16.808  17.515   6.021 -0.0594 -0.0716 -0.0559
  733loPI   GL210370  16.657  17.224   6.206 -0.2619 -0.2827 -0.1286
  733loPI   C1A10371  16.659  17.639   6.484  0.1721 -0.0393  0.1509
  733loPI   C2A10372  16.689  17.478   6.962 -0.2256 -0.1633  0.2430
  733loPI   C3A10373  16.496  17.381   7.402 -0.0744 -0.1407  0.1724
  733loPI   C4A10374  16.365  17.152   7.702 -0.0329 -0.1862 -0.0365
  733loPI   C5A10375  16.247  17.277   8.083 -0.3546  0.0089 -0.0102
  733loPI   C6A10376  15.972  17.084   8.393 -0.0196  0.0234  0.3153
  733loPI   C1B10377  16.918  17.177   6.586  0.1853 -0.2390 -0.2761
  733loPI   C2B10378  17.010  16.970   6.885 -0.2272  0.0888  0.2113
  733loPI   C3B10379  17.037  16.698   7.097 -0.0146  0.0732  0.1363
  733loPI   C4B10380  17.124  16.590   7.425  0.0019  0.2988  0.2656
  734loPI    C110381  12.821   5.854   5.555 -0.1349  0.1233 -0.2364
  734loPI    C210382  12.552   5.970   5.282 -0.0499  0.0825 -0.3382
  734loPI    C310383  12.743   5.621   5.239  0.0055  0.1024 -0.2564
  734loPI   PO410384  12.721   6.048   5.778 -0.3874  0.0690 -0.1065
  734loPI   GL110385  12.561   6.182   6.134  0.2345 -0.2614  0.3723
  734loPI   GL210386  12.866   6.420   6.048 -0.2606  0.0240  0.1004
  734loPI   C1A10387  12.810   5.935   6.400 -0.2002  0.0054  0.0567
  734loPI   C2A10388  12.642   5.955   6.866  0.2371  0.0809 -0.1449
  734loPI   C3A10389  12.793   6.054   7.262  0.1489 -0.1717  0.0771
  734loPI   C4A10390  12.912   6.117   7.649  0.2750  0.4660 -0.0025
  734loPI   C5A10391  13.045   6.223   8.062 -0.4406  0.2661  0.0171
  734loPI   C6A10392  13.030   6.539   8.368  0.1703  0.0455 -0.1455
  734loPI   C1B10393  12.977   6.403   6.426 -0.2932  0.0054  0.0197
  734loPI   C2B10394  12.946   6.317   6.840  0.0394  0.0317  0.0540
  734loPI   C3B10395  13.057   6.466   7.220  0.1703  0.0535 -0.0948
  734loPI   C4B10396  13.132   6.537   7.671 -0.0573  0.2081 -0.2990
  735loPI    C110397   7.549  14.372   5.769  0.0141 -0.0845  0.1547
  735loPI    C210398   7.483  14.074   5.510 -0.1404  0.0940 -0.0140
  735loPI    C310399   7.834  14.099   5.701 -0.0515 -0.0801 -0.1518
  735loPI   PO410400   7.309  14.374   5.961 -0.0713  0.0279  0.4988
  735loPI   GL110401   7.270  14.330   6.306 -0.0675 -0.1507  0.3110
  735loPI   GL210402   6.952  14.113   6.300  0.0624 -0.2561  0.0085
  735loPI   C1A10403   7.270  14.426   6.765 -0.0401 -0.0728  0.1965
  735loPI   C2A10404   7.361  14.530   7.124  0.2223  0.1720  0.1903
  735loPI   C3A10405   7.285  14.739   7.409  0.0777 -0.1075  0.1696
  735loPI   C4A10406   7.031  14.736   7.765 -0.0473  0.0805 -0.0508
  735loPI   C5A10407   6.894  14.630   8.138 -0.1720  0.0538  0.1017
  735loPI   C6A10408   6.961  14.567   8.686 -0.1841 -0.1408 -0.0026
  735loPI   C1B10409   6.923  14.010   6.704  0.0703 -0.2060 -0.1738
  735loPI   C2B10410   6.790  13.866   7.082 -0.3173 -0.3499  0.2504
  735loPI   C3B10411   6.664  13.838   7.520 -0.0820 -0.2030  0.3540
  735loPI   C4B10412   6.425  14.056   7.738  0.4312 -0.1838  0.0963
  736loPI    C110413   3.006   4.541   5.559  0.2124 -0.2688 -0.0192
  736loPI    C210414   2.728   4.421   5.297  0.0202 -0.0740  0.0923
  736loPI    C310415   2.982   4.715   5.200  0.0609 -0.1191  0.0620
  736loPI   PO410416   2.888   4.564   5.803 -0.2419  0.0292 -0.0172
  736loPI   GL110417   2.938   4.832   6.091 -0.1852  0.2962  0.1353
  736loPI   GL210418   2.682   5.054   6.131  0.1329  0.2506 -0.3289
  736loPI   C1A10419   3.173   4.800   6.511  0.4517 -0.2812 -0.0169
  736loPI   C2A10420   3.252   4.945   6.976  0.1319 -0.3084  0.0077
  736loPI   C3A10421   3.154   5.231   7.227  0.1390 -0.1047 -0.2419
  736loPI   C4A10422   3.174   5.335   7.622  0.1256 -0.0749  0.1039
  736loPI   C5A10423   3.141   5.220   7.995 -0.1297  0.2474 -0.0943
  736loPI   C6A10424   2.887   4.805   8.154 -0.0781 -0.0902  0.1146
  736loPI   C1B10425   2.715   5.223   6.590 -0.0719  0.2868 -0.0344
  736loPI   C2B10426   2.701   5.251   7.013  0.1247 -0.0352  0.0207
  736loPI   C3B10427   2.682   5.107   7.430 -0.1286 -0.4725  0.1209
  736loPI   C4B10428   2.732   5.102   7.738  0.0413 -0.2650  0.1402
  737loPI    C110429   6.185   9.750   5.617  0.0500  0.0268  0.0054
  737loPI    C210430   6.194   9.551   5.269  0.0756  0.0168  0.0118
  737loPI    C310431   6.536   9.643   5.456  0.0779  0.3210 -0.1359
  737loPI   PO410432   6.054   9.547   5.820  0.0338 -0.3631  0.4053
  737loPI   GL110433   5.931   9.612   6.219  0.2276 -0.0530 -0.1851
  737loPI   GL210434   6.217   9.532   6.295  0.4895  0.3559  0.0956
  737loPI   C1A10435   5.551   9.642   6.534  0.0550 -0.3103  0.1778
  737loPI   C2A10436   5.544   9.690   6.941  0.1888  0.0786 -0.1416
  737loPI   C3A10437   5.549   9.765   7.376  0.0745 -0.0198 -0.1089
  737loPI   C4A10438   5.356   9.886   7.673 -0.0039 -0.2234 -0.0233
  737loPI   C5A10439   5.248   9.713   8.088  0.0910 -0.1774 -0.2485
  737loPI   C6A10440   5.236   9.800   8.542  0.5114 -0.2750 -0.0456
  737loPI   C1B10441   6.043   9.813   6.648  0.1495 -0.1186 -0.0764
  737loPI   C2B10442   6.000  10.158   6.862 -0.0672  0.1829  0.0673
  737loPI   C3B10443   5.723  10.271   7.139  0.0118 -0.0687 -0.1484
  737loPI   C4B10444   5.474  10.451   7.379 -0.0874 -0.2822  0.1358
  738loPI    C110445   6.670   8.675   5.540  0.1677 -0.1171  0.2271
  738loPI    C210446   6.677   8.410   5.241 -0.0796 -0.0206  0.1333
  738loPI    C310447   6.750   8.796   5.167  0.5798 -0.0990  0.3171
  738loPI   PO410448   6.807   8.483   5.688 -0.2427 -0.0794 -0.3151
  738loPI   GL110449   6.944   8.297   6.080 -0.0419  0.2306  0.2427
  738loPI   GL210450   6.888   8.574   6.194 -0.3581  0.1272 -0.0414
  738loPI   C1A10451   6.898   8.116   6.518 -0.0442  0.1687  0.0018
  738loPI   C2A10452   6.958   8.040   6.920  0.0677  0.0758 -0.1790
  738loPI   C3A10453   7.045   7.947   7.397 -0.2141  0.2976  0.2104
  738loPI   C4A10454   7.116   8.305   7.654  0.2009 -0.0279 -0.0450
  738loPI   C5A10455   7.297   8.487   7.982 -0.1177 -0.0409  0.0026
  738loPI   C6A10456   7.466   8.217   8.416  0.1359  0.0838 -0.0585
  738loPI   C1B10457   6.801   8.604   6.657  0.2369 -0.2167 -0.2315
  738loPI   C2B10458   6.498   8.668   6.991 -0.0755  0.2107 -0.0861
  738loPI   C3B10459   6.400   9.038   7.230  0.1063  0.0311  0.0630
  738loPI   C4B10460   6.078   9.097   7.529  0.0090  0.0983 -0.1471
  739loPI    C110461   0.787  11.597   5.469 -0.3533 -0.3016  0.0428
  739loPI    C210462   1.151  11.431   5.483 -0.0426  0.3267 -0.2007
  739loPI    C310463   0.952  11.448   5.136 -0.2079  0.1923 -0.1142
  739loPI   PO410464   0.841  11.807   5.610  0.0370  0.0724  0.0083
  739loPI   GL110465   1.115  11.940   5.885 -0.0028  0.3104 -0.1948
  739loPI   GL210466   1.213  12.244   5.846 -0.0794  0.1146 -0.1949
  739loPI   C1A10467   0.934  12.189   6.233  0.0032 -0.0543  0.0227
  739loPI   C2A10468   0.957  12.232   6.680  0.1053 -0.2304  0.0874
  739loPI   C3A10469   0.982  12.100   7.156 -0.2015  0.0066  0.1341
  739loPI   C4A10470   0.945  12.018   7.585  0.0807 -0.0274 -0.0878
  739loPI   C5A10471   0.978  11.927   8.009 -0.0179  0.0637 -0.0929
  739loPI   C6A10472   1.244  12.019   8.299  0.0502 -0.2360  0.2417
  739loPI   C1B10473   1.479  12.294   6.117  0.0362 -0.0461  0.2331
  739loPI   C2B10474   1.439  12.447   6.466 -0.2137 -0.4341 -0.0519
  739loPI   C3B10475   1.393  12.435   6.929 -0.0583 -0.0962 -0.1344
  739loPI   C4B10476   1.412  12.254   7.399  0.0566 -0.3333  0.0302
  740loPI    C110477   0.650   5.532   5.511  0.0399 -0.1846  0.0260
  740loPI    C210478   0.512   5.554   5.136 -0.2147 -0.2076  0.1164
  740loPI    C310479   0.895   5.463   5.203 -0.1221 -0.0209 -0.1426
  740loPI   PO410480   0.579   5.667   5.669  0.1120 -0.0056  0.0712
  740loPI   GL110481   0.852   5.724   6.087 -0.0973  0.1370 -0.2623
  740loPI   GL210482   1.137   5.501   6.099  0.0167 -0.2403  0.2460
  740loPI   C1A10483   0.978   5.730   6.588  0.1592  0.1915 -0.0050
  740loPI   C2A10484   1.006   5.848   7.014  0.3041  0.1986 -0.0079
  740loPI   C3A10485   1.048   5.902   7.436  0.0514 -0.0363  0.2099
  740loPI   C4A10486   0.882   6.039   7.838  0.0422 -0.2677  0.0192
  740loPI   C5A10487   0.583   6.268   7.999  0.1786 -0.0084 -0.1832
  740loPI   C6A10488   0.394   6.334   8.328 -0.0015  0.0102 -0.4855
  740loPI   C1B10489   0.894   5.236   6.517 -0.0202 -0.0308  0.0378
  740loPI   C2B10490   0.989   5.359   6.966 -0.3801 -0.1101 -0.1744
  740loPI   C3B10491   0.925   5.383   7.374 -0.1645 -0.0547  0.1879
  740loPI   C4B10492   1.013   5.396   7.788  0.1752 -0.1432  0.3662
  741loPI    C110493  17.240   7.685   5.262 -0.3882  0.0568 -0.0141
  741loPI    C210494  17.060   7.957   5.032 -0.1377  0.0225 -0.2566
  741loPI    C310495  17.133   7.591   4.889  0.1737  0.0534 -0.1836
  741loPI   PO410496  17.495   7.884   5.445 -0.0452  0.2684  0.0538
  741loPI   GL110497  17.652   7.879   5.898  0.5307 -0.0042  0.1894
  741loPI   GL210498  17.876   7.962   6.143 -0.2199  0.2632  0.0071
  741loPI   C1A10499  17.385   8.226   6.079 -0.0635  0.0387  0.0477
  741loPI   C2A10500  17.428   8.559   6.381  0.2444 -0.2147  0.0186
  741loPI   C3A10501  17.375   8.673   6.784  0.3222 -0.0451  0.1552
  741loPI   C4A10502  17.222   8.617   7.172  0.1047  0.4613 -0.2426
  741loPI   C5A10503  17.083   8.658   7.535  0.0442  0.4032  0.0435
  741loPI   C6A10504  16.897   8.677   7.988  0.0738 -0.0616 -0.1988
  741loPI   C1B10505  17.806   8.232   6.447  0.0050 -0.2267  0.1082
  741loPI   C2B10506  17.802   8.408   6.844 -0.2246 -0.1797  0.1650
  741loPI   C3B10507  17.712   8.597   7.275  0.0601  0.2511  0.1441
  741loPI   C4B10508  17.579   8.582   7.740  0.0640  0.0994 -0.2195
  742loPI    C110509   0.301  10.361   5.304  0.2137  0.1199  0.0862
  742loPI    C210510   0.245  10.208   4.939 -0.0682  0.1274  0.1243
  742loPI    C310511   0.613  10.301   5.062  0.0732 -0.2286 -0.0155
  742loPI   PO410512   0.061  10.295   5.450  0.1613 -0.0917 -0.0610
  742loPI   GL110513  -0.131   9.950   5.730  0.0244  0.4154 -0.0913
  742loPI   GL210514  -0.438  10.130   5.546  0.0825 -0.2073 -0.0384
  742loPI   C1A10515   0.047  10.077   6.111 -0.2257 -0.1540  0.1608
  742loPI   C2A10516   0.013  10.130   6.560  0.1909  0.1811  0.0584
  742loPI   C3A10517   0.074  10.158   6.910 -0.0774  0.1364 -0.1651
  742loPI   C4A10518  -0.124   9.984   7.234  0.1883 -0.0893  0.1189
  742loPI   C5A10519  -0.198  10.265   7.548 -0.5001 -0.0544  0.0705
  742loPI   C6A10520   0.009  10.168   7.913  0.1007 -0.3365 -0.3524
  742loPI   C1B10521  -0.579  10.241   5.939  0.1629 -0.1954  0.0943
  742loPI   C2B10522  -0.337  10.347   6.272  0.0287  0.0506 -0.1273
  742loPI   C3B10523  -0.401  10.333   6.724  0.0139 -0.1923  0.2083
  742loPI   C4B10524  -0.401  10.345   7.132 -0.0615 -0.0446  0.0554
  743loPI    C110525  15.679   8.441   5.218 -0.0671  0.2114  0.0989
  743loPI    C210526  15.859   8.689   4.962 -0.1546  0.0926 -0.0798
  743loPI    C310527  15.579   8.436   4.831 -0.1273 -0.0409  0.1162
  743loPI   PO410528  15.855   8.382   5.390 -0.0239  0.1350  0.2021
  743loPI   GL110529  15.832   8.623   5.835  0.0138  0.0766  0.1035
  743loPI   GL210530  15.568   8.830   5.800 -0.0817  0.2882  0.2194
  743loPI   C1A10531  15.963   8.877   6.245 -0.2573  0.1757 -0.1297
  743loPI   C2A10532  15.910   9.225   6.340  0.0615  0.0461 -0.1036
  743loPI   C3A10533  15.808   9.438   6.606  0.0336  0.0065  0.0540
  743loPI   C4A10534  16.029   9.379   6.991 -0.0633 -0.0076  0.2337
  743loPI   C5A10535  16.127   9.380   7.352 -0.3869  0.0306 -0.1432
  743loPI   C6A10536  16.035   9.690   7.804  0.0632 -0.0733 -0.1430
  743loPI   C1B10537  15.397   8.948   6.199 -0.0515 -0.1148 -0.0154
  743loPI   C2B10538  15.353   9.166   6.554 -0.0550  0.1308 -0.0163
  743loPI   C3B10539  15.501   9.225   6.968  0.1525  0.2195  0.0138
  743loPI   C4B10540  15.675   9.168   7.295 -0.2219  0.1078 -0.0536
  744loPI    C110541  12.617  13.253   5.998 -0.0384 -0.0548  0.2636
  744loPI    C210542  12.380  13.538   5.849 -0.0438 -0.1436  0.0996
  744loPI    C310543  12.302  13.154   5.773  0.1410 -0.1743  0.0608
  744loPI   PO410544  12.641  13.373   6.221  0.0755 -0.0212 -0.1485
  744loPI   GL110545  12.499  13.274   6.605  0.3737 -0.2470  0.0157
  744loPI   GL210546  12.785  13.331   6.727 -0.0572 -0.0404 -0.0568
  744loPI   C1A10547  12.490  12.968   6.958  0.1659  0.1739 -0.1929
  744loPI   C2A10548  12.275  13.073   7.333  0.0920 -0.1670  0.0407
  744loPI   C3A10549  12.251  13.184   7.715  0.0592 -0.2688  0.3029
  744loPI   C4A10550  12.397  13.086   8.119 -0.0223 -0.3861  0.0779
  744loPI   C5A10551  12.109  13.011   8.400 -0.0184  0.0619  0.1720
  744loPI   C6A10552  11.729  13.006   8.675  0.0278  0.1397 -0.0362
  744loPI   C1B10553  12.668  13.368   7.242 -0.4950 -0.0882  0.2207
  744loPI   C2B10554  12.768  13.268   7.646 -0.0666  0.1780 -0.1725
  744loPI   C3B10555  13.132  13.029   7.925 -0.2522  0.0207  0.1445
  744loPI   C4B10556  13.329  12.895   8.281 -0.0121 -0.1302 -0.1579
  745loPI    C110557  13.177  10.210   5.314  0.0251 -0.0579  0.1814
  745loPI    C210558  13.229  10.600   5.384 -0.1197 -0.0368  0.1737
  745loPI    C310559  13.005  10.481   5.075  0.1296 -0.1273  0.0257
  745loPI   PO410560  13.198  10.086   5.607  0.1975 -0.0609 -0.1859
  745loPI   GL110561  13.347  10.259   5.989  0.1366  0.0714  0.0311
  745loPI   GL210562  13.415  10.512   5.844 -0.0533  0.2003  0.2121
  745loPI   C1A10563  13.108  10.117   6.471  0.3149  0.4254  0.0053
  745loPI   C2A10564  13.070  10.186   6.959 -0.0744  0.4869  0.1906
  745loPI   C3A10565  13.201  10.274   7.337  0.1962 -0.0069 -0.2301
  745loPI   C4A10566  13.054  10.287   7.745  0.1806  0.4672 -0.0363
  745loPI   C5A10567  12.650  10.431   8.093 -0.0476  0.0309 -0.0492
  745loPI   C6A10568  12.727  10.743   8.285  0.2706 -0.1054  0.2614
  745loPI   C1B10569  13.461  10.558   6.339  0.0096  0.0659  0.1201
  745loPI   C2B10570  13.531  10.610   6.729  0.0806  0.0149 -0.1460
  745loPI   C3B10571  13.569  10.669   7.207  0.0770  0.0969 -0.3940
  745loPI   C4B10572  13.720  10.520   7.640 -0.1851 -0.0117 -0.1221
  746loPI    C110573   6.196   2.431   5.814  0.0239  0.1825 -0.0096
  746loPI    C210574   5.924   2.708   5.720 -0.2195 -0.0535 -0.0105
  746loPI    C310575   6.185   2.582   5.444 -0.1255  0.1530 -0.0175
  746loPI   PO410576   6.113   2.456   6.108  0.0038 -0.1040  0.1203
  746loPI   GL110577   6.048   2.665   6.484  0.0526 -0.0962  0.0837
  746loPI   GL210578   5.874   2.369   6.554 -0.1664 -0.0945 -0.1234
  746loPI   C1A10579   6.192   2.663   6.894 -0.0151  0.1852  0.2551
  746loPI   C2A10580   6.359   2.801   7.144  0.3313  0.3376 -0.2929
  746loPI   C3A10581   6.313   2.830   7.627 -0.1563  0.1905 -0.3027
  746loPI   C4A10582   6.495   2.942   8.049  0.1197 -0.0381  0.2709
  746loPI   C5A10583   6.634   3.013   8.321  0.0700 -0.2489 -0.1677
  746loPI   C6A10584   6.796   3.227   8.656  0.1873 -0.0657  0.0888
  746loPI   C1B10585   5.676   2.561   6.877 -0.1889  0.0056 -0.0272
  746loPI   C2B10586   5.570   2.625   7.262 -0.3431 -0.1131 -0.0093
  746loPI   C3B10587   5.325   2.644   7.697 -0.0217 -0.0290  0.2827
  746loPI   C4B10588   5.188   2.908   8.059 -0.3164 -0.1725 -0.0731
  747loPI    C110589  12.048   8.529   5.310 -0.0205 -0.0090  0.1028
  747loPI    C210590  12.411   8.690   5.355  0.0165 -0.0424 -0.0697
  747loPI    C310591  12.285   8.578   4.992 -0.2191  0.0925 -0.0322
  747loPI   PO410592  11.913   8.712   5.608 -0.4595 -0.0469  0.1714
  747loPI   GL110593  12.221   8.666   5.914 -0.0753  0.0138  0.1262
  747loPI   GL210594  12.478   8.433   5.930 -0.1108  0.2495 -0.0184
  747loPI   C1A10595  12.217   8.523   6.312  0.1880  0.3642 -0.1640
  747loPI   C2A10596  12.389   8.487   6.628 -0.0652  0.1293  0.0094
  747loPI   C3A10597  12.291   8.520   7.146 -0.2774  0.0215  0.0067
  747loPI   C4A10598  12.266   8.627   7.502  0.4674 -0.1902  0.1371
  747loPI   C5A10599  12.096   8.659   8.028  0.0577  0.2286  0.2305
  747loPI   C6A10600  12.051   8.719   8.367 -0.2247 -0.0046 -0.2648
  747loPI   C1B10601  12.716   8.616   6.273 -0.0403  0.1647 -0.0621
  747loPI   C2B10602  12.796   8.813   6.634 -0.0943  0.5131  0.0901
  747loPI   C3B10603  12.717   8.759   7.063  0.1122  0.0047 -0.1418
  747loPI   C4B10604  12.795   8.837   7.509  0.0198 -0.0908 -0.0019
  748loPI    C110605   5.549  12.589   5.952  0.0037  0.2784 -0.1128
  748loPI    C210606   5.401  12.463   5.602 -0.1360  0.2791 -0.0545
  748loPI    C310607   5.780  12.381   5.700 -0.1292  0.1842 -0.1582
  748loPI   PO410608   5.356  12.873   6.029 -0.0142 -0.1254 -0.0771
  748loPI   GL110609   5.179  13.047   6.406 -0.1504 -0.2449  0.0748
  748loPI   GL210610   4.933  12.812   6.540 -0.0727  0.0066  0.0236
  748loPI   C1A10611   5.264  13.018   6.924 -0.0413 -0.2478 -0.0991
  748loPI   C2A10612   5.085  13.074   7.327  0.2184  0.1189  0.0512
  748loPI   C3A10613   5.049  12.864   7.655 -0.1624 -0.3085  0.3497
  748loPI   C4A10614   4.944  12.717   8.032 -0.2364  0.1912  0.0433
  748loPI   C5A10615   4.824  12.499   8.271 -0.0887 -0.3282 -0.1881
  748loPI   C6A10616   4.625  12.225   8.472  0.0638 -0.0524 -0.3636
  748loPI   C1B10617   4.665  12.987   7.018  0.0578 -0.1384 -0.1482
  748loPI   C2B10618   4.583  13.220   7.383 -0.2561  0.3185 -0.2899
  748loPI   C3B10619   4.399  13.124   7.711  0.2099 -0.2795 -0.0842
  748loPI   C4B10620   4.413  12.905   8.051 -0.0359  0.5055 -0.1075
  749loPI    C110621   7.382  16.367   5.723 -0.0194 -0.1246 -0.1513
  749loPI    C210622   7.295  16.736   5.594 -0.0432 -0.0123  0.1744
  749loPI    C310623   7.001  16.472   5.659 -0.0523  0.0151  0.2446
  749loPI   PO410624   7.520  16.494   5.950 -0.1098 -0.3310  0.2688
  749loPI   GL110625   7.298  16.549   6.249 -0.2822  0.3318  0.0729
  749loPI   GL210626   7.171  16.748   6.433 -0.3099 -0.1787  0.0868
  749loPI   C1A10627   7.115  16.282   6.535  0.0180 -0.0730  0.1646
  749loPI   C2A10628   7.261  16.383   6.970 -0.1572 -0.1191  0.1923
  749loPI   C3A10629   7.266  16.267   7.396  0.0871  0.0156  0.2356
  749loPI   C4A10630   7.229  16.200   7.874  0.3337  0.1748 -0.0355
  749loPI   C5A10631   7.041  16.187   8.340 -0.0096  0.0706  0.1074
  749loPI   C6A10632   6.907  15.913   8.648  0.1090 -0.2437  0.1168
  749loPI   C1B10633   7.131  16.802   6.858  0.2079 -0.1065 -0.1393
  749loPI   C2B10634   7.235  16.848   7.295  0.1252  0.2285 -0.1466
  749loPI   C3B10635   7.169  16.726   7.755  0.1430  0.2265  0.3325
  749loPI   C4B10636   6.876  16.550   7.987 -0.4069 -0.0377 -0.1079
  750loPI    C110637   4.006   4.104   5.341 -0.0996  0.1176 -0.4791
  750loPI    C210638   4.372   4.009   5.473 -0.2043  0.1884 -0.1274
  750loPI    C310639   4.237   3.856   5.129  0.0061 -0.1478 -0.0651
  750loPI   PO410640   3.892   4.165   5.643 -0.0272  0.1772  0.1061
  750loPI   GL110641   3.658   4.171   5.942 -0.4175 -0.1400  0.2235
  750loPI   GL210642   3.915   4.024   6.122 -0.2122  0.3404 -0.3101
  750loPI   C1A10643   3.588   4.306   6.361  0.1551 -0.0117  0.0316
  750loPI   C2A10644   3.650   4.532   6.744 -0.0629  0.2818 -0.1833
  750loPI   C3A10645   3.553   4.681   7.162 -0.3307  0.2872  0.0088
  750loPI   C4A10646   3.580   4.975   7.373 -0.3012  0.0238 -0.0116
  750loPI   C5A10647   3.745   5.132   7.743 -0.2897  0.1536 -0.1888
  750loPI   C6A10648   3.658   5.201   8.082 -0.1614 -0.5035 -0.2769
  750loPI   C1B10649   3.949   4.055   6.570  0.2423  0.2169 -0.0356
  750loPI   C2B10650   4.014   4.217   6.984  0.0751 -0.1416 -0.1045
  750loPI   C3B10651   4.039   4.363   7.408 -0.0462  0.0739 -0.1430
  750loPI   C4B10652   4.004   4.726   7.623  0.1427  0.1345  0.2125
  751loPI    C110653  14.839   8.297   5.589 -0.0367  0.0256 -0.0040
  751loPI    C210654  14.699   7.926   5.541  0.0060  0.0059  0.0246
  751loPI    C310655  15.034   8.039   5.354 -0.0328  0.0444 -0.0215
  751loPI   PO410656  14.751   8.313   5.899 -0.4749 -0.1022  0.0805
  751loPI   GL110657  14.448   8.188   6.076 -0.1193  0.1102  0.3222
  751loPI   GL210658  14.493   7.887   6.219  0.0660  0.0322 -0.1799
  751loPI   C1A10659  14.539   8.230   6.550 -0.0740 -0.0784  0.3611
  751loPI   C2A10660  14.533   8.326   7.021 -0.2153 -0.0789 -0.0060
  751loPI   C3A10661  14.513   8.400   7.391  0.2084  0.0120 -0.0914
  751loPI   C4A10662  14.259   8.324   7.728  0.0960 -0.0663  0.0928
  751loPI   C5A10663  14.020   8.452   7.991  0.0337 -0.0820 -0.1646
  751loPI   C6A10664  13.540   8.542   8.180  0.1883 -0.1974  0.0968
  751loPI   C1B10665  14.613   7.692   6.572 -0.2446  0.0649  0.0217
  751loPI   C2B10666  14.530   7.743   7.039 -0.0952  0.2108  0.1960
  751loPI   C3B10667  14.388   7.912   7.409 -0.1265  0.1218 -0.2397
  751loPI   C4B10668  13.962   7.903   7.677  0.0660 -0.1524 -0.3073
  752loPI    C110669   3.129   1.180   5.817  0.2724 -0.0292  0.0395
  752loPI    C210670   2.981   1.551   5.803 -0.0084 -0.1400  0.0081
  752loPI    C310671   2.735   1.237   5.779  0.2327 -0.3292 -0.0227
  752loPI   PO410672   3.420   1.287   6.054 -0.0872  0.2455  0.0604
  752loPI   GL110673   3.241   1.554   6.422  0.0676  0.0299  0.1832
  752loPI   GL210674   2.945   1.603   6.361  0.0007  0.0708 -0.0951
  752loPI   C1A10675   3.198   1.181   6.690 -0.1187 -0.3376  0.2021
  752loPI   C2A10676   3.331   1.054   7.019  0.4039 -0.3670  0.1453
  752loPI   C3A10677   3.311   0.820   7.386 -0.0033 -0.2844  0.0349
  752loPI   C4A10678   3.429   0.752   7.773  0.0432  0.3426  0.1578
  752loPI   C5A10679   3.453   0.469   8.073 -0.2600  0.3891 -0.1054
  752loPI   C6A10680   3.338   0.273   8.401 -0.1321 -0.2442  0.0871
  752loPI   C1B10681   2.922   1.657   6.772  0.1246 -0.0602 -0.2029
  752loPI   C2B10682   2.761   1.605   7.211 -0.1333  0.1217 -0.3400
  752loPI   C3B10683   2.753   1.522   7.689 -0.0182  0.1267 -0.0889
  752loPI   C4B10684   2.814   1.691   8.024 -0.2748 -0.1498 -0.1487
  753loPI    C110685   3.156   8.173   5.653  0.1229 -0.0510 -0.0213
  753loPI    C210686   2.810   8.142   5.454  0.0686  0.0958  0.0487
  753loPI    C310687   3.132   8.296   5.273  0.0644  0.0735  0.0222
  753loPI   PO410688   3.053   8.173   5.930 -0.3555 -0.4107  0.0860
  753loPI   GL110689   3.216   8.359   6.269 -0.0051 -0.3708  0.1375
  753loPI   GL210690   3.287   8.077   6.398 -0.2724 -0.1075  0.0425
  753loPI   C1A10691   3.290   8.680   6.598  0.0007  0.0774  0.1314
  753loPI   C2A10692   3.276   8.707   7.056  0.0225 -0.1851 -0.0617
  753loPI   C3A10693   3.202   8.714   7.489 -0.0126  0.0319  0.0589
  753loPI   C4A10694   3.072   8.550   7.981 -0.0400 -0.0438 -0.2349
  753loPI   C5A10695   2.716   8.208   8.222 -0.0821  0.1316 -0.2326
  753loPI   C6A10696   2.338   8.101   8.251  0.1272  0.1240 -0.0889
  753loPI   C1B10697   3.302   8.226   6.855  0.1088  0.1805  0.0094
  753loPI   C2B10698   3.332   8.071   7.193 -0.0510  0.0050  0.2298
  753loPI   C3B10699   3.254   8.177   7.645  0.0249 -0.2390  0.2214
  753loPI   C4B10700   3.177   7.924   7.975 -0.0382  0.1788 -0.0919
  754loPI    C110701   7.233  14.882   5.913  0.0501  0.1430 -0.1581
  754loPI    C210702   7.469  15.204   5.888  0.0629  0.1238 -0.2932
  754loPI    C310703   7.552  14.878   5.672  0.0379  0.0373 -0.1729
  754loPI   PO410704   7.208  14.846   6.131 -0.0530  0.2043  0.1619
  754loPI   GL110705   7.393  14.856   6.492  0.3796  0.2048 -0.1864
  754loPI   GL210706   7.625  14.864   6.649 -0.4056  0.0351 -0.0038
  754loPI   C1A10707   7.093  14.923   6.900 -0.0845  0.2360  0.2132
  754loPI   C2A10708   6.765  14.850   7.254 -0.0455 -0.1885 -0.1117
  754loPI   C3A10709   6.564  15.065   7.577  0.1237 -0.0967  0.0383
  754loPI   C4A10710   6.494  15.330   7.986 -0.1267 -0.1587 -0.0331
  754loPI   C5A10711   6.849  15.425   8.201  0.3849 -0.1291  0.0609
  754loPI   C6A10712   7.095  15.750   8.139 -0.0366  0.1765  0.0066
  754loPI   C1B10713   7.663  15.079   6.965 -0.1351 -0.2593 -0.3277
  754loPI   C2B10714   7.782  15.305   7.460 -0.0485  0.1172  0.1555
  754loPI   C3B10715   7.735  15.325   7.910  0.0689  0.0274 -0.2496
  754loPI   C4B10716   7.551  15.436   8.293  0.0278 -0.3873  0.4381
  755loPI    C110717   8.554  10.451   5.563  0.3156  0.0274 -0.0479
  755loPI    C210718   8.700  10.823   5.550 -0.4023  0.3305  0.1035
  755loPI    C310719   8.440  10.700   5.272 -0.0187 -0.1367 -0.0622
  755loPI   PO410720   8.360  10.456   5.780  0.0718  0.1361  0.4008
  755loPI   GL110721   8.174  10.661   6.015 -0.0069  0.1681 -0.0210
  755loPI   GL210722   7.810  10.801   5.992 -0.2629  0.0491  0.2640
  755loPI   C1A10723   8.449  10.551   6.409  0.0678  0.0247 -0.2502
  755loPI   C2A10724   8.481  10.456   6.887  0.1742 -0.1865  0.0308
  755loPI   C3A10725   8.521  10.421   7.303 -0.2631  0.0816 -0.0843
  755loPI   C4A10726   8.411  10.388   7.673 -0.2066 -0.5841 -0.0085
  755loPI   C5A10727   8.322  10.499   8.119 -0.0979 -0.1714 -0.1488
  755loPI   C6A10728   8.622  10.514   8.475  0.0599 -0.1290 -0.2839
  755loPI   C1B10729   7.754  10.779   6.374  0.2269  0.0743  0.1015
  755loPI   C2B10730   7.721  10.898   6.896  0.1786 -0.3683  0.2800
  755loPI   C3B10731   7.891  11.210   7.168  0.4071 -0.3752  0.1418
  755loPI   C4B10732   7.895  11.267   7.590  0.0347 -0.2272  0.2185
  756loPI    C110733  10.940  12.762   5.912  0.0914  0.1852  0.0461
  756loPI    C210734  11.037  13.067   5.673  0.0688  0.0237 -0.1718
  756loPI    C310735  10.929  12.715   5.515 -0.1283 -0.0293  0.0745
  756loPI   PO410736  10.805  12.801   6.084 -0.0319  0.0041 -0.1067
  756loPI   GL110737  10.783  12.787   6.447  0.1462  0.1818  0.1499
  756loPI   GL210738  10.482  12.544   6.484  0.2674 -0.0683 -0.3067
  756loPI   C1A10739  10.402  13.014   6.580  0.1313 -0.0758  0.1778
  756loPI   C2A10740  10.315  13.469   6.829  0.1336 -0.0762  0.1575
  756loPI   C3A10741  10.125  13.473   7.264 -0.2267  0.0221 -0.0104
  756loPI   C4A10742   9.966  13.429   7.640 -0.0504 -0.1244 -0.2683
  756loPI   C5A10743  10.155  13.246   7.983  0.1368  0.0304 -0.5075
  756loPI   C6A10744  10.415  13.046   8.339 -0.1473  0.2784  0.0429
  756loPI   C1B10745  10.387  12.349   6.853 -0.3133  0.2015  0.1217
  756loPI   C2B10746  10.270  12.398   7.168  0.1977  0.0634 -0.1846
  756loPI   C3B10747  10.312  12.373   7.601 -0.0078  0.2027 -0.1438
  756loPI   C4B10748  10.204  12.060   7.988 -0.1071 -0.0929  0.2779
  757loPI    C110749   7.464   9.791   5.523  0.0182  0.1379 -0.1944
  757loPI    C210750   7.851   9.794   5.423  0.0006 -0.0294 -0.2694
  757loPI    C310751   7.682   9.458   5.559 -0.0606  0.1056 -0.0062
  757loPI   PO410752   7.467  10.044   5.634  0.2482 -0.0276 -0.3812
  757loPI   GL110753   7.458  10.089   6.119  0.1380 -0.0012 -0.0329
  757loPI   GL210754   7.503  10.425   6.135 -0.3362  0.0946 -0.2367
  757loPI   C1A10755   7.604  10.004   6.518  0.0383 -0.0793 -0.2049
  757loPI   C2A10756   7.524  10.029   6.960 -0.1289 -0.0612  0.3478
  757loPI   C3A10757   7.418   9.862   7.333  0.3262 -0.0529 -0.1730
  757loPI   C4A10758   7.429   9.845   7.842  0.2007 -0.0115  0.1941
  757loPI   C5A10759   7.850   9.609   8.037  0.3356  0.0676  0.1184
  757loPI   C6A10760   8.072   9.439   8.390  0.0431  0.1874 -0.0732
  757loPI   C1B10761   7.524  10.456   6.668 -0.1020  0.1215  0.0238
  757loPI   C2B10762   7.396  10.583   7.017  0.0080 -0.1145 -0.0539
  757loPI   C3B10763   7.587  10.763   7.370 -0.0729 -0.2424  0.0259
  757loPI   C4B10764   7.471  10.972   7.771 -0.4365 -0.2046 -0.2711
  758loPI    C110765  11.412   7.867   5.313  0.0155 -0.1184  0.0571
  758loPI    C210766  11.229   7.570   5.117 -0.1381 -0.0696  0.1254
  758loPI    C310767  11.076   7.940   5.108 -0.0930 -0.0473  0.2571
  758loPI   PO410768  11.476   7.797   5.569 -0.2503  0.0372  0.0725
  758loPI   GL110769  11.460   8.020   5.918 -0.1108  0.3751  0.0112
  758loPI   GL210770  11.155   7.820   5.976  0.2652 -0.0453  0.1605
  758loPI   C1A10771  11.698   7.855   6.197 -0.0079 -0.2876  0.0135
  758loPI   C2A10772  11.748   7.898   6.694 -0.2081  0.0061 -0.1609
  758loPI   C3A10773  11.712   7.848   7.184 -0.1726  0.0165  0.0480
  758loPI   C4A10774  11.828   7.802   7.632 -0.0745  0.1380  0.1755
  758loPI   C5A10775  12.035   7.927   7.961 -0.2271  0.2716  0.0730
  758loPI   C6A10776  12.162   8.185   8.250  0.1686  0.3252 -0.0412
  758loPI   C1B10777  11.266   7.736   6.416  0.1439 -0.0288 -0.3184
  758loPI   C2B10778  11.258   7.774   6.831  0.0983 -0.1543  0.0339
  758loPI   C3B10779  11.247   7.656   7.194 -0.1053  0.1670  0.0832
  758loPI   C4B10780  11.327   7.684   7.637 -0.0045 -0.4499  0.0725
  759loPI    C110781  14.565   3.952   5.321  0.3163  0.3495  0.3949
  759loPI    C210782  14.599   3.554   5.291 -0.2604  0.3101  0.1089
  759loPI    C310783  14.915   3.775   5.400  0.0947 -0.2114  0.1741
  759loPI   PO410784  14.359   3.993   5.565 -0.0910  0.0932 -0.0181
  759loPI   GL110785  14.234   4.021   6.008  0.2505 -0.0482  0.0247
  759loPI   GL210786  14.521   4.188   6.143  0.0080  0.1423  0.0962
  759loPI   C1A10787  14.210   3.782   6.360  0.0228  0.1469  0.2269
  759loPI   C2A10788  14.029   3.883   6.721  0.1283 -0.0482 -0.0730
  759loPI   C3A10789  13.789   3.726   6.955  0.1279 -0.0425  0.0957
  759loPI   C4A10790  13.724   3.764   7.447  0.2075 -0.1011  0.1319
  759loPI   C5A10791  13.588   3.736   7.878 -0.1152  0.0683  0.0674
  759loPI   C6A10792  13.701   4.013   8.170  0.0658 -0.2779 -0.1157
  759loPI   C1B10793  14.227   4.340   6.470  0.4822 -0.2992  0.1549
  759loPI   C2B10794  14.023   4.336   6.942  0.1983 -0.0134 -0.2130
  759loPI   C3B10795  14.074   4.140   7.378 -0.0086  0.0239 -0.0091
  759loPI   C4B10796  14.010   4.080   7.819 -0.0229 -0.1513  0.1472
  760loPI    C110797   8.131   5.138   5.676 -0.0369  0.0997 -0.1306
  760loPI    C210798   8.054   4.822   5.443  0.3455 -0.0524 -0.0587
  760loPI    C310799   8.418   4.988   5.441  0.2730  0.1177  0.2261
  760loPI   PO410800   8.051   5.132   5.873  0.2651  0.0114  0.2168
  760loPI   GL110801   8.082   5.146   6.284 -0.1954  0.0423  0.1898
  760loPI   GL210802   8.272   5.392   6.501  0.1081  0.2243  0.0261
  760loPI   C1A10803   7.855   5.168   6.693  0.3412 -0.0154 -0.2142
  760loPI   C2A10804   7.812   5.162   7.069  0.1509  0.3528  0.0982
  760loPI   C3A10805   7.784   5.234   7.529  0.0446 -0.0677  0.3227
  760loPI   C4A10806   7.617   5.278   7.919 -0.0637  0.0690  0.0912
  760loPI   C5A10807   7.297   5.058   8.291 -0.0153 -0.0024 -0.0645
  760loPI   C6A10808   7.182   4.626   8.488 -0.1293  0.0806  0.2076
  760loPI   C1B10809   8.413   5.273   6.823 -0.1211 -0.0658 -0.2628
  760loPI   C2B10810   8.475   5.269   7.244 -0.1543 -0.2558 -0.2909
  760loPI   C3B10811   8.379   5.196   7.620 -0.1922 -0.1384 -0.2406
  760loPI   C4B10812   8.112   5.216   8.007  0.0228 -0.4174  0.1447
  761loPI    C110813   5.929   1.133   5.829 -0.2964 -0.0556 -0.0359
  761loPI    C210814   6.155   0.815   5.917 -0.3013 -0.0020  0.1744
  761loPI    C310815   6.086   0.911   5.535 -0.1619 -0.1551  0.1096
  761loPI   PO410816   5.795   1.183   6.104 -0.1130  0.0648  0.1285
  761loPI   GL110817   6.010   1.042   6.353 -0.2273  0.1861  0.3019
  761loPI   GL210818   6.277   0.773   6.445  0.2383  0.1717  0.0076
  761loPI   C1A10819   5.920   1.063   6.787 -0.1786 -0.0672  0.0835
  761loPI   C2A10820   5.968   1.154   7.226  0.2035  0.0913 -0.2410
  761loPI   C3A10821   5.854   1.388   7.576 -0.2985 -0.2406  0.1116
  761loPI   C4A10822   5.852   1.644   7.935  0.1071  0.2680 -0.1075
  761loPI   C5A10823   5.831   1.746   8.236  0.1167 -0.1649 -0.2355
  761loPI   C6A10824   5.901   1.692   8.627 -0.0068 -0.0892 -0.0329
  761loPI   C1B10825   6.450   1.011   6.753 -0.1378  0.0366  0.1645
  761loPI   C2B10826   6.559   1.032   7.088 -0.1760 -0.1476  0.1760
  761loPI   C3B10827   6.452   1.032   7.500  0.0567 -0.0131 -0.1546
  761loPI   C4B10828   6.541   1.026   7.952 -0.1989  0.0907  0.2566
  762loPI    C110829  15.403  14.399   5.486  0.1626  0.2290  0.0998
  762loPI    C210830  15.268  14.304   5.121  0.3879  0.0870  0.0520
  762loPI    C310831  15.391  14.677   5.198  0.2150  0.1510  0.0219
  762loPI   PO410832  15.472  14.238   5.592  0.1491 -0.0848  0.2093
  762loPI   GL110833  15.536  14.171   5.927  0.0751  0.1489  0.0977
  762loPI   GL210834  15.419  14.483   6.036 -0.0434 -0.1180  0.4319
  762loPI   C1A10835  15.793  13.943   6.222  0.1943 -0.1825  0.0831
  762loPI   C2A10836  15.904  14.121   6.607 -0.0680  0.1428  0.1783
  762loPI   C3A10837  16.239  14.318   6.922 -0.1097 -0.0228  0.2236
  762loPI   C4A10838  16.408  14.376   7.263 -0.0919 -0.3010 -0.0907
  762loPI   C5A10839  16.484  14.340   7.670  0.0208  0.1069  0.0855
  762loPI   C6A10840  16.389  14.361   8.038  0.0542  0.0746  0.1744
  762loPI   C1B10841  15.320  14.830   6.397  0.0159  0.1103 -0.1434
  762loPI   C2B10842  15.428  14.952   6.811  0.1737 -0.0721  0.0288
  762loPI   C3B10843  15.555  15.023   7.201  0.0854 -0.2593 -0.2057
  762loPI   C4B10844  15.497  14.890   7.618 -0.0344  0.1532 -0.2217
  763loPI    C110845   0.095   8.033   5.625 -0.1088  0.0244  0.1515
  763loPI    C210846  -0.017   8.004   5.243  0.2029  0.1874  0.0438
  763loPI    C310847   0.306   7.806   5.371  0.0568  0.0743  0.2425
  763loPI   PO410848  -0.065   8.345   5.664 -0.1438  0.0409  0.1794
  763loPI   GL110849  -0.107   8.645   6.009  0.1287  0.0250  0.3258
  763loPI   GL210850   0.190   8.779   5.869  0.0660  0.0231 -0.1084
  763loPI   C1A10851   0.014   8.743   6.389  0.0429 -0.2227  0.0373
  763loPI   C2A10852   0.082   8.809   6.848 -0.2802 -0.1816  0.0713
  763loPI   C3A10853   0.107   8.916   7.280  0.0903  0.1308  0.1955
  763loPI   C4A10854   0.022   8.897   7.696  0.0541  0.2086 -0.0620
  763loPI   C5A10855  -0.066   9.248   8.009  0.0826  0.1866  0.1210
  763loPI   C6A10856   0.051   9.399   8.490 -0.0639 -0.1192 -0.1554
  763loPI   C1B10857   0.514   8.755   6.188  0.1934  0.3182  0.0272
  763loPI   C2B10858   0.562   8.825   6.682  0.2010 -0.2889  0.0056
  763loPI   C3B10859   0.607   8.793   7.140  0.0546  0.2700 -0.2430
  763loPI   C4B10860   0.565   8.699   7.495 -0.0207 -0.1714  0.2735
  764loPI    C110861  13.734   6.145   5.756 -0.1258 -0.1960 -0.0155
  764loPI    C210862  14.044   6.156   5.503  0.0018  0.0815  0.1477
  764loPI    C310863  13.676   6.244   5.373  0.0624  0.1955  0.0517
  764loPI   PO410864  13.774   5.910   5.817 -0.1650  0.0054 -0.1259
  764loPI   GL110865  13.739   5.674   6.186  0.2814  0.0412  0.2328
  764loPI   GL210866  13.602   5.318   6.334 -0.0106 -0.0365  0.2957
  764loPI   C1A10867  13.586   5.664   6.642  0.1908  0.2706  0.0168
  764loPI   C2A10868  13.555   5.640   7.035  0.0855 -0.1361  0.1066
  764loPI   C3A10869  13.610   5.643   7.563  0.1510  0.1642  0.1765
  764loPI   C4A10870  13.215   5.739   7.925 -0.0861 -0.1835  0.0058
  764loPI   C5A10871  12.800   5.809   8.094 -0.2451  0.1818  0.0748
  764loPI   C6A10872  12.505   5.815   7.892 -0.3290  0.1491  0.6334
  764loPI   C1B10873  13.819   5.251   6.788 -0.1816  0.1478 -0.1920
  764loPI   C2B10874  13.773   5.223   7.259 -0.2506  0.0174 -0.0492
  764loPI   C3B10875  13.729   5.122   7.713  0.2694 -0.2586 -0.1479
  764loPI   C4B10876  13.788   5.071   8.084 -0.2329 -0.0038  0.2341
  765loPI    C110877  15.407   2.047   5.979 -0.0040 -0.0501  0.1851
  765loPI    C210878  15.362   2.229   6.332  0.0047  0.0867  0.1162
  765loPI    C310879  15.104   2.302   6.035  0.1675  0.1997  0.0003
  765loPI   PO410880  15.650   1.906   6.026  0.1161  0.0124 -0.0543
  765loPI   GL110881  15.782   1.875   6.420 -0.0891 -0.0652 -0.1401
  765loPI   GL210882  16.153   1.976   6.421 -0.5567 -0.0260 -0.1550
  765loPI   C1A10883  15.705   1.401   6.669  0.1956  0.0037 -0.2610
  765loPI   C2A10884  15.646   1.566   7.101  0.0521  0.1954 -0.4015
  765loPI   C3A10885  15.568   1.445   7.543 -0.3227  0.0941  0.1649
  765loPI   C4A10886  15.630   1.466   7.952  0.0632 -0.1797  0.0656
  765loPI   C5A10887  15.743   1.301   8.316 -0.0356  0.1634  0.0546
  765loPI   C6A10888  15.643   0.905   8.466  0.1095  0.0833 -0.2176
  765loPI   C1B10889  16.030   1.790   6.938  0.1251  0.1159 -0.0504
  765loPI   C2B10890  16.041   1.607   7.423  0.2109 -0.2819  0.1045
  765loPI   C3B10891  16.068   1.662   7.807 -0.1029 -0.3254  0.1015
  765loPI   C4B10892  16.183   1.581   8.291 -0.1279  0.0875 -0.1691
  766loPI    C110893   4.721  12.337   6.147  0.1372  0.1447 -0.0205
  766loPI    C210894   4.987  12.357   5.849  0.0612  0.4767 -0.0707
  766loPI    C310895   5.102  12.434   6.225  0.2484 -0.3305  0.0569
  766loPI   PO410896   4.559  12.451   6.107  0.1801 -0.0999  0.1823
  766loPI   GL110897   4.425  12.757   6.380 -0.0346  0.2782  0.2154
  766loPI   GL210898   4.534  12.493   6.602 -0.1806  0.1195 -0.0096
  766loPI   C1A10899   4.246  12.873   6.769  0.0094 -0.4136 -0.0381
  766loPI   C2A10900   4.206  12.905   7.157  0.2380  0.2806  0.2000
  766loPI   C3A10901   3.939  12.961   7.434 -0.2067  0.0486 -0.3189
  766loPI   C4A10902   3.918  13.001   7.885  0.1055 -0.0240 -0.2285
  766loPI   C5A10903   3.945  13.217   8.360 -0.0155  0.0946 -0.1092
  766loPI   C6A10904   3.857  13.614   8.541 -0.0669  0.1034 -0.2596
  766loPI   C1B10905   4.327  12.382   6.962  0.2024 -0.1474  0.3246
  766loPI   C2B10906   4.212  12.413   7.212 -0.1042  0.0345  0.1805
  766loPI   C3B10907   4.045  12.492   7.635 -0.0951 -0.2832 -0.3763
  766loPI   C4B10908   3.838  12.556   7.991  0.1656  0.1001 -0.1899
  767loPI    C110909   4.034   7.041   5.755  0.1680  0.1257  0.2308
  767loPI    C210910   3.949   7.307   5.469  0.1785  0.1067  0.2100
  767loPI    C310911   4.261   7.368   5.711  0.1428  0.1453  0.2463
  767loPI   PO410912   3.895   6.765   5.770 -0.3617  0.2231 -0.2132
  767loPI   GL110913   4.154   6.398   6.064 -0.1561 -0.0597  0.0130
  767loPI   GL210914   4.205   6.588   6.234  0.2550  0.0150  0.1756
  767loPI   C1A10915   4.330   6.093   6.333  0.0810  0.1105 -0.0067
  767loPI   C2A10916   4.458   6.016   6.726  0.0741 -0.2089 -0.3590
  767loPI   C3A10917   4.405   5.936   7.206 -0.0166 -0.3628 -0.0568
  767loPI   C4A10918   4.416   6.084   7.665  0.2673  0.1147  0.0429
  767loPI   C5A10919   4.486   6.240   8.124 -0.1925  0.1440  0.1866
  767loPI   C6A10920   4.566   6.425   8.558  0.3139  0.0345 -0.1590
  767loPI   C1B10921   4.364   6.593   6.621  0.2810  0.1864 -0.0378
  767loPI   C2B10922   4.379   6.449   7.015  0.0023 -0.1415  0.1119
  767loPI   C3B10923   4.342   6.579   7.407  0.1048 -0.0282  0.3001
  767loPI   C4B10924   4.175   6.574   7.840 -0.2493  0.4100 -0.2810
  768loPI    C110925  16.612   3.258   5.898  0.1904  0.1067 -0.2073
  768loPI    C210926  16.367   3.397   5.613 -0.0658  0.0516 -0.0177
  768loPI    C310927  16.291   3.045   5.789  0.2647 -0.0638 -0.0974
  768loPI   PO410928  16.646   3.439   6.110 -0.0059 -0.2553 -0.0017
  768loPI   GL110929  16.572   3.773   6.405 -0.1953 -0.0800 -0.0139
  768loPI   GL210930  16.892   3.838   6.545  0.0896  0.2385  0.2795
  768loPI   C1A10931  16.492   3.609   6.786 -0.0082 -0.4297  0.1486
  768loPI   C2A10932  16.371   3.484   7.188 -0.1315  0.0334 -0.1127
  768loPI   C3A10933  16.550   3.569   7.481  0.0336  0.2374 -0.0525
  768loPI   C4A10934  16.535   3.504   7.884  0.1237 -0.0724  0.0484
  768loPI   C5A10935  16.537   3.444   8.321  0.0331 -0.1237 -0.0889
  768loPI   C6A10936  16.049   3.514   8.450 -0.2143 -0.0087 -0.3468
  768loPI   C1B10937  16.993   3.765   6.965 -0.0694 -0.0234  0.2709
  768loPI   C2B10938  17.005   3.720   7.397  0.2023  0.0303  0.0545
  768loPI   C3B10939  16.973   3.797   7.825  0.1752  0.3267 -0.1225
  768loPI   C4B10940  17.023   3.720   8.179 -0.2475 -0.0384 -0.6445
  769loPI    C110941   1.688   0.877   5.558  0.1052  0.0941 -0.2242
  769loPI    C210942   1.993   0.634   5.472  0.0058 -0.0618 -0.1409
  769loPI    C310943   2.063   1.015   5.570  0.1789 -0.1161 -0.0490
  769loPI   PO410944   1.548   0.618   5.727  0.1299  0.0709  0.0781
  769loPI   GL110945   1.352   0.523   6.155  0.1014  0.5615  0.0590
  769loPI   GL210946   1.147   0.654   6.110  0.2159 -0.2676  0.0698
  769loPI   C1A10947   1.414   0.494   6.524 -0.0129  0.0494  0.0265
  769loPI   C2A10948   1.538   0.731   6.828 -0.1548 -0.0417 -0.2398
  769loPI   C3A10949   1.479   0.887   7.157 -0.3299 -0.1100  0.1751
  769loPI   C4A10950   1.570   0.875   7.593 -0.0687 -0.1163 -0.0396
  769loPI   C5A10951   1.667   0.948   7.992 -0.0318  0.2063  0.2776
  769loPI   C6A10952   1.596   1.039   8.424  0.0681 -0.0799 -0.1643
  769loPI   C1B10953   0.915   0.660   6.511 -0.0592  0.0722  0.1145
  769loPI   C2B10954   1.027   0.658   6.950 -0.1412 -0.1506  0.0258
  769loPI   C3B10955   1.133   0.675   7.449  0.0779 -0.1762  0.0612
  769loPI   C4B10956   0.953   0.405   7.776  0.1819  0.1136 -0.0071
  770loPI    C110957   7.208   7.354   5.543  0.1145 -0.0357  0.0680
  770loPI    C210958   7.043   7.152   5.240  0.2789  0.0235 -0.0624
  770loPI    C310959   7.311   7.439   5.166  0.0566  0.2828  0.1213
  770loPI   PO410960   7.009   7.413   5.713 -0.1951  0.0631 -0.3209
  770loPI   GL110961   7.111   7.496   6.255 -0.0594 -0.2825  0.0035
  770loPI   GL210962   7.407   7.377   6.386 -0.1942  0.1850 -0.1664
  770loPI   C1A10963   6.895   7.373   6.738 -0.0692 -0.1305 -0.0631
  770loPI   C2A10964   6.947   7.189   7.079 -0.4704 -0.3905 -0.6019
  770loPI   C3A10965   7.009   7.048   7.418  0.2307 -0.1313  0.4330
  770loPI   C4A10966   7.296   7.076   7.816  0.2023  0.1013 -0.1294
  770loPI   C5A10967   7.364   6.778   8.074 -0.0066  0.1526  0.0112
  770loPI   C6A10968   7.658   6.712   8.402  0.2145 -0.1282 -0.1810
  770loPI   C1B10969   7.387   7.135   6.688 -0.1236  0.1409  0.1311
  770loPI   C2B10970   7.442   7.174   7.118  0.2881  0.1754  0.0291
  770loPI   C3B10971   7.490   6.820   7.346  0.1341  0.1156  0.0683
  770loPI   C4B10972   7.716   6.672   7.743 -0.1238  0.0239  0.1426
  771loPI    C110973  11.678   4.926   5.625  0.0526  0.0869 -0.1646
  771loPI    C210974  11.946   5.205   5.723  0.0581  0.0906 -0.1900
  771loPI    C310975  11.606   5.310   5.541  0.1553  0.0578 -0.3942
  771loPI   PO410976  11.647   4.765   5.805  0.2062 -0.1472 -0.2531
  771loPI   GL110977  11.412   4.748   6.227  0.0604 -0.2243 -0.1756
  771loPI   GL210978  11.676   4.513   6.313 -0.0127 -0.1928 -0.0297
  771loPI   C1A10979  11.175   4.920   6.542  0.0880  0.2825 -0.0074
  771loPI   C2A10980  11.030   4.719   7.012 -0.1017  0.1728 -0.0605
  771loPI   C3A10981  11.183   4.932   7.367  0.1228  0.0463 -0.0216
  771loPI   C4A10982  11.397   4.924   7.648 -0.1939  0.0159 -0.0169
  771loPI   C5A10983  11.538   5.056   8.004 -0.0690  0.1450 -0.1867
  771loPI   C6A10984  11.514   5.421   8.307 -0.1652 -0.1050 -0.0520
  771loPI   C1B10985  11.732   4.827   6.591  0.2455  0.2931  0.0290
  771loPI   C2B10986  11.813   4.921   6.979  0.1256  0.2165  0.0847
  771loPI   C3B10987  11.794   4.894   7.389 -0.3504 -0.0838  0.1512
  771loPI   C4B10988  12.022   4.838   7.746 -0.1004 -0.3024  0.0407
  772loPI    C110989  10.517  14.891   5.983  0.0667  0.1492 -0.0654
  772loPI    C210990  10.297  15.223   6.015  0.0944  0.1847 -0.2352
  772loPI    C310991  10.124  14.878   5.911  0.0326  0.1039  0.1214
  772loPI   PO410992  10.629  14.912   6.236  0.2626  0.0170 -0.0666
  772loPI   GL110993  10.403  15.059   6.516  0.1367  0.0134 -0.0432
  772loPI   GL210994  10.143  14.998   6.415 -0.1795 -0.2122 -0.0298
  772loPI   C1A10995  10.126  15.070   6.930 -0.0938 -0.0951  0.4436
  772loPI   C2A10996  10.036  14.922   7.338 -0.1422 -0.0780 -0.2692
  772loPI   C3A10997  10.039  15.128   7.764  0.1162  0.3139 -0.0448
  772loPI   C4A10998  10.314  15.508   8.016 -0.2565 -0.1107  0.1381
  772loPI   C5A10999  10.219  15.737   8.351 -0.2761  0.0330  0.0537
  772loPI   C6A11000   9.834  15.722   8.761  0.1587 -0.3539 -0.0261
  772loPI   C1B11001   9.824  14.711   6.686  0.3426  0.2130 -0.3307
  772loPI   C2B11002   9.744  14.587   7.133 -0.3561 -0.2022  0.0328
  772loPI   C3B11003   9.499  14.497   7.449  0.1093  0.1304  0.1166
  772loPI   C4B11004   9.104  14.716   7.425 -0.0972 -0.0032 -0.1407
  773loPI    C111005  11.080   9.522   5.994  0.1758  0.3146  0.2872
  773loPI    C211006  11.323   9.595   5.685 -0.1736 -0.2976 -0.1546
  773loPI    C311007  11.024   9.847   5.768  0.1254  0.0462 -0.0959
  773loPI   PO411008  11.023   9.280   6.014 -0.1348  0.0935 -0.0043
  773loPI   GL111009  11.164   9.093   6.371 -0.1533  0.3590  0.2349
  773loPI   GL211010  10.840   9.306   6.471 -0.0841  0.0126 -0.2862
  773loPI   C1A11011  11.250   8.900   6.783  0.0351  0.1706 -0.2212
  773loPI   C2A11012  11.266   8.773   7.245 -0.1236  0.0111  0.2889
  773loPI   C3A11013  11.401   8.704   7.626 -0.3121  0.1287  0.1921
  773loPI   C4A11014  11.598   8.869   7.974 -0.0042 -0.0921  0.2296
  773loPI   C5A11015  11.540   8.783   8.457 -0.0651  0.0402 -0.1591
  773loPI   C6A11016  11.844   8.798   8.897  0.1325 -0.1360  0.0505
  773loPI   C1B11017  10.789   9.097   6.800 -0.1906  0.2827 -0.1208
  773loPI   C2B11018  10.800   8.977   7.216 -0.3164 -0.2143 -0.0851
  773loPI   C3B11019  11.012   8.995   7.713  0.0694 -0.0078  0.0582
  773loPI   C4B11020  11.089   9.095   8.119  0.1801  0.2624 -0.1526
  774loPI    C111021  14.599   1.119   5.879 -0.0849 -0.0725 -0.0503
  774loPI    C211022  14.541   0.827   5.611 -0.0219 -0.0687 -0.0682
  774loPI    C311023  14.896   1.010   5.634 -0.0582 -0.0005 -0.0500
  774loPI   PO411024  14.514   0.992   6.116  0.1577 -0.1311  0.1662
  774loPI   GL111025  14.782   1.175   6.493 -0.2899  0.0573 -0.0822
  774loPI   GL211026  14.365   1.206   6.541  0.3641  0.0992  0.2926
  774loPI   C1A11027  14.836   1.109   6.924  0.0524 -0.2425  0.2284
  774loPI   C2A11028  14.846   1.182   7.412  0.0129 -0.1519  0.0141
  774loPI   C3A11029  14.708   1.403   7.848 -0.3516  0.0677  0.3858
  774loPI   C4A11030  14.490   1.226   8.227  0.0680 -0.1879  0.2683
  774loPI   C5A11031  14.065   1.073   8.325 -0.2253  0.2623 -0.0895
  774loPI   C6A11032  13.933   0.718   8.645  0.1373  0.2529 -0.1246
  774loPI   C1B11033  14.400   1.313   7.019 -0.1685  0.3345  0.0571
  774loPI   C2B11034  14.241   1.365   7.346  0.1273 -0.0552 -0.1447
  774loPI   C3B11035  14.157   1.751   7.416  0.0644 -0.3709 -0.0785
  774loPI   C4B11036  14.173   2.023   7.833 -0.2804  0.0945  0.1725
  775loPI    C111037   3.275   2.081   5.536  0.0314  0.1547 -0.2960
  775loPI    C211038   2.898   1.950   5.509  0.0875 -0.0292 -0.2031
  775loPI    C311039   3.168   1.840   5.235  0.1219 -0.0644 -0.1552
  775loPI   PO411040   3.259   2.221   5.736  0.0399 -0.2688  0.0200
  775loPI   GL111041   3.306   2.273   6.158 -0.0499  0.0100  0.1767
  775loPI   GL211042   3.283   2.067   6.462 -0.1643 -0.3925  0.1399
  775loPI   C1A11043   3.235   2.601   6.488 -0.0076  0.2608  0.0238
  775loPI   C2A11044   3.161   2.629   6.883 -0.1492  0.1001 -0.0932
  775loPI   C3A11045   3.157   2.758   7.353  0.0156 -0.2588 -0.0882
  775loPI   C4A11046   3.094   2.601   7.721 -0.2411 -0.1911 -0.0688
  775loPI   C5A11047   3.000   2.737   8.096 -0.1321 -0.0020 -0.2409
  775loPI   C6A11048   2.965   2.588   8.423 -0.0127 -0.2227 -0.0970
  775loPI   C1B11049   3.127   2.127   6.811  0.1958  0.0469 -0.1314
  775loPI   C2B11050   3.120   2.156   7.119 -0.1755  0.1409  0.3809
  775loPI   C3B11051   3.127   2.021   7.548 -0.0218 -0.1472  0.2544
  775loPI   C4B11052   2.767   2.086   7.671 -0.3301 -0.0720 -0.0102
  776loPI    C111053  13.351   1.753   5.356  0.0712  0.2350 -0.1934
  776loPI    C211054  13.610   1.829   5.061  0.0925  0.3886 -0.1362
  776loPI    C311055  13.246   1.995   5.055  0.0392  0.2722 -0.1525
  776loPI   PO411056  13.547   1.777   5.579 -0.0349 -0.0595  0.2291
  776loPI   GL111057  13.433   1.934   6.098 -0.1470 -0.0252  0.0698
  776loPI   GL211058  13.221   1.818   5.989 -0.2716 -0.0569  0.0861
  776loPI   C1A11059  13.497   1.686   6.431  0.0443  0.0028  0.1381
  776loPI   C2A11060  13.355   1.803   6.757  0.1393 -0.0158  0.0579
  776loPI   C3A11061  13.318   1.744   7.248  0.0391 -0.2159  0.1848
  776loPI   C4A11062  13.267   1.596   7.591 -0.0150  0.0962  0.0653
  776loPI   C5A11063  13.206   1.605   8.111  0.0786  0.1705  0.0108
  776loPI   C6A11064  13.049   1.438   8.493  0.0016  0.0518  0.0560
  776loPI   C1B11065  12.979   1.922   6.269  0.0277 -0.0647 -0.0913
  776loPI   C2B11066  12.890   1.956   6.623 -0.0182  0.0559  0.1107
  776loPI   C3B11067  12.864   1.926   7.086 -0.0285 -0.1540 -0.0694
  776loPI   C4B11068  12.926   1.931   7.593  0.0204 -0.0739 -0.0646
  777loPI    C111069  15.981  12.329   5.045  0.0462  0.0145  0.1988
  777loPI    C211070  16.299  12.169   4.863  0.0940 -0.0089  0.3024
  777loPI    C311071  15.999  12.321   4.645  0.2202  0.1022  0.2041
  777loPI   PO411072  16.038  12.156   5.285 -0.3044  0.0805  0.2572
  777loPI   GL111073  16.224  12.072   5.659  0.0936  0.0140  0.1913
  777loPI   GL211074  16.234  11.833   5.889  0.1402 -0.1588 -0.0691
  777loPI   C1A11075  16.027  12.161   6.103 -0.1548 -0.1391  0.0078
  777loPI   C2A11076  16.111  12.206   6.571  0.0729  0.1826 -0.1934
  777loPI   C3A11077  16.157  12.166   6.970  0.1417 -0.0300  0.2242
  777loPI   C4A11078  16.222  12.255   7.398  0.0103  0.0017 -0.3015
  777loPI   C5A11079  16.229  12.082   7.791  0.0755 -0.1186  0.2796
  777loPI   C6A11080  16.225  11.758   8.063 -0.0870  0.1712 -0.0615
  777loPI   C1B11081  16.151  11.757   6.338  0.3662 -0.0611 -0.1177
  777loPI   C2B11082  16.108  11.662   6.778 -0.0721  0.3885  0.1585
  777loPI   C3B11083  16.255  11.629   7.107 -0.1655 -0.1490  0.0001
  777loPI   C4B11084  16.197  11.731   7.410  0.1803 -0.1247 -0.0612
  778loPI    C111085  10.268   6.761   5.507 -0.2857  0.0447  0.1246
  778loPI    C211086  10.127   6.613   5.163 -0.3032  0.0689  0.1213
  778loPI    C311087   9.956   6.935   5.327 -0.1997  0.1478  0.0750
  778loPI   PO411088  10.284   6.578   5.660 -0.0654  0.3206 -0.1903
  778loPI   GL111089  10.028   6.447   6.020 -0.1903  0.2045  0.1244
  778loPI   GL211090  10.286   6.629   6.138  0.4365  0.1257 -0.1868
  778loPI   C1A11091  10.029   6.166   6.366  0.1576  0.0865 -0.2068
  778loPI   C2A11092  10.190   6.192   6.818 -0.1151  0.1786 -0.0534
  778loPI   C3A11093  10.279   6.266   7.237  0.1775  0.3682 -0.0177
  778loPI   C4A11094  10.365   6.070   7.578  0.0348 -0.2021 -0.0118
  778loPI   C5A11095  10.572   6.060   8.020 -0.3537  0.0107  0.0928
  778loPI   C6A11096  10.743   6.043   8.371  0.1046  0.1581  0.1407
  778loPI   C1B11097  10.280   6.617   6.590 -0.0363  0.0696  0.3743
  778loPI   C2B11098  10.265   6.679   7.036  0.0448 -0.0959  0.0857
  778loPI   C3B11099  10.304   6.677   7.496  0.1124  0.1833 -0.0287
  778loPI   C4B11100  10.334   6.503   7.855 -0.2999 -0.2600 -0.0093
  779loPI    C111101   4.511  10.126   5.396  0.0473  0.2751  0.4288
  779loPI    C211102   4.200  10.318   5.233  0.0672  0.0380  0.1000
  779loPI    C311103   4.567  10.367   5.081  0.0689 -0.2728 -0.0032
  779loPI   PO411104   4.519  10.137   5.664  0.1319 -0.0703 -0.0336
  779loPI   GL111105   4.330   9.950   6.012  0.2465  0.0848 -0.4126
  779loPI   GL211106   4.279  10.232   6.105  0.0579 -0.2280  0.0252
  779loPI   C1A11107   4.186   9.743   6.484  0.2341  0.3844 -0.2427
  779loPI   C2A11108   4.139   9.798   6.897  0.1167 -0.0231 -0.0851
  779loPI   C3A11109   4.152   9.901   7.321 -0.0501 -0.0523  0.0670
  779loPI   C4A11110   4.398   9.783   7.664 -0.0853 -0.1889  0.0625
  779loPI   C5A11111   4.411   9.820   8.117  0.2172  0.2301 -0.1303
  779loPI   C6A11112   4.294  10.082   8.556 -0.4299  0.3154 -0.1158
  779loPI   C1B11113   4.167  10.248   6.423 -0.1221 -0.1080  0.0009
  779loPI   C2B11114   4.127  10.315   6.834 -0.0142 -0.1558 -0.0115
  779loPI   C3B11115   3.988  10.344   7.164  0.1843  0.0724 -0.1112
  779loPI   C4B11116   4.117  10.283   7.632 -0.0990  0.2186 -0.0339
  780loPI    C111117   1.856   9.554   4.807 -0.1266 -0.0248  0.0744
  780loPI    C211118   1.566   9.803   4.926 -0.0385  0.0866  0.0573
  780loPI    C311119   1.472   9.454   4.756 -0.1628  0.0916  0.1151
  780loPI   PO411120   2.070   9.671   5.104 -0.0624  0.0755  0.0286
  780loPI   GL111121   1.992   9.893   5.460 -0.5534 -0.2103  0.0131
  780loPI   GL211122   2.203  10.150   5.628  0.2139 -0.0801 -0.0680
  780loPI   C1A11123   1.969   9.817   5.881 -0.1739 -0.0151  0.3612
  780loPI   C2A11124   1.829   9.926   6.260 -0.0778 -0.2438  0.1502
  780loPI   C3A11125   1.875  10.006   6.617  0.0511  0.0650  0.0718
  780loPI   C4A11126   1.949  10.063   6.991 -0.0322  0.1313  0.3951
  780loPI   C5A11127   1.865  10.054   7.402  0.0278 -0.3749  0.4662
  780loPI   C6A11128   1.704   9.766   7.620 -0.1272 -0.0396 -0.1195
  780loPI   C1B11129   2.392  10.132   6.092  0.0182  0.2957  0.0074
  780loPI   C2B11130   2.279  10.199   6.450  0.0844 -0.0809  0.1946
  780loPI   C3B11131   2.336  10.316   6.821  0.1435 -0.2058 -0.2132
  780loPI   C4B11132   2.329  10.331   7.185  0.0343  0.1958  0.0090
  781loPI    C111133  10.660   7.838   5.421  0.0439 -0.0495  0.1930
  781loPI    C211134  10.977   7.619   5.527  0.0534 -0.0471  0.1695
  781loPI    C311135  10.748   7.503   5.220 -0.0110 -0.0879  0.2325
  781loPI   PO411136  10.447   7.949   5.644 -0.1696 -0.0144 -0.0550
  781loPI   GL111137  10.199   7.907   6.068  0.0701  0.1360  0.0874
  781loPI   GL211138  10.254   7.623   6.004  0.3753 -0.4569 -0.1827
  781loPI   C1A11139  10.329   7.984   6.485 -0.0347 -0.1521  0.0089
  781loPI   C2A11140  10.329   7.939   6.807  0.1068 -0.0816 -0.3674
  781loPI   C3A11141  10.414   7.703   7.158 -0.0035 -0.0950  0.1092
  781loPI   C4A11142  10.422   7.596   7.533 -0.0364 -0.2593 -0.0234
  781loPI   C5A11143  10.484   7.605   7.910  0.0834  0.3202 -0.0063
  781loPI   C6A11144  10.201   7.744   8.223  0.0296  0.2535 -0.1502
  781loPI   C1B11145  10.057   7.516   6.384 -0.0155  0.3452  0.3253
  781loPI   C2B11146  10.033   7.550   6.926 -0.1349  0.1523  0.0136
  781loPI   C3B11147   9.902   7.520   7.406  0.0787 -0.0329  0.2035
  781loPI   C4B11148   9.944   7.415   7.897  0.2772 -0.0283 -0.1210
  782loPI    C111149   8.202   3.311   5.672  0.0267 -0.1262 -0.0686
  782loPI    C211150   7.839   3.145   5.690 -0.0727  0.0991  0.0363
  782loPI    C311151   7.903   3.461   5.454 -0.0299  0.2650  0.2664
  782loPI   PO411152   8.290   3.360   5.940 -0.0784 -0.1465 -0.0070
  782loPI   GL111153   8.503   3.457   6.236 -0.1192 -0.0308  0.4296
  782loPI   GL211154   8.753   3.314   6.460 -0.1792  0.1330  0.0363
  782loPI   C1A11155   8.290   3.357   6.638 -0.1152  0.1706  0.1611
  782loPI   C2A11156   8.365   3.453   6.990 -0.0786 -0.0636  0.0672
  782loPI   C3A11157   8.464   3.368   7.361  0.1413  0.3404 -0.1573
  782loPI   C4A11158   8.368   3.298   7.810  0.2741  0.0981  0.3505
  782loPI   C5A11159   8.194   3.494   8.153 -0.0867  0.0457  0.1701
  782loPI   C6A11160   8.094   3.636   8.618  0.0130 -0.0653 -0.1426
  782loPI   C1B11161   8.861   3.512   6.758  0.3010  0.0754 -0.4262
  782loPI   C2B11162   9.250   3.442   7.046 -0.0168 -0.0540 -0.1899
  782loPI   C3B11163   9.241   3.410   7.489 -0.3649 -0.0787  0.5735
  782loPI   C4B11164   9.293   3.400   7.978 -0.3404 -0.1342 -0.0701
  783loPI    C111165   5.961  17.457   5.863  0.2185 -0.1365 -0.0733
  783loPI    C211166   6.074  17.820   5.737 -0.0533 -0.0511 -0.0799
  783loPI    C311167   6.093  17.507   5.489 -0.2072  0.0392 -0.2072
  783loPI   PO411168   6.049  17.353   6.100 -0.0052  0.0587  0.2091
  783loPI   GL111169   6.106  17.135   6.440  0.1101 -0.0562  0.0383
  783loPI   GL211170   6.059  17.516   6.586  0.2158 -0.1085 -0.3349
  783loPI   C1A11171   5.937  17.222   6.960 -0.1806 -0.1765 -0.0124
  783loPI   C2A11172   5.800  17.248   7.368 -0.1452  0.0943  0.1125
  783loPI   C3A11173   5.714  17.166   7.758  0.2033 -0.1898 -0.2169
  783loPI   C4A11174   5.672  17.158   8.201 -0.2208 -0.0894 -0.0646
  783loPI   C5A11175   5.648  17.031   8.519  0.1157 -0.1073  0.1060
  783loPI   C6A11176   5.534  16.863   8.907  0.2532 -0.2619  0.2607
  783loPI   C1B11177   6.313  17.627   6.899 -0.0589 -0.3426  0.2805
  783loPI   C2B11178   6.264  17.516   7.307  0.2219  0.0583  0.2038
  783loPI   C3B11179   6.154  17.426   7.710  0.0064 -0.0958  0.1720
  783loPI   C4B11180   5.956  17.548   8.045  0.3249 -0.0769 -0.3611
  784loPI    C111181   2.560   1.749   5.754  0.0970  0.2279 -0.1829
  784loPI    C211182   2.263   1.503   5.651 -0.0866  0.3170  0.1203
  784loPI    C311183   2.577   1.550   5.408 -0.1268 -0.0873 -0.0171
  784loPI   PO411184   2.574   1.622   6.053 -0.2941  0.1825 -0.3968
  784loPI   GL111185   2.479   1.428   6.448 -0.0770  0.2272  0.3960
  784loPI   GL211186   2.197   1.250   6.552  0.2206 -0.2221  0.1335
  784loPI   C1A11187   2.652   1.196   6.834 -0.0132  0.1838 -0.0668
  784loPI   C2A11188   2.816   1.157   7.283  0.0332  0.2049  0.1778
  784loPI   C3A11189   2.925   0.962   7.666  0.4122 -0.2182  0.0096
  784loPI   C4A11190   2.972   0.962   8.053 -0.2218  0.2638 -0.0999
  784loPI   C5A11191   3.263   0.795   8.388  0.0833  0.0103 -0.4272
  784loPI   C6A11192   3.448   0.673   8.816  0.0035 -0.2204  0.0762
  784loPI   C1B11193   2.291   1.476   7.020 -0.1751 -0.0371  0.0108
  784loPI   C2B11194   2.341   1.439   7.454 -0.2003  0.2034 -0.3450
  784loPI   C3B11195   2.216   1.754   7.784 -0.1654  0.1931  0.0215
  784loPI   C4B11196   2.244   1.892   8.294  0.2211 -0.0181  0.1704
  785loPI    C111197  15.999  11.337   4.882  0.1322  0.1898  0.1130
  785loPI    C211198  16.367  11.213   4.785 -0.0193 -0.0850 -0.1269
  785loPI    C311199  16.200  11.519   4.589  0.0216 -0.0605 -0.1234
  785loPI   PO411200  16.085  11.229   5.208  0.1086  0.1959 -0.1188
  785loPI   GL111201  15.891  11.388   5.631  0.0541  0.2932  0.1483
  785loPI   GL211202  15.543  11.377   5.575 -0.1027 -0.1987 -0.2731
  785loPI   C1A11203  16.097  11.324   6.060  0.0673 -0.0143 -0.1287
  785loPI   C2A11204  16.106  11.286   6.431  0.1889  0.1641  0.2270
  785loPI   C3A11205  16.225  11.133   6.852 -0.0675 -0.0671  0.1987
  785loPI   C4A11206  16.265  11.144   7.235 -0.0362 -0.0583  0.0400
  785loPI   C5A11207  16.181  10.862   7.594  0.0656  0.2376  0.1882
  785loPI   C6A11208  15.860  10.496   7.613  0.0425 -0.1627  0.0464
  785loPI   C1B11209  15.461  11.424   5.907 -0.1367 -0.1410 -0.0790
  785loPI   C2B11210  15.141  11.200   6.197 -0.1975 -0.0521  0.3445
  785loPI   C3B11211  15.234  11.191   6.668  0.0103 -0.0497  0.1911
  785loPI   C4B11212  15.270  11.142   7.193 -0.0902 -0.1219  0.2648
  786loPI    C111213   1.133  17.812   5.565  0.0186 -0.0930 -0.2585
  786loPI    C211214   1.372  18.069   5.371  0.0505  0.0082 -0.0869
  786loPI    C311215   1.508  17.706   5.472 -0.0373 -0.1284 -0.4474
  786loPI   PO411216   0.966  17.839   5.671  0.1345  0.0053  0.2861
  786loPI   GL111217   0.915  17.644   6.040  0.1189 -0.1722  0.0988
  786loPI   GL211218   1.062  18.045   6.149 -0.1213 -0.1501  0.0225
  786loPI   C1A11219   0.754  17.545   6.493 -0.1790  0.0334 -0.0977
  786loPI   C2A11220   0.688  17.686   6.981  0.1774 -0.1032 -0.1287
  786loPI   C3A11221   0.698  17.695   7.455  0.0303 -0.0439 -0.1422
  786loPI   C4A11222   0.780  17.780   7.863  0.0539  0.2564 -0.1146
  786loPI   C5A11223   1.115  18.045   8.119 -0.1661 -0.1378  0.2959
  786loPI   C6A11224   1.269  17.811   8.453 -0.0396 -0.0763  0.0461
  786loPI   C1B11225   1.115  18.082   6.552 -0.0209 -0.1535  0.0019
  786loPI   C2B11226   1.234  18.098   6.978 -0.1337 -0.2394  0.0688
  786loPI   C3B11227   1.404  18.298   7.200 -0.0231 -0.1345  0.0498
  786loPI   C4B11228   1.457  18.370   7.689 -0.0788  0.0496  0.1970
  787loPI    C111229   0.039  12.243   5.122  0.2930  0.2866 -0.0438
  787loPI    C211230  -0.259  12.483   5.007  0.2030  0.1108 -0.1832
  787loPI    C311231   0.079  12.468   4.794  0.1228 -0.0492 -0.3019
  787loPI   PO411232   0.060  12.290   5.361 -0.1474 -0.1799 -0.2162
  787loPI   GL111233  -0.152  12.355   5.838 -0.0201 -0.1023  0.1291
  787loPI   GL211234   0.242  12.238   5.821 -0.0770  0.0871 -0.1578
  787loPI   C1A11235  -0.450  12.533   6.138 -0.2568  0.2189  0.0619
  787loPI   C2A11236  -0.406  12.445   6.532 -0.1007  0.5794 -0.1297
  787loPI   C3A11237  -0.333  12.419   6.935 -0.0728  0.0039 -0.1096
  787loPI   C4A11238  -0.311  12.383   7.359  0.0873 -0.3793  0.0121
  787loPI   C5A11239  -0.391  12.367   7.682  0.1602 -0.1337 -0.3422
  787loPI   C6A11240  -0.303  12.525   8.053 -0.2400 -0.1812 -0.1339
  787loPI   C1B11241   0.070  12.120   6.241  0.4046  0.1577  0.1611
  787loPI   C2B11242   0.099  12.130   6.709 -0.1459  0.0292  0.0823
  787loPI   C3B11243   0.092  12.238   7.144 -0.4867  0.2788  0.2789
  787loPI   C4B11244   0.200  12.092   7.562  0.2667 -0.0318  0.1216
  788loPI    C111245  12.493   8.108   5.314  0.0228  0.0368  0.0276
  788loPI    C211246  12.776   8.320   5.499 -0.0723  0.2039 -0.0166
  788loPI    C311247  12.766   8.307   5.099  0.0370 -0.0265 -0.0132
  788loPI   PO411248  12.303   8.152   5.498  0.1871  0.1869 -0.3886
  788loPI   GL111249  12.357   7.972   6.007  0.2480  0.1536 -0.0471
  788loPI   GL211250  12.117   8.123   6.010  0.3738 -0.1821 -0.2327
  788loPI   C1A11251  12.609   8.149   6.338 -0.0491 -0.3077 -0.2499
  788loPI   C2A11252  12.741   8.160   6.821 -0.1520  0.2935  0.2182
  788loPI   C3A11253  12.664   8.177   7.300  0.0505 -0.1075  0.0966
  788loPI   C4A11254  12.940   8.159   7.682 -0.1501 -0.5990  0.0831
  788loPI   C5A11255  13.205   8.006   8.012  0.3362  0.2190  0.2782
  788loPI   C6A11256  13.701   8.093   8.127  0.0804 -0.0676 -0.3057
  788loPI   C1B11257  12.169   8.068   6.457  0.0519  0.1532 -0.2762
  788loPI   C2B11258  12.273   8.037   6.912  0.4471  0.0992  0.1116
  788loPI   C3B11259  12.211   8.039   7.389  0.0389 -0.0048 -0.2432
  788loPI   C4B11260  12.435   8.164   7.774  0.3157 -0.2683  0.3138
  789loPI    C111261   5.591   0.008   5.759 -0.2308 -0.0160 -0.0699
  789loPI    C211262   5.601  -0.257   5.460  0.0055  0.1193 -0.1849
  789loPI    C311263   5.462   0.112   5.394  0.0518  0.1474 -0.1264
  789loPI   PO411264   5.617  -0.163   6.046 -0.1575  0.0467  0.1145
  789loPI   GL111265   5.575  -0.138   6.445  0.2162  0.4050 -0.1398
  789loPI   GL211266   5.779   0.146   6.496  0.0350  0.0205  0.0505
  789loPI   C1A11267   5.762  -0.182   6.870  0.2024  0.0464 -0.3275
  789loPI   C2A11268   5.780  -0.246   7.262  0.2245 -0.4217 -0.0470
  789loPI   C3A11269   5.579  -0.333   7.647  0.1969 -0.2682 -0.2318
  789loPI   C4A11270   5.309  -0.528   8.021  0.1441  0.1060 -0.1300
  789loPI   C5A11271   4.816  -0.612   8.196 -0.1952  0.0858 -0.3226
  789loPI   C6A11272   4.565  -0.865   8.044  0.0593 -0.3244  0.0445
  789loPI   C1B11273   5.541   0.237   6.822  0.1252 -0.0106  0.0939
  789loPI   C2B11274   5.702   0.263   7.266 -0.0950  0.0749 -0.0019
  789loPI   C3B11275   5.848   0.365   7.747  0.0278 -0.1292  0.1601
  789loPI   C4B11276   5.857   0.062   8.024  0.1337 -0.0893 -0.2045
  790loPI    C111277   2.027   2.642   5.933 -0.0993  0.0687 -0.0246
  790loPI    C211278   1.852   2.737   5.586  0.0844 -0.1126 -0.1693
  790loPI    C311279   2.169   2.493   5.591  0.0493 -0.1566  0.1323
  790loPI   PO411280   2.042   2.903   6.023  0.1321 -0.0405  0.1031
  790loPI   GL111281   2.340   2.964   6.288 -0.0756 -0.1560  0.0591
  790loPI   GL211282   2.639   2.793   6.534 -0.2659 -0.2696  0.1518
  790loPI   C1A11283   2.164   3.041   6.657  0.4022 -0.2830 -0.0644
  790loPI   C2A11284   2.124   3.209   7.093  0.3104 -0.0579 -0.1422
  790loPI   C3A11285   2.139   3.399   7.503  0.3221 -0.1334  0.0829
  790loPI   C4A11286   2.392   3.432   7.913 -0.0535 -0.0762 -0.3938
  790loPI   C5A11287   2.681   3.484   8.273  0.2031  0.0108  0.1202
  790loPI   C6A11288   3.036   3.317   8.508  0.0504  0.0126 -0.0864
  790loPI   C1B11289   2.560   2.912   6.965  0.0730  0.2610  0.0669
  790loPI   C2B11290   2.519   3.038   7.348 -0.1936  0.3194  0.2524
  790loPI   C3B11291   2.739   2.937   7.746  0.3211 -0.1654  0.2335
  790loPI   C4B11292   2.655   2.962   8.275 -0.0499 -0.0461  0.2457
  791loPI    C111293  15.046  14.767   5.968  0.0515 -0.1007 -0.1794
  791loPI    C211294  15.004  14.794   5.571  0.0574 -0.0197 -0.1747
  791loPI    C311295  14.892  15.098   5.806 -0.1288 -0.1441 -0.0996
  791loPI   PO411296  14.949  14.492   5.982  0.2847  0.1228 -0.3207
  791loPI   GL111297  14.938  14.306   6.309  0.0707 -0.1097  0.4122
  791loPI   GL211298  14.709  14.104   6.306  0.0885  0.0135  0.1398
  791loPI   C1A11299  15.303  14.354   6.629 -0.1936 -0.3522  0.1520
  791loPI   C2A11300  15.339  14.422   7.101 -0.0739 -0.0584  0.0583
  791loPI   C3A11301  15.213  14.552   7.441  0.0146  0.1143  0.0996
  791loPI   C4A11302  15.136  14.651   7.890 -0.1407  0.0558  0.1110
  791loPI   C5A11303  14.949  14.840   8.288  0.1970  0.0204 -0.3148
  791loPI   C6A11304  14.573  15.011   8.311 -0.2859  0.0866 -0.0088
  791loPI   C1B11305  14.814  14.054   6.727 -0.0977  0.0189  0.3472
  791loPI   C2B11306  14.968  14.096   7.179  0.0481 -0.3097  0.2735
  791loPI   C3B11307  14.992  14.078   7.669  0.1372  0.1652  0.0812
  791loPI   C4B11308  14.970  13.842   8.144 -0.0300 -0.0495  0.3776
  792loPI    C111309   2.985   7.028   5.670  0.1300 -0.1817  0.1700
  792loPI    C211310   3.093   7.209   5.330  0.1753  0.1217  0.3422
  792loPI    C311311   3.128   6.812   5.366  0.0781  0.0750 -0.0400
  792loPI   PO411312   3.114   7.225   5.859 -0.0546 -0.1199 -0.2195
  792loPI   GL111313   3.208   7.208   6.246  0.1253 -0.0657 -0.2612
  792loPI   GL211314   3.431   7.489   6.366  0.0781 -0.0180  0.2198
  792loPI   C1A11315   3.493   6.946   6.513  0.4731  0.2120  0.2824
  792loPI   C2A11316   3.789   6.658   6.642 -0.2059  0.1878  0.2641
  792loPI   C3A11317   3.786   6.623   7.136 -0.0913  0.1476 -0.2844
  792loPI   C4A11318   3.713   6.532   7.573  0.0583  0.0701  0.1499
  792loPI   C5A11319   3.691   6.752   7.973  0.0158  0.1158 -0.1438
  792loPI   C6A11320   3.579   6.998   8.344  0.0963  0.1512 -0.4157
  792loPI   C1B11321   3.171   7.377   6.719  0.1825  0.1685 -0.1328
  792loPI   C2B11322   3.173   7.181   6.991 -0.1454  0.0225 -0.1666
  792loPI   C3B11323   3.007   7.208   7.421 -0.1940  0.0267  0.0108
  792loPI   C4B11324   3.029   7.307   7.840  0.0439  0.1381  0.0139
  793loPI    C111325   3.047   7.627   5.573  0.0304  0.2133  0.2479
  793loPI    C211326   2.842   7.665   5.231  0.1297  0.1163  0.1771
  793loPI    C311327   3.231   7.756   5.242  0.1352  0.0835  0.2550
  793loPI   PO411328   2.857   7.743   5.783 -0.0134  0.0152  0.2076
  793loPI   GL111329   2.842   7.806   6.203 -0.0973 -0.0519 -0.0950
  793loPI   GL211330   2.985   7.718   6.405 -0.4093  0.0634 -0.0831
  793loPI   C1A11331   2.471   7.782   6.438 -0.1954  0.1053  0.0020
  793loPI   C2A11332   2.472   7.860   6.870 -0.1344  0.0116 -0.0394
  793loPI   C3A11333   2.434   7.686   7.256  0.2360 -0.0174  0.1970
  793loPI   C4A11334   2.538   7.444   7.563 -0.3087  0.0433 -0.0793
  793loPI   C5A11335   2.598   7.200   8.054  0.3472 -0.0760 -0.1373
  793loPI   C6A11336   2.633   6.765   8.203  0.1190 -0.0271 -0.0855
  793loPI   C1B11337   3.014   7.838   6.854  0.0810 -0.0064 -0.2203
  793loPI   C2B11338   2.962   7.675   7.161  0.1760  0.0251 -0.0805
  793loPI   C3B11339   2.829   7.856   7.593  0.0328  0.1119 -0.2883
  793loPI   C4B11340   2.713   7.737   8.053  0.0276 -0.1376  0.2526
  794loPI    C111341  13.748   3.262   5.665  0.1842 -0.3015 -0.1240
  794loPI    C211342  13.658   3.061   5.331 -0.0952  0.0850 -0.2883
  794loPI    C311343  13.682   3.460   5.324  0.1036  0.0849  0.1106
  794loPI   PO411344  13.652   3.263   5.823 -0.1575  0.0394 -0.0347
  794loPI   GL111345  13.638   3.016   6.161  0.1730 -0.3434  0.2626
  794loPI   GL211346  13.547   3.268   6.297  0.0928  0.0377 -0.1094
  794loPI   C1A11347  13.644   2.890   6.557  0.1361  0.0518 -0.0926
  794loPI   C2A11348  13.574   2.797   6.964  0.1122 -0.1534 -0.0944
  794loPI   C3A11349  13.579   2.823   7.404 -0.0654 -0.1533 -0.0278
  794loPI   C4A11350  13.380   2.852   7.825  0.0020 -0.1609  0.0075
  794loPI   C5A11351  13.414   3.117   8.274  0.0893 -0.4938 -0.0821
  794loPI   C6A11352  13.452   3.454   8.548  0.2110 -0.3495 -0.0203
  794loPI   C1B11353  13.517   3.312   6.764  0.1657  0.0616  0.1416
  794loPI   C2B11354  13.427   3.256   7.121  0.0850  0.1039 -0.4441
  794loPI   C3B11355  13.279   3.379   7.533 -0.4290  0.1595  0.3958
  794loPI   C4B11356  13.154   3.420   7.923 -0.0227 -0.1989 -0.1044
  795loPI    C111357   2.939   3.907   5.344 -0.3402  0.0338 -0.1327
  795loPI    C211358   3.160   4.160   5.127  0.1582 -0.0569  0.2502
  795loPI    C311359   3.154   3.771   5.036 -0.4612  0.0484 -0.2241
  795loPI   PO411360   2.939   4.039   5.607 -0.2165  0.1242  0.0973
  795loPI   GL111361   3.195   4.117   5.937  0.0271 -0.0552 -0.0357
  795loPI   GL211362   2.876   4.151   6.077  0.0756 -0.0026 -0.1684
  795loPI   C1A11363   3.297   3.858   6.362 -0.1536 -0.0403  0.0266
  795loPI   C2A11364   3.466   4.010   6.817 -0.1128  0.2652 -0.1903
  795loPI   C3A11365   3.574   4.203   7.198 -0.0924 -0.2147  0.3434
  795loPI   C4A11366   3.541   4.471   7.604  0.0542  0.3285 -0.0172
  795loPI   C5A11367   3.460   4.714   7.920 -0.0499  0.1436  0.2295
  795loPI   C6A11368   3.360   4.809   8.280  0.4014 -0.0519 -0.0759
  795loPI   C1B11369   2.947   4.211   6.582 -0.2603 -0.3884 -0.1655
  795loPI   C2B11370   3.155   4.438   6.841 -0.0752 -0.2335 -0.1116
  795loPI   C3B11371   3.079   4.505   7.255 -0.1967  0.0551  0.0603
  795loPI   C4B11372   3.091   4.845   7.534  0.0199 -0.2563 -0.0965
  796loPI    C111373   3.833  16.655   5.771 -0.1384  0.0637 -0.1592
  796loPI    C211374   3.985  16.302   5.662  0.0167  0.0684  0.0358
  796loPI    C311375   4.129  16.639   5.502  0.0830  0.0614  0.0806
  796loPI   PO411376   3.806  16.579   6.033  0.1739 -0.1577 -0.0211
  796loPI   GL111377   4.025  16.544   6.366 -0.1304  0.4919 -0.1586
  796loPI   GL211378   4.023  16.245   6.595  0.1215 -0.1035 -0.3037
  796loPI   C1A11379   3.807  16.676   6.723 -0.1032 -0.2716  0.0063
  796loPI   C2A11380   3.415  16.523   6.910 -0.0288 -0.1864  0.1384
  796loPI   C3A11381   3.466  16.550   7.367  0.0948 -0.3458  0.0321
  796loPI   C4A11382   3.262  16.629   7.807 -0.1651  0.2129  0.3680
  796loPI   C5A11383   3.273  16.579   8.274  0.1648  0.0940  0.0655
  796loPI   C6A11384   3.356  16.552   8.735 -0.1443  0.2463 -0.3032
  796loPI   C1B11385   3.836  16.254   7.049  0.0694  0.0096  0.2230
  796loPI   C2B11386   3.969  16.311   7.441  0.2687 -0.1341 -0.0827
  796loPI   C3B11387   3.784  16.440   7.858 -0.1417 -0.0087 -0.1274
  796loPI   C4B11388   3.723  16.433   8.348 -0.0342 -0.3127 -0.1654
  797loPI    C111389   7.969  15.157   5.710 -0.2014 -0.2126 -0.0813
  797loPI    C211390   8.255  15.038   5.457 -0.0603 -0.0554  0.0018
  797loPI    C311391   7.895  15.140   5.317 -0.0345 -0.1254 -0.1177
  797loPI   PO411392   8.005  15.000   5.878  0.2256  0.2475  0.2065
  797loPI   GL111393   8.156  14.930   6.303  0.2200 -0.2059  0.2770
  797loPI   GL211394   8.280  15.219   6.217 -0.0382 -0.1442 -0.2714
  797loPI   C1A11395   8.163  14.838   6.706  0.4372  0.1542 -0.0081
  797loPI   C2A11396   8.159  15.114   7.207 -0.2201 -0.1885  0.0581
  797loPI   C3A11397   8.290  15.171   7.596 -0.1893 -0.0509 -0.0685
  797loPI   C4A11398   8.237  15.245   8.075 -0.3737  0.1405 -0.1150
  797loPI   C5A11399   7.934  15.118   8.359 -0.3474  0.2101 -0.0839
  797loPI   C6A11400   7.884  14.716   8.415  0.0105  0.0732  0.0901
  797loPI   C1B11401   8.314  15.363   6.626 -0.0228 -0.3001 -0.0475
  797loPI   C2B11402   8.545  15.652   7.045  0.1198  0.1145  0.1992
  797loPI   C3B11403   8.618  15.447   7.351  0.4145  0.0126  0.0846
  797loPI   C4B11404   8.565  15.575   7.806 -0.0602  0.0206 -0.0636
  798loPI    C111405   5.995   3.314   6.179 -0.1167  0.0592  0.1132
  798loPI    C211406   5.912   3.165   5.817  0.2288  0.0039  0.0535
  798loPI    C311407   5.791   2.971   6.145 -0.2668  0.1607 -0.0280
  798loPI   PO411408   5.983   3.591   6.143  0.1469  0.0659  0.0257
  798loPI   GL111409   5.608   3.774   6.307 -0.0309 -0.0156  0.1883
  798loPI   GL211410   5.521   3.512   6.550 -0.1303  0.0300 -0.0837
  798loPI   C1A11411   5.739   4.045   6.674 -0.2500  0.0312  0.2510
  798loPI   C2A11412   5.813   4.122   7.173  0.0620  0.0384 -0.3156
  798loPI   C3A11413   5.741   4.142   7.642  0.0555  0.3127  0.0097
  798loPI   C4A11414   5.679   3.988   8.050 -0.1428  0.1096 -0.1181
  798loPI   C5A11415   5.768   4.160   8.346 -0.0212 -0.2048 -0.2427
  798loPI   C6A11416   5.692   4.416   8.648 -0.0416 -0.2285 -0.2834
  798loPI   C1B11417   5.365   3.716   6.796 -0.0604  0.0124 -0.1609
  798loPI   C2B11418   5.382   3.948   7.164  0.2912  0.3724  0.2393
  798loPI   C3B11419   5.328   3.817   7.633  0.0875  0.0797  0.1692
  798loPI   C4B11420   5.204   4.039   7.967 -0.2863 -0.0067  0.1693
  799loPI    C111421   9.063  17.356   5.407 -0.1408 -0.0305  0.0106
  799loPI    C211422   9.221  16.998   5.322  0.1789  0.1170 -0.0305
  799loPI    C311423   9.176  17.270   5.033 -0.0349  0.1220  0.0064
  799loPI   PO411424   8.904  17.335   5.587  0.1460  0.2250 -0.0511
  799loPI   GL111425   9.005  17.335   6.020  0.0339  0.0697 -0.2594
  799loPI   GL211426   9.248  17.493   6.096  0.2119 -0.2082 -0.3315
  799loPI   C1A11427   8.713  17.398   6.284 -0.2308 -0.0556 -0.2893
  799loPI   C2A11428   8.624  17.450   6.691  0.2052 -0.3058 -0.0710
  799loPI   C3A11429   8.597  17.488   7.109  0.2153  0.2040 -0.0454
  799loPI   C4A11430   8.565  17.676   7.389  0.0417 -0.0488 -0.2135
  799loPI   C5A11431   8.528  18.033   7.661 -0.0626  0.2263 -0.1427
  799loPI   C6A11432   8.115  18.196   7.755  0.1648 -0.1715 -0.1568
  799loPI   C1B11433   9.373  17.574   6.503 -0.0511  0.0268  0.2717
  799loPI   C2B11434   9.408  17.594   6.921  0.1054 -0.2396 -0.2490
  799loPI   C3B11435   9.428  17.492   7.334  0.4293  0.2237  0.1124
  799loPI   C4B11436   9.285  17.378   7.868 -0.0329  0.2272  0.0781
  800loPI    C111437   8.656   8.620   5.536  0.1584 -0.0902 -0.0869
  800loPI    C211438   8.739   8.231   5.491  0.2050 -0.0675 -0.2026
  800loPI    C311439   9.000   8.507   5.365  0.1957  0.0014 -0.0732
  800loPI   PO411440   8.487   8.605   5.832  0.1558 -0.2283  0.1840
  800loPI   GL111441   8.539   8.568   6.210  0.3386 -0.1428 -0.5002
  800loPI   GL211442   8.814   8.642   6.257 -0.2275 -0.0053  0.0580
  800loPI   C1A11443   8.461   8.847   6.596 -0.0847  0.0659  0.2900
  800loPI   C2A11444   8.386   8.913   7.062 -0.0042 -0.2565  0.1443
  800loPI   C3A11445   8.595   8.983   7.432 -0.0686  0.1534 -0.0836
  800loPI   C4A11446   9.023   9.117   7.684 -0.1200 -0.3237 -0.2717
  800loPI   C5A11447   9.353   9.334   8.009  0.0680  0.1315 -0.1113
  800loPI   C6A11448   9.749   9.056   8.145 -0.0829 -0.0993 -0.1372
  800loPI   C1B11449   9.103   8.754   6.662  0.0971  0.5090  0.1534
  800loPI   C2B11450   9.434   8.800   6.958  0.0503  0.1846 -0.0199
  800loPI   C3B11451   9.530   8.743   7.460 -0.0180 -0.0032 -0.0888
  800loPI   C4B11452   9.394   8.844   7.904 -0.1358  0.1602 -0.0088
  801loPI    C111453   5.071   3.194   5.697  0.1136 -0.1835  0.1113
  801loPI    C211454   5.095   3.167   5.298  0.0285  0.2664  0.0711
  801loPI    C311455   4.818   2.957   5.496 -0.1482  0.2942 -0.1418
  801loPI   PO411456   5.044   3.452   5.737  0.1930 -0.0508 -0.1810
  801loPI   GL111457   5.032   3.685   6.159 -0.1917  0.1272  0.1866
  801loPI   GL211458   4.727   3.727   6.122  0.1583 -0.0961 -0.3814
  801loPI   C1A11459   4.959   3.485   6.539  0.0587  0.0955 -0.0140
  801loPI   C2A11460   5.153   3.278   6.870  0.1124 -0.0230  0.2865
  801loPI   C3A11461   5.409   3.158   7.274 -0.0859 -0.0117 -0.0019
  801loPI   C4A11462   5.346   3.324   7.758  0.1543 -0.0995 -0.0180
  801loPI   C5A11463   5.320   3.512   8.102 -0.2615 -0.0369  0.0828
  801loPI   C6A11464   5.335   3.703   8.504 -0.1796 -0.0834  0.2211
  801loPI   C1B11465   4.841   3.988   6.570  0.2100 -0.0701 -0.1861
  801loPI   C2B11466   4.841   3.863   7.019 -0.0205  0.0271  0.0339
  801loPI   C3B11467   4.814   3.880   7.473  0.1537 -0.2772 -0.0591
  801loPI   C4B11468   4.875   3.564   7.845 -0.0998  0.0518  0.1609
  802loPI    C111469  16.835   5.551   5.416  0.0537  0.1474 -0.1171
  802loPI    C211470  16.980   5.915   5.335 -0.0518  0.1060 -0.5162
  802loPI    C311471  17.166   5.590   5.195  0.0420  0.0021 -0.1613
  802loPI   PO411472  16.644   5.664   5.578  0.0550 -0.1668 -0.1445
  802loPI   GL111473  16.655   5.659   5.981 -0.0600 -0.2137 -0.0037
  802loPI   GL211474  17.059   5.811   5.934  0.0460 -0.1301 -0.0246
  802loPI   C1A11475  16.467   5.560   6.322  0.1476 -0.2202 -0.1270
  802loPI   C2A11476  16.576   5.591   6.746 -0.0247 -0.1830 -0.0104
  802loPI   C3A11477  16.622   5.757   7.136  0.1418  0.0961  0.1587
  802loPI   C4A11478  16.369   5.827   7.574 -0.1769 -0.1155 -0.0554
  802loPI   C5A11479  16.016   5.732   7.934 -0.0252 -0.1286 -0.1783
  802loPI   C6A11480  15.574   5.850   8.070  0.1586 -0.2663 -0.2855
  802loPI   C1B11481  16.897   5.875   6.456 -0.1209  0.1236 -0.0645
  802loPI   C2B11482  17.030   5.816   6.826 -0.1816 -0.0051  0.4074
  802loPI   C3B11483  17.285   5.890   7.175  0.1187  0.0846 -0.3435
  802loPI   C4B11484  17.325   6.252   7.533  0.3291 -0.0711 -0.0403
  803loPI    C111485  10.297   4.671   5.586  0.2758 -0.1687 -0.0532
  803loPI    C211486  10.145   4.411   5.322  0.0062  0.1337 -0.2028
  803loPI    C311487  10.346   4.733   5.194 -0.1581  0.3025 -0.0430
  803loPI   PO411488  10.393   4.551   5.762  0.0919  0.0068  0.4804
  803loPI   GL111489  10.167   4.437   6.227  0.2106  0.0229  0.0760
  803loPI   GL211490   9.765   4.485   6.234  0.0887  0.2312  0.0367
  803loPI   C1A11491  10.173   4.606   6.752  0.2549  0.2284 -0.1978
  803loPI   C2A11492  10.132   4.559   7.187  0.1123 -0.1811  0.0259
  803loPI   C3A11493  10.188   4.446   7.572  0.0799 -0.1694  0.2702
  803loPI   C4A11494  10.330   4.571   7.914 -0.1610  0.0263  0.0579
  803loPI   C5A11495  10.575   4.703   7.949 -0.2010 -0.1061  0.0766
  803loPI   C6A11496  10.955   4.701   8.104  0.0282 -0.2182 -0.2163
  803loPI   C1B11497   9.772   4.299   6.693 -0.0491 -0.1355  0.0054
  803loPI   C2B11498   9.573   4.352   7.197  0.2912 -0.0902  0.2514
  803loPI   C3B11499   9.209   4.186   7.388  0.1902 -0.2737  0.4515
  803loPI   C4B11500   9.045   3.820   7.266  0.2498  0.0640  0.0937
  804loPI    C111501   9.319   6.200   5.567 -0.0131 -0.1917  0.0138
  804loPI    C211502   9.349   5.842   5.389  0.0172 -0.0742 -0.2207
  804loPI    C311503   9.238   6.163   5.177 -0.0076  0.0570 -0.0122
  804loPI   PO411504   9.248   6.082   5.863 -0.0435 -0.1518 -0.0910
  804loPI   GL111505   9.180   5.830   6.210 -0.0018 -0.4557 -0.0794
  804loPI   GL211506   8.854   6.065   6.489 -0.2075  0.2709 -0.0410
  804loPI   C1A11507   9.209   5.690   6.649  0.1726  0.1188 -0.2155
  804loPI   C2A11508   9.386   5.677   7.102 -0.0911  0.0983 -0.1529
  804loPI   C3A11509   9.409   5.704   7.472 -0.2053 -0.0634 -0.2102
  804loPI   C4A11510   9.473   5.583   7.873  0.0091 -0.0562 -0.2545
  804loPI   C5A11511   9.888   5.581   8.136 -0.0555  0.0885 -0.0746
  804loPI   C6A11512  10.105   5.245   8.357 -0.0325  0.0780  0.0088
  804loPI   C1B11513   8.980   6.002   6.954  0.1045 -0.2963 -0.2392
  804loPI   C2B11514   9.008   6.038   7.436 -0.1762 -0.1837  0.2158
  804loPI   C3B11515   8.973   5.984   7.931 -0.0963  0.0078  0.4368
  804loPI   C4B11516   8.875   6.172   8.311  0.0397 -0.0041 -0.0666
  805loPI    C111517   1.577  13.055   5.235 -0.3711 -0.1555  0.0316
  805loPI    C211518   1.638  12.660   5.221 -0.2552 -0.1384  0.0444
  805loPI    C311519   1.730  12.888   4.905 -0.3003 -0.1187  0.0455
  805loPI   PO411520   1.350  13.027   5.415 -0.1504  0.1935 -0.0848
  805loPI   GL111521   1.140  12.770   5.810  0.2158  0.1211  0.0630
  805loPI   GL211522   1.081  13.046   5.927 -0.0221  0.2259  0.3919
  805loPI   C1A11523   1.070  12.675   6.185  0.1846 -0.0994 -0.1748
  805loPI   C2A11524   1.008  12.769   6.596  0.0593  0.0068 -0.2872
  805loPI   C3A11525   1.028  12.739   7.171 -0.0412  0.3548  0.0425
  805loPI   C4A11526   1.280  12.861   7.484 -0.0511  0.0881  0.1895
  805loPI   C5A11527   1.217  13.001   7.849  0.2763  0.2716 -0.1736
  805loPI   C6A11528   0.897  12.981   8.045  0.0881 -0.0660 -0.2525
  805loPI   C1B11529   1.049  13.191   6.353  0.0062 -0.3341  0.0441
  805loPI   C2B11530   1.002  13.311   6.773 -0.1615  0.1092  0.0745
  805loPI   C3B11531   1.041  13.241   7.182  0.0218 -0.2246  0.1987
  805loPI   C4B11532   1.011  13.423   7.662 -0.1016  0.1305 -0.1131
  806loPI    C111533  12.165   9.494   5.214 -0.0407  0.0745 -0.1506
  806loPI    C211534  11.957   9.765   5.005 -0.2406  0.0696  0.0376
  806loPI    C311535  12.072   9.423   4.832 -0.3728  0.0809 -0.0741
  806loPI   PO411536  12.298   9.588   5.473 -0.1370  0.3955  0.0382
  806loPI   GL111537  12.460   9.523   5.910 -0.2098  0.0454 -0.2810
  806loPI   GL211538  12.546   9.245   6.088 -0.0148  0.0713  0.3527
  806loPI   C1A11539  12.548   9.827   6.265 -0.0141 -0.4528  0.1825
  806loPI   C2A11540  12.709   9.817   6.720 -0.0815  0.1990  0.0726
  806loPI   C3A11541  12.641   9.982   7.180 -0.1259 -0.1016  0.0579
  806loPI   C4A11542  12.659  10.054   7.612 -0.2585  0.4853 -0.1411
  806loPI   C5A11543  12.485   9.874   7.952 -0.2088  0.1421  0.2409
  806loPI   C6A11544  12.108   9.723   8.127  0.2745 -0.0495  0.0510
  806loPI   C1B11545  12.670   9.337   6.467  0.2210  0.0674  0.1218
  806loPI   C2B11546  12.682   9.333   6.917 -0.2182 -0.2906 -0.1762
  806loPI   C3B11547  12.806   9.464   7.352 -0.1720  0.0644 -0.1360
  806loPI   C4B11548  12.913   9.311   7.823 -0.1448  0.1538  0.3718
  807loPI    C111549  13.669  16.575   5.899  0.2740  0.1538 -0.0087
  807loPI    C211550  13.700  16.465   5.516  0.1183 -0.1715  0.0682
  807loPI    C311551  13.563  16.206   5.787  0.1120  0.0956  0.3250
  807loPI   PO411552  13.884  16.667   5.984 -0.0239 -0.3622  0.3209
  807loPI   GL111553  13.907  16.676   6.432 -0.2779 -0.0410  0.1334
  807loPI   GL211554  13.623  16.473   6.401 -0.1613  0.2051 -0.0256
  807loPI   C1A11555  13.923  16.533   6.857 -0.4879 -0.1900  0.1717
  807loPI   C2A11556  13.962  16.458   7.279 -0.0851 -0.1080  0.0905
  807loPI   C3A11557  14.082  16.534   7.649  0.1817  0.0911 -0.0789
  807loPI   C4A11558  14.380  16.465   8.051  0.2251  0.3958 -0.0718
  807loPI   C5A11559  14.591  16.334   8.301 -0.0717  0.0787  0.2281
  807loPI   C6A11560  15.003  16.472   8.344  0.0871 -0.2264  0.3066
  807loPI   C1B11561  13.402  16.608   6.690  0.2061  0.0035 -0.0268
  807loPI   C2B11562  13.503  16.740   7.031 -0.1780  0.0362 -0.2140
  807loPI   C3B11563  13.256  16.744   7.353  0.1317 -0.0920 -0.5027
  807loPI   C4B11564  13.169  16.886   7.784 -0.1098 -0.2426 -0.1537
  808loPI    C111565   6.188   8.007   5.752 -0.0117  0.0813 -0.0546
  808loPI    C211566   6.438   8.174   6.016 -0.0928 -0.1322  0.1610
  808loPI    C311567   6.299   8.389   5.708  0.1830  0.0516  0.1615
  808loPI   PO411568   6.092   7.856   5.894 -0.0720  0.4411  0.1277
  808loPI   GL111569   6.209   7.868   6.319 -0.0077 -0.0572  0.3464
  808loPI   GL211570   5.988   8.092   6.296 -0.0513  0.2058  0.0034
  808loPI   C1A11571   6.298   7.726   6.736 -0.1365 -0.0780  0.1170
  808loPI   C2A11572   6.577   7.719   7.094  0.2895  0.2062  0.0106
  808loPI   C3A11573   6.744   7.529   7.473 -0.0047 -0.1709  0.2887
  808loPI   C4A11574   6.889   7.420   7.776 -0.0108  0.2714 -0.0139
  808loPI   C5A11575   7.127   7.411   8.138  0.0920 -0.2110 -0.2348
  808loPI   C6A11576   7.520   7.246   8.286 -0.1190  0.0340 -0.1030
  808loPI   C1B11577   6.009   8.147   6.718 -0.1781  0.2834 -0.1273
  808loPI   C2B11578   6.076   8.011   7.099  0.1593 -0.2521 -0.0136
  808loPI   C3B11579   6.099   7.779   7.393 -0.0251  0.0960 -0.0113
  808loPI   C4B11580   6.314   7.640   7.735 -0.1754  0.0520  0.1439
  809loPI    C111581  10.195   9.326   5.687  0.1294 -0.2134 -0.0965
  809loPI    C211582  10.023   9.462   5.353 -0.0944 -0.0566  0.0791
  809loPI    C311583  10.422   9.431   5.375 -0.0801 -0.1129 -0.2166
  809loPI   PO411584  10.087   9.194   5.800  0.0123  0.2159 -0.1981
  809loPI   GL111585   9.904   9.233   6.202  0.1748  0.0893  0.1497
  809loPI   GL211586   9.780   9.013   6.404 -0.0244 -0.1280 -0.2459
  809loPI   C1A11587   9.706   9.480   6.482 -0.2383 -0.0252  0.1922
  809loPI   C2A11588   9.824   9.528   6.915  0.0464 -0.2639  0.0578
  809loPI   C3A11589   9.908   9.645   7.354  0.0474 -0.0109  0.1008
  809loPI   C4A11590   9.626   9.917   7.622  0.0116  0.1616 -0.1291
  809loPI   C5A11591   9.296   9.931   7.932  0.0912 -0.1851  0.2297
  809loPI   C6A11592   9.237   9.832   8.300 -0.2377  0.1237 -0.3944
  809loPI   C1B11593   9.821   9.066   6.790 -0.0602  0.1858  0.1971
  809loPI   C2B11594   9.916   9.003   7.263 -0.2409  0.5967 -0.2231
  809loPI   C3B11595   9.894   8.797   7.740  0.1228  0.0713  0.2444
  809loPI   C4B11596  10.148   8.707   8.199 -0.0833 -0.0049 -0.2245
  810loPI    C111597   6.365  11.774   5.931  0.0057  0.0120 -0.0348
  810loPI    C211598   6.337  11.510   5.633  0.0733  0.0019 -0.0322
  810loPI    C311599   6.563  11.837   5.589  0.2262 -0.0882  0.0723
  810loPI   PO411600   6.412  11.692   6.092 -0.1391  0.1577 -0.1290
  810loPI   GL111601   6.516  11.864   6.450 -0.0549  0.1151  0.1352
  810loPI   GL211602   6.712  12.064   6.538 -0.0214  0.0262  0.0497
  810loPI   C1A11603   6.494  11.649   6.814  0.1157 -0.1444  0.5802
  810loPI   C2A11604   6.292  11.371   7.169 -0.2812  0.5156  0.5523
  810loPI   C3A11605   6.202  11.280   7.554  0.0719  0.1514 -0.2235
  810loPI   C4A11606   6.017  11.284   8.005 -0.0865  0.4487 -0.2808
  810loPI   C5A11607   5.980  10.887   8.257 -0.0234 -0.2012  0.1502
  810loPI   C6A11608   6.334  10.608   8.475 -0.0880 -0.4895  0.0787
  810loPI   C1B11609   6.862  12.069   6.926  0.0546 -0.3701  0.2645
  810loPI   C2B11610   6.823  12.135   7.469  0.0218  0.0107 -0.1342
  810loPI   C3B11611   6.850  12.175   7.836  0.1360  0.0735 -0.0647
  810loPI   C4B11612   6.941  12.202   8.236 -0.2082  0.1705  0.3706
  811loPI    C111613   9.820  15.850   5.544 -0.0328 -0.0801 -0.0349
  811loPI    C211614   9.725  15.955   5.170 -0.2413  0.0117  0.0426
  811loPI    C311615  10.022  15.696   5.235 -0.2264 -0.0313 -0.1881
  811loPI   PO411616   9.515  15.822   5.659  0.0499  0.0613 -0.0189
  811loPI   GL111617   9.430  15.908   6.078 -0.2031 -0.0756  0.1103
  811loPI   GL211618   9.123  16.034   6.287 -0.0344 -0.3088 -0.0631
  811loPI   C1A11619   9.656  15.971   6.443 -0.0851  0.2845  0.1020
  811loPI   C2A11620   9.737  15.960   6.906 -0.2569  0.2182 -0.0395
  811loPI   C3A11621   9.792  15.955   7.318  0.0308 -0.3577 -0.0690
  811loPI   C4A11622   9.939  15.978   7.819 -0.2283  0.0222  0.1369
  811loPI   C5A11623   9.825  16.130   8.203 -0.0203 -0.1361 -0.2134
  811loPI   C6A11624   9.797  16.680   8.374  0.0412 -0.1662 -0.0909
  811loPI   C1B11625   9.165  15.967   6.713 -0.0255 -0.0073  0.0308
  811loPI   C2B11626   9.291  16.141   7.082  0.0576  0.2224 -0.0814
  811loPI   C3B11627   9.308  16.128   7.556  0.0386  0.4159 -0.1966
  811loPI   C4B11628   9.490  15.953   7.898  0.2267  0.2207 -0.0531
  812loPI    C111629   2.985  14.289   5.500 -0.1025 -0.5095  0.1011
  812loPI    C211630   3.349  14.435   5.419 -0.2312 -0.1527  0.1474
  812loPI    C311631   3.160  14.208   5.149 -0.1325 -0.0218 -0.0343
  812loPI   PO411632   3.016  14.220   5.789 -0.1817 -0.0380 -0.2327
  812loPI   GL111633   3.013  14.295   6.260  0.1357  0.1992  0.1297
  812loPI   GL211634   2.719  14.480   6.120 -0.0996  0.0126 -0.1506
  812loPI   C1A11635   3.026  14.360   6.714  0.2129 -0.2207 -0.1747
  812loPI   C2A11636   2.877  14.348   7.183 -0.0349  0.3673  0.1558
  812loPI   C3A11637   2.652  14.284   7.459 -0.1672 -0.3497 -0.1634
  812loPI   C4A11638   2.840  14.289   7.781 -0.0403 -0.1299  0.1689
  812loPI   C5A11639   2.866  13.949   8.085 -0.3826 -0.1122 -0.2187
  812loPI   C6A11640   2.569  13.779   8.405 -0.1575 -0.1586  0.2336
  812loPI   C1B11641   2.470  14.453   6.458 -0.0252 -0.0389 -0.0395
  812loPI   C2B11642   2.529  14.595   6.912  0.1372 -0.4443  0.0479
  812loPI   C3B11643   2.334  14.634   7.220 -0.0475 -0.0667 -0.0090
  812loPI   C4B11644   2.285  14.675   7.640  0.2915  0.1498 -0.2322
  813loPI    C111645   0.769   3.558   5.520 -0.1413 -0.0560 -0.0389
  813loPI    C211646   0.859   3.668   5.146  0.0463  0.2011  0.0786
  813loPI    C311647   0.909   3.288   5.260  0.3556  0.2002 -0.0494
  813loPI   PO411648   0.956   3.685   5.703  0.0897  0.0902  0.4269
  813loPI   GL111649   0.870   3.760   6.100 -0.0822 -0.2381 -0.1756
  813loPI   GL211650   0.577   3.728   6.094 -0.0703 -0.1846 -0.1812
  813loPI   C1A11651   0.882   4.000   6.423 -0.1600 -0.2951 -0.0804
  813loPI   C2A11652   0.883   4.197   6.774  0.1025  0.1099 -0.3776
  813loPI   C3A11653   0.883   4.288   7.166 -0.0962  0.0930 -0.0648
  813loPI   C4A11654   0.960   4.166   7.678 -0.1367  0.3484 -0.0700
  813loPI   C5A11655   1.350   3.915   7.821  0.1381 -0.1806 -0.2601
  813loPI   C6A11656   1.793   4.058   8.059 -0.0797  0.0472  0.0129
  813loPI   C1B11657   0.508   3.610   6.416 -0.1508  0.2403  0.1575
  813loPI   C2B11658   0.420   3.331   6.729  0.1508  0.1283 -0.3603
  813loPI   C3B11659   0.382   3.561   7.126 -0.2249 -0.2618 -0.2554
  813loPI   C4B11660   0.317   3.487   7.507 -0.0363 -0.0833 -0.3568
  814loPI    C111661  14.139   7.324   5.339 -0.2130 -0.2616  0.1036
  814loPI    C211662  14.223   7.082   5.033 -0.0446 -0.1915  0.0937
  814loPI    C311663  14.013   7.416   4.971  0.1447 -0.0843  0.0215
  814loPI   PO411664  14.050   7.138   5.494  0.0024 -0.0642  0.3044
  814loPI   GL111665  14.142   7.120   5.886  0.0949 -0.2789  0.0346
  814loPI   GL211666  14.214   7.385   6.043  0.1470 -0.1534  0.2458
  814loPI   C1A11667  13.905   7.033   6.277  0.0775  0.0018 -0.0328
  814loPI   C2A11668  13.936   6.981   6.695  0.1847  0.1041 -0.0469
  814loPI   C3A11669  13.924   7.043   7.115  0.0331 -0.2404 -0.3162
  814loPI   C4A11670  13.947   7.155   7.597  0.1036 -0.1705  0.1614
  814loPI   C5A11671  14.139   6.903   7.915 -0.4634  0.0294 -0.1091
  814loPI   C6A11672  14.146   6.730   8.278 -0.2651 -0.0326 -0.1902
  814loPI   C1B11673  14.137   7.551   6.461 -0.1073  0.1176 -0.1588
  814loPI   C2B11674  14.038   7.444   6.848  0.0434  0.0959  0.0182
  814loPI   C3B11675  14.140   7.515   7.265  0.2887 -0.1385  0.0632
  814loPI   C4B11676  14.289   7.512   7.665 -0.1339 -0.0658  0.0672
  815loPI    C111677   6.574  15.131   5.836 -0.2143  0.1157 -0.4657
  815loPI    C211678   6.714  14.823   5.623 -0.0155  0.0814 -0.2888
  815loPI    C311679   6.903  15.176   5.612  0.2360 -0.0323  0.1372
  815loPI   PO411680   6.550  14.968   6.077  0.0416  0.5631 -0.2141
  815loPI   GL111681   6.734  14.972   6.512  0.0039  0.1717 -0.0500
  815loPI   GL211682   6.903  14.642   6.533 -0.2451 -0.2668  0.2269
  815loPI   C1A11683   6.745  15.240   6.782 -0.0926 -0.0324 -0.2388
  815loPI   C2A11684   6.924  15.382   7.129  0.3951 -0.0058 -0.2457
  815loPI   C3A11685   7.190  15.251   7.442 -0.2324 -0.3005  0.2665
  815loPI   C4A11686   7.170  15.223   7.919 -0.1828  0.1532  0.0540
  815loPI   C5A11687   7.154  15.077   8.310 -0.1941  0.0364 -0.0111
  815loPI   C6A11688   6.695  15.043   8.532  0.1125  0.0056 -0.2903
  815loPI   C1B11689   6.780  14.427   6.930 -0.2956 -0.0665  0.0780
  815loPI   C2B11690   6.929  14.315   7.309 -0.1707 -0.1659  0.0607
  815loPI   C3B11691   7.000  14.215   7.781 -0.4596  0.4568 -0.1059
  815loPI   C4B11692   7.375  13.941   7.985  0.0820 -0.1800  0.3300
  816loPI    C111693   5.162  15.135   6.015  0.0061 -0.2338 -0.2017
  816loPI    C211694   4.978  15.379   5.757  0.1611  0.2672  0.1468
  816loPI    C311695   5.375  15.333   5.741  0.1217 -0.0535  0.0153
  816loPI   PO411696   4.970  15.222   6.295  0.1163 -0.1519 -0.2203
  816loPI   GL111697   4.586  15.072   6.394  0.1158 -0.1027 -0.1272
  816loPI   GL211698   4.386  15.331   6.319  0.3285  0.1521  0.1129
  816loPI   C1A11699   4.504  14.958   6.853 -0.4378  0.3021  0.0423
  816loPI   C2A11700   4.280  15.056   7.243  0.4652  0.1306  0.0602
  816loPI   C3A11701   4.160  15.005   7.561  0.0265  0.2845 -0.4461
  816loPI   C4A11702   4.365  14.717   7.747 -0.3176 -0.0353  0.3632
  816loPI   C5A11703   4.233  14.516   8.080  0.0171  0.0441  0.0620
  816loPI   C6A11704   4.107  14.381   8.451 -0.2527 -0.2212 -0.0254
  816loPI   C1B11705   4.344  15.428   6.788 -0.0758 -0.1871 -0.0997
  816loPI   C2B11706   4.319  15.629   7.233 -0.3523 -0.1169  0.0145
  816loPI   C3B11707   4.338  15.550   7.693 -0.0489  0.0132  0.1407
  816loPI   C4B11708   4.181  15.394   8.070  0.2082  0.0981 -0.1711
  817loPI    C111709  11.846   4.253   5.735  0.0023  0.0717  0.1487
  817loPI    C211710  12.028   4.374   5.400 -0.0317 -0.1951  0.0308
  817loPI    C311711  11.637   4.442   5.451  0.0172  0.0337  0.1123
  817loPI   PO411712  12.105   4.271   5.920  0.3947  0.1690 -0.0722
  817loPI   GL111713  12.157   4.088   6.300 -0.1326 -0.2439 -0.2454
  817loPI   GL211714  12.410   3.840   6.405  0.0003 -0.1531  0.3473
  817loPI   C1A11715  12.058   4.414   6.629 -0.2865 -0.0950 -0.0174
  817loPI   C2A11716  11.992   4.514   7.092  0.1310 -0.0633 -0.2267
  817loPI   C3A11717  12.104   4.387   7.428 -0.2115  0.3238 -0.1734
  817loPI   C4A11718  12.058   4.333   7.949 -0.2842 -0.0470 -0.0715
  817loPI   C5A11719  12.228   4.410   8.352  0.1179  0.0924  0.1487
  817loPI   C6A11720  12.630   4.412   8.681  0.0345 -0.3294  0.4328
  817loPI   C1B11721  12.333   3.852   6.860  0.0797  0.1515 -0.1891
  817loPI   C2B11722  12.268   3.827   7.296  0.2322  0.0153 -0.3465
  817loPI   C3B11723  12.297   3.803   7.792  0.0460  0.2430  0.3951
  817loPI   C4B11724  12.569   4.047   7.993  0.1002 -0.3137 -0.4331
  818loPI    C111725  13.698   6.946   5.817  0.0551  0.0073  0.1377
  818loPI    C211726  13.560   6.695   5.537 -0.0772  0.2317 -0.0020
  818loPI    C311727  13.928   6.645   5.687 -0.2106 -0.2234  0.1915
  818loPI   PO411728  13.385   7.214   5.815 -0.1293 -0.1649 -0.1127
  818loPI   GL111729  13.208   7.570   6.107  0.0807  0.2842  0.2348
  818loPI   GL211730  13.450   7.709   6.156  0.0757  0.3539  0.2411
  818loPI   C1A11731  13.025   7.360   6.467 -0.1533 -0.0129  0.3895
  818loPI   C2A11732  13.043   7.489   6.834 -0.0568 -0.2354  0.2019
  818loPI   C3A11733  13.033   7.556   7.315  0.1322 -0.4332  0.0854
  818loPI   C4A11734  13.077   7.521   7.683  0.2024  0.2689 -0.0498
  818loPI   C5A11735  13.024   7.459   8.114  0.0503  0.0147  0.1901
  818loPI   C6A11736  13.409   7.662   8.388  0.1755  0.1541  0.1962
  818loPI   C1B11737  13.604   7.580   6.493 -0.1349 -0.1394 -0.1515
  818loPI   C2B11738  13.680   7.770   6.799 -0.0064 -0.2545  0.2410
  818loPI   C3B11739  13.678   7.902   7.174 -0.0895 -0.2625 -0.1565
  818loPI   C4B11740  13.558   8.072   7.601  0.1246 -0.0591  0.2506
  819loPI    C111741   5.041  11.864   5.619  0.0756 -0.1095 -0.2268
  819loPI    C211742   5.063  12.180   5.375  0.4018 -0.1925 -0.3098
  819loPI    C311743   4.877  11.847   5.255  0.2842 -0.1233 -0.3216
  819loPI   PO411744   4.951  11.846   5.821  0.1302 -0.2548  0.0098
  819loPI   GL111745   4.927  11.880   6.227  0.0009 -0.1726 -0.0841
  819loPI   GL211746   4.687  11.456   6.237  0.2214 -0.1269  0.2061
  819loPI   C1A11747   4.689  11.995   6.489 -0.4351  0.0426 -0.0470
  819loPI   C2A11748   4.689  12.040   6.930  0.1640 -0.1992 -0.0010
  819loPI   C3A11749   4.589  12.066   7.348 -0.0269 -0.1805  0.0649
  819loPI   C4A11750   4.490  12.214   7.803  0.0288 -0.1426  0.1811
  819loPI   C5A11751   4.245  12.373   8.124 -0.0456  0.1546 -0.0240
  819loPI   C6A11752   4.255  12.724   8.448  0.3749  0.1469 -0.0687
  819loPI   C1B11753   4.628  11.589   6.684 -0.0738  0.1358 -0.2728
  819loPI   C2B11754   4.472  11.635   7.119  0.0440  0.1138 -0.3196
  819loPI   C3B11755   4.386  11.595   7.596  0.1583 -0.1478  0.1450
  819loPI   C4B11756   4.332  11.693   7.935  0.2706  0.0916 -0.0106
  820loPI    C111757   0.216   8.660   5.355  0.1767  0.1820  0.2697
  820loPI    C211758   0.589   8.555   5.258 -0.0243 -0.0827 -0.2577
  820loPI    C311759   0.398   8.365   5.553  0.2218 -0.0064 -0.0454
  820loPI   PO411760   0.250   8.940   5.380 -0.1374  0.2747  0.0503
  820loPI   GL111761   0.168   9.227   5.725  0.0803 -0.1785 -0.3043
  820loPI   GL211762   0.107   9.459   5.650 -0.1760 -0.1663 -0.0516
  820loPI   C1A11763   0.101   9.163   6.181 -0.3595  0.1056 -0.1112
  820loPI   C2A11764   0.265   9.244   6.533  0.1825  0.1015  0.0976
  820loPI   C3A11765   0.327   9.257   6.891 -0.3055 -0.0902  0.1330
  820loPI   C4A11766   0.533   9.285   7.336 -0.0864 -0.1488 -0.2387
  820loPI   C5A11767   0.450   9.268   7.738 -0.1055 -0.0115  0.0637
  820loPI   C6A11768   0.489   9.228   8.222  0.1722 -0.1639  0.1744
  820loPI   C1B11769   0.305   9.622   6.108 -0.2353  0.0037 -0.0944
  820loPI   C2B11770   0.307   9.780   6.475 -0.1081 -0.1630  0.1018
  820loPI   C3B11771   0.516   9.898   6.714  0.0411 -0.0133 -0.0852
  820loPI   C4B11772   0.397   9.784   7.075 -0.2240  0.0330 -0.2769
  821loPI    C111773   8.155   0.867   5.177  0.1426 -0.0037  0.0432
  821loPI    C211774   8.239   1.236   5.048  0.1923 -0.0378 -0.0226
  821loPI    C311775   7.859   1.127   5.109  0.1639 -0.0413 -0.2015
  821loPI   PO411776   8.289   0.792   5.343  0.1062 -0.1703  0.0436
  821loPI   GL111777   8.268   0.731   5.724 -0.2376  0.1008 -0.5160
  821loPI   GL211778   8.154   0.975   5.980 -0.0385  0.3405  0.0716
  821loPI   C1A11779   8.618   0.808   5.992 -0.0428  0.0325 -0.0835
  821loPI   C2A11780   8.863   0.967   6.321  0.0451  0.3192  0.0607
  821loPI   C3A11781   8.873   0.821   6.738  0.0418  0.2153 -0.1674
  821loPI   C4A11782   8.869   0.427   7.007 -0.1583  0.0372 -0.2217
  821loPI   C5A11783   8.577   0.162   7.173 -0.2024  0.1650 -0.0040
  821loPI   C6A11784   8.172  -0.032   7.336 -0.2802  0.0486 -0.0183
  821loPI   C1B11785   8.261   0.789   6.460  0.2633 -0.3186 -0.0911
  821loPI   C2B11786   8.429   0.727   6.926 -0.3443 -0.1065  0.0360
  821loPI   C3B11787   8.579   0.631   7.365  0.1476  0.0081 -0.1294
  821loPI   C4B11788   8.411   0.597   7.945 -0.0815 -0.1335  0.0616
  822loPI    C111789  15.254   6.489   5.518  0.0479  0.0411  0.1226
  822loPI    C211790  15.622   6.378   5.405  0.2193  0.3277  0.3801
  822loPI    C311791  15.462   6.717   5.264 -0.0232  0.1143  0.1297
  822loPI   PO411792  15.271   6.383   5.768 -0.0511 -0.1110  0.1966
  822loPI   GL111793  15.233   5.977   5.975 -0.1601  0.2013  0.0787
  822loPI   GL211794  15.152   5.758   6.227  0.3362  0.1742 -0.1149
  822loPI   C1A11795  15.078   6.240   6.376  0.1593  0.2438 -0.1708
  822loPI   C2A11796  15.037   6.242   6.832  0.2563 -0.0332  0.1494
  822loPI   C3A11797  14.966   6.313   7.219  0.1455 -0.1770 -0.1052
  822loPI   C4A11798  15.006   6.419   7.547 -0.0383  0.1067  0.2039
  822loPI   C5A11799  15.137   6.510   8.019  0.1192 -0.0860  0.1005
  822loPI   C6A11800  15.189   6.183   8.137  0.3249 -0.1827 -0.0122
  822loPI   C1B11801  15.139   5.799   6.681 -0.2734  0.0672 -0.1144
  822loPI   C2B11802  15.027   5.795   7.100 -0.1957  0.1986  0.0486
  822loPI   C3B11803  15.056   5.871   7.513 -0.0467  0.2304  0.1742
  822loPI   C4B11804  15.008   5.752   7.921  0.1004  0.0691 -0.1281
  823loPI    C111805  10.761   8.995   5.526 -0.0479  0.0579 -0.1303
  823loPI    C211806  10.931   9.357   5.518 -0.1914  0.1266 -0.1033
  823loPI    C311807  10.804   9.189   5.178 -0.1377  0.1074 -0.1141
  823loPI   PO411808  10.609   9.054   5.744 -0.1633 -0.1437  0.0867
  823loPI   GL111809  10.672   8.873   6.250 -0.5254  0.0593  0.0235
  823loPI   GL211810  10.404   9.130   6.172 -0.0955  0.2452  0.0852
  823loPI   C1A11811  10.865   8.721   6.489 -0.2091  0.1839 -0.0126
  823loPI   C2A11812  10.928   8.509   6.972 -0.2829 -0.2483 -0.0550
  823loPI   C3A11813  10.830   8.511   7.382 -0.0539 -0.2488 -0.0961
  823loPI   C4A11814  10.799   8.303   7.812  0.0205  0.1329 -0.0789
  823loPI   C5A11815  10.590   8.030   8.030 -0.2301 -0.0622 -0.0887
  823loPI   C6A11816  10.689   7.857   8.401  0.1476  0.1723  0.3235
  823loPI   C1B11817  10.293   8.938   6.534 -0.1621  0.2591  0.0541
  823loPI   C2B11818  10.351   8.849   6.995 -0.1023 -0.0310 -0.0852
  823loPI   C3B11819  10.325   8.685   7.410  0.1530 -0.2554 -0.1321
  823loPI   C4B11820  10.537   8.796   7.703  0.2501 -0.1860  0.1769
  824loPI    C111821  15.995   1.169   5.802 -0.0710 -0.0845 -0.1304
  824loPI    C211822  16.008   0.826   5.597  0.0221 -0.1513 -0.0139
  824loPI    C311823  16.150   1.162   5.433 -0.0112 -0.1807 -0.1038
  824loPI   PO411824  16.153   1.140   6.038 -0.0883 -0.0939 -0.0968
  824loPI   GL111825  16.434   0.857   6.255  0.2890 -0.1702 -0.0725
  824loPI   GL211826  16.640   1.162   6.153  0.1640  0.0342  0.1256
  824loPI   C1A11827  16.474   0.849   6.708 -0.4602 -0.0976  0.3572
  824loPI   C2A11828  16.665   0.881   6.884  0.0040 -0.1342 -0.0923
  824loPI   C3A11829  16.665   0.792   7.225 -0.3710  0.0623  0.2628
  824loPI   C4A11830  16.666   0.852   7.656  0.2845  0.1277  0.0239
  824loPI   C5A11831  16.756   0.984   8.010  0.0097 -0.0662  0.3839
  824loPI   C6A11832  17.050   1.097   8.220 -0.0801 -0.1677 -0.2950
  824loPI   C1B11833  16.871   1.131   6.458 -0.0222  0.1406 -0.3612
  824loPI   C2B11834  17.052   1.232   6.838 -0.0812 -0.2348 -0.0523
  824loPI   C3B11835  17.061   1.158   7.186 -0.1230 -0.2816 -0.1502
  824loPI   C4B11836  16.952   1.228   7.578  0.2014 -0.0578  0.3362
  825loPI    C111837   2.235   0.280   5.852 -0.0982 -0.0416 -0.0171
  825loPI    C211838   2.383  -0.085   5.920 -0.1367 -0.0332  0.1136
  825loPI    C311839   2.616   0.237   5.967 -0.0778 -0.0459 -0.0863
  825loPI   PO411840   1.962   0.306   5.990 -0.0596 -0.2426  0.1750
  825loPI   GL111841   1.987   0.452   6.394  0.0693 -0.2623 -0.0358
  825loPI   GL211842   2.358   0.590   6.270  0.1315  0.0084  0.1789
  825loPI   C1A11843   1.972   0.548   6.913 -0.0275 -0.0487  0.2844
  825loPI   C2A11844   1.935   0.680   7.293  0.0428  0.2170 -0.2261
  825loPI   C3A11845   2.061   0.706   7.704  0.0511 -0.0449 -0.2143
  825loPI   C4A11846   2.029   0.445   7.975  0.0125  0.4125 -0.2659
  825loPI   C5A11847   1.858   0.195   8.286 -0.0413 -0.0411  0.2537
  825loPI   C6A11848   1.795   0.045   8.638 -0.2584  0.2529  0.0190
  825loPI   C1B11849   2.352   0.820   6.621 -0.3472  0.2986  0.0714
  825loPI   C2B11850   2.354   0.861   7.098  0.1438  0.0705  0.0175
  825loPI   C3B11851   2.475   0.852   7.511 -0.0644 -0.2381 -0.2586
  825loPI   C4B11852   2.471   0.984   7.885  0.1203 -0.0048 -0.1388
  826loPI    C111853  11.235  12.020   5.942  0.2429  0.0278 -0.0874
  826loPI    C211854  11.092  11.805   5.636  0.1160 -0.2196  0.1414
  826loPI    C311855  11.487  11.842   5.688  0.1383 -0.1494 -0.0691
  826loPI   PO411856  11.029  11.860   6.144  0.1504  0.1487  0.1730
  826loPI   GL111857  10.875  11.818   6.578  0.1357  0.0966  0.0669
  826loPI   GL211858  10.775  12.074   6.665  0.1835  0.1794  0.1830
  826loPI   C1A11859  10.918  11.653   6.934  0.0190 -0.1125  0.1613
  826loPI   C2A11860  10.809  11.658   7.342  0.1281  0.0884  0.0484
  826loPI   C3A11861  10.930  11.930   7.629 -0.0614 -0.2696  0.0969
  826loPI   C4A11862  11.114  12.109   8.050 -0.0176 -0.3060  0.1696
  826loPI   C5A11863  10.894  12.347   8.388  0.3774 -0.1081 -0.3377
  826loPI   C6A11864  10.904  12.826   8.347  0.1886 -0.1303  0.2120
  826loPI   C1B11865  10.755  12.208   7.119 -0.0152 -0.1649  0.0091
  826loPI   C2B11866  10.750  12.419   7.487 -0.1784 -0.1800 -0.0986
  826loPI   C3B11867  10.751  12.340   7.889 -0.0026  0.0134  0.0727
  826loPI   C4B11868  10.475  12.461   8.143  0.1039  0.1654 -0.3098
  827loPI    C111869   3.752  15.489   5.923  0.2297 -0.0201  0.1157
  827loPI    C211870   3.773  15.249   5.604 -0.0325  0.1790 -0.0549
  827loPI    C311871   3.537  15.572   5.597  0.1155  0.2986  0.2681
  827loPI   PO411872   3.936  15.474   6.059  0.0899 -0.0533 -0.1554
  827loPI   GL111873   3.852  15.308   6.480  0.0126 -0.4239 -0.1150
  827loPI   GL211874   3.547  15.337   6.341  0.1171 -0.0286 -0.0040
  827loPI   C1A11875   3.935  15.247   6.907 -0.1435 -0.1895 -0.0799
  827loPI   C2A11876   3.879  15.348   7.378  0.0695 -0.2027  0.0712
  827loPI   C3A11877   3.829  15.400   7.673 -0.1505  0.0375  0.0280
  827loPI   C4A11878   3.703  15.371   8.165 -0.0336  0.1254  0.4395
  827loPI   C5A11879   4.049  15.244   8.537  0.0538 -0.3906 -0.0844
  827loPI   C6A11880   4.166  15.051   8.851 -0.4581  0.2622 -0.2190
  827loPI   C1B11881   3.433  15.554   6.748  0.0588 -0.0142 -0.1332
  827loPI   C2B11882   3.456  15.650   7.150  0.1898 -0.1237 -0.1769
  827loPI   C3B11883   3.284  15.569   7.456  0.1213  0.1313  0.1170
  827loPI   C4B11884   3.451  15.697   7.882  0.0164 -0.1933 -0.0185
  828loPI    C111885  13.361   5.349   5.381  0.0018  0.0119 -0.0334
  828loPI    C211886  13.205   5.015   5.537  0.0949 -0.0386 -0.0482
  828loPI    C311887  13.035   5.183   5.217  0.1746 -0.1944 -0.1739
  828loPI   PO411888  13.312   5.561   5.639  0.1610 -0.2312 -0.1477
  828loPI   GL111889  13.154   5.865   5.999 -0.1139 -0.1467  0.1431
  828loPI   GL211890  13.445   6.047   6.162  0.0699  0.3074 -0.1773
  828loPI   C1A11891  13.202   5.563   6.315 -0.1948 -0.2745 -0.2676
  828loPI   C2A11892  13.231   5.258   6.596 -0.0916  0.1625 -0.1042
  828loPI   C3A11893  13.160   5.189   7.072  0.1439  0.1118 -0.1944
  828loPI   C4A11894  13.228   5.182   7.537  0.0823 -0.1513 -0.0894
  828loPI   C5A11895  13.315   5.244   8.047 -0.0548 -0.1187 -0.1799
  828loPI   C6A11896  13.451   4.961   8.453 -0.2572 -0.1077  0.4552
  828loPI   C1B11897  13.310   6.067   6.595  0.1270 -0.0820  0.0560
  828loPI   C2B11898  13.319   6.057   7.007  0.2876  0.0204  0.0085
  828loPI   C3B11899  13.416   6.093   7.409  0.1115  0.1535 -0.1799
  828loPI   C4B11900  13.475   6.163   7.722  0.0075  0.0791 -0.0888
  829loPI    C111901   6.116  15.026   5.793  0.0583  0.0579  0.1368
  829loPI    C211902   5.842  15.274   5.640 -0.0402 -0.1798 -0.0810
  829loPI    C311903   6.230  15.327   5.556 -0.0517 -0.0462 -0.0518
  829loPI   PO411904   6.085  15.022   6.094  0.2025  0.0133 -0.1594
  829loPI   GL111905   6.265  15.116   6.438 -0.0316 -0.1911  0.0450
  829loPI   GL211906   6.377  15.356   6.396 -0.4860  0.1140 -0.0064
  829loPI   C1A11907   6.255  15.294   6.951  0.1936  0.1316  0.1158
  829loPI   C2A11908   6.408  15.476   7.307  0.0665 -0.3410 -0.0173
  829loPI   C3A11909   6.348  15.720   7.671 -0.0657 -0.2892 -0.2937
  829loPI   C4A11910   6.257  16.119   7.857 -0.1583  0.0075 -0.1578
  829loPI   C5A11911   6.363  16.345   8.143 -0.1735  0.2509  0.0121
  829loPI   C6A11912   6.573  16.360   8.377 -0.1783 -0.1069 -0.2752
  829loPI   C1B11913   6.455  15.644   6.642  0.2892  0.2402 -0.4411
  829loPI   C2B11914   6.642  15.838   6.959 -0.2181 -0.0597  0.0673
  829loPI   C3B11915   6.355  16.044   7.290 -0.1079 -0.0696  0.0881
  829loPI   C4B11916   6.265  16.493   7.483 -0.2934 -0.0021  0.1891
  830loPI    C111917  10.701   0.306   5.510  0.0831 -0.1131  0.0767
  830loPI    C211918  11.068   0.446   5.587  0.0336  0.0414  0.0364
  830loPI    C311919  10.943   0.409   5.209  0.0594 -0.1490  0.0452
  830loPI   PO411920  10.567   0.099   5.640 -0.1234  0.4386 -0.0717
  830loPI   GL111921  10.555   0.081   6.081  0.0045  0.0908  0.2311
  830loPI   GL211922  10.267   0.092   6.257 -0.0073  0.1473 -0.0649
  830loPI   C1A11923  10.682   0.034   6.624  0.1382 -0.1634 -0.3782
  830loPI   C2A11924  10.546   0.156   7.033  0.2097  0.1186  0.0014
  830loPI   C3A11925  10.185   0.183   7.276 -0.2007  0.1484  0.3348
  830loPI   C4A11926  10.010   0.229   7.637 -0.0299 -0.1603 -0.0231
  830loPI   C5A11927   9.871   0.019   7.991  0.0227 -0.1778  0.1790
  830loPI   C6A11928   9.591  -0.316   8.215  0.0289 -0.1473  0.0517
  830loPI   C1B11929  10.212   0.274   6.684 -0.0545 -0.0334  0.1655
  830loPI   C2B11930  10.305   0.607   6.977  0.2463  0.0027 -0.1788
  830loPI   C3B11931  10.145   0.722   7.375 -0.1134 -0.2457  0.3791
  830loPI   C4B11932   9.888   0.852   7.754  0.1308  0.0430 -0.2047
  831loPI    C111933   5.499  11.873   5.505  0.0516  0.1188 -0.0326
  831loPI    C211934   5.369  11.806   5.133  0.0135  0.1673 -0.0282
  831loPI    C311935   5.570  12.142   5.218  0.3546 -0.0164 -0.0887
  831loPI   PO411936   5.546  11.632   5.689  0.0583 -0.2330 -0.0546
  831loPI   GL111937   5.398  11.624   6.100  0.0565  0.0023  0.0339
  831loPI   GL211938   5.560  11.609   6.265 -0.1308  0.0748 -0.1015
  831loPI   C1A11939   5.368  12.066   6.411  0.2745 -0.2105  0.1647
  831loPI   C2A11940   5.707  12.115   6.784  0.1252  0.1003  0.2268
  831loPI   C3A11941   5.796  12.339   7.136  0.1177 -0.0943  0.1469
  831loPI   C4A11942   5.601  12.258   7.516  0.1897 -0.0300 -0.0635
  831loPI   C5A11943   5.417  11.958   7.819 -0.0659  0.2922 -0.1054
  831loPI   C6A11944   5.565  11.718   8.146  0.0675 -0.2438 -0.0291
  831loPI   C1B11945   5.524  11.619   6.738  0.0778  0.0771 -0.1693
  831loPI   C2B11946   5.447  11.891   7.149 -0.0591 -0.0411  0.0653
  831loPI   C3B11947   5.122  12.028   7.378  0.0537  0.1607  0.0853
  831loPI   C4B11948   4.990  12.313   7.722  0.0644  0.1327 -0.1422
  832loPI    C111949  15.454   9.041   5.310  0.1242  0.0725 -0.0514
  832loPI    C211950  15.676   9.195   5.015  0.0136 -0.0479 -0.1989
  832loPI    C311951  15.397   8.920   4.933 -0.2128  0.1240 -0.0202
  832loPI   PO411952  15.459   9.247   5.532  0.2097  0.2164  0.2043
  832loPI   GL111953  15.645   9.365   5.873  0.1146  0.0310  0.0718
  832loPI   GL211954  15.885   9.189   5.842  0.1149 -0.1260 -0.2019
  832loPI   C1A11955  15.427   9.572   6.147  0.1470  0.0108 -0.0232
  832loPI   C2A11956  15.344   9.720   6.632 -0.3253 -0.1202 -0.1068
  832loPI   C3A11957  15.412   9.657   7.052 -0.0008 -0.0640 -0.0263
  832loPI   C4A11958  15.455   9.624   7.485 -0.2088 -0.2580 -0.0403
  832loPI   C5A11959  15.650   9.426   7.738  0.0113  0.1982  0.1053
  832loPI   C6A11960  15.907   9.070   7.760 -0.1335 -0.1263  0.0969
  832loPI   C1B11961  16.148   9.544   5.954 -0.2813  0.0999  0.2558
  832loPI   C2B11962  16.287   9.717   6.359  0.0399  0.1037 -0.1963
  832loPI   C3B11963  16.300   9.709   6.787 -0.1854 -0.2374  0.0236
  832loPI   C4B11964  16.444   9.718   7.148  0.1022  0.3115 -0.0449
  833loPI    C111965  10.856  16.720   5.731  0.0439  0.2541 -0.1870
  833loPI    C211966  10.678  16.416   5.543 -0.0387  0.1276  0.0915
  833loPI    C311967  11.010  16.578   5.391  0.0146 -0.1116 -0.0512
  833loPI   PO411968  10.670  16.744   5.991 -0.0063  0.1636  0.0371
  833loPI   GL111969  10.630  16.529   6.329  0.1550 -0.1831 -0.4208
  833loPI   GL211970  10.692  16.323   6.447 -0.3093 -0.1710 -0.0106
  833loPI   C1A11971  10.769  16.744   6.697  0.1112 -0.0399 -0.3449
  833loPI   C2A11972  10.977  16.668   7.076 -0.1241 -0.0007  0.1930
  833loPI   C3A11973  10.929  16.968   7.423 -0.0147  0.2294  0.1564
  833loPI   C4A11974  10.934  16.790   7.809  0.2486  0.4231 -0.0169
  833loPI   C5A11975  11.046  16.831   8.283 -0.0103 -0.0614 -0.0427
  833loPI   C6A11976  11.430  17.112   8.425  0.1136 -0.0241 -0.1100
  833loPI   C1B11977  10.827  16.224   6.919  0.0924  0.0581 -0.3633
  833loPI   C2B11978  10.881  16.279   7.372 -0.3771  0.3347  0.2140
  833loPI   C3B11979  10.898  16.282   7.806 -0.1836 -0.3076 -0.1789
  833loPI   C4B11980  11.162  16.115   8.093  0.2052 -0.1589  0.1435
  834loPI    C111981  15.828  16.047   5.630  0.0697 -0.1125 -0.1292
  834loPI    C211982  15.432  16.058   5.686  0.0845  0.1274 -0.0580
  834loPI    C311983  15.584  15.866   5.369 -0.1000  0.1966 -0.1901
  834loPI   PO411984  15.935  16.037   5.857  0.0977 -0.1984  0.2461
  834loPI   GL111985  16.174  15.917   6.253 -0.0988 -0.3952 -0.1226
  834loPI   GL211986  16.144  15.570   6.361  0.1022  0.0162 -0.0391
  834loPI   C1A11987  16.488  15.884   6.595  0.1070 -0.1044 -0.0503
  834loPI   C2A11988  16.399  15.941   7.075 -0.0812 -0.2873  0.0153
  834loPI   C3A11989  16.443  15.936   7.633  0.0622  0.1966  0.0398
  834loPI   C4A11990  16.394  16.227   8.000  0.1168 -0.0890 -0.1757
  834loPI   C5A11991  16.624  16.515   8.053 -0.1859 -0.0110  0.0813
  834loPI   C6A11992  16.561  16.915   8.142  0.2120 -0.0342  0.1737
  834loPI   C1B11993  16.084  15.547   6.858 -0.1729 -0.0573  0.1839
  834loPI   C2B11994  15.803  15.477   7.189 -0.1844 -0.0197 -0.0330
  834loPI   C3B11995  15.579  15.461   7.605 -0.1282 -0.0084  0.2411
  834loPI   C4B11996  15.193  15.403   7.501 -0.2350 -0.3160 -0.1954
  835loPI    C111997  17.133  13.955   5.033 -0.0241  0.0960 -0.0327
  835loPI    C211998  17.204  14.335   5.137  0.2148  0.0680 -0.0886
  835loPI    C311999  17.217  14.226   4.752  0.0919  0.0139 -0.0780
  835loPI   PO412000  17.000  13.811   5.303  0.1437  0.2886 -0.1123
  835loPI   GL112001  16.811  13.774   5.769 -0.0804 -0.1229 -0.0697
  835loPI   GL212002  17.051  13.904   5.998  0.0929 -0.4550  0.1283
  835loPI   C1A12003  16.726  13.610   6.209 -0.0510 -0.1140 -0.3305
  835loPI   C2A12004  16.621  13.468   6.525  0.0942 -0.2424 -0.1380
  835loPI   C3A12005  16.689  13.502   6.859 -0.0240  0.0633 -0.1728
  835loPI   C4A12006  16.714  13.459   7.299 -0.4419  0.4594 -0.0493
  835loPI   C5A12007  16.816  13.420   7.773 -0.2121 -0.1041 -0.0018
  835loPI   C6A12008  16.914  13.149   8.075  0.1331  0.0926 -0.0660
  835loPI   C1B12009  17.141  13.843   6.398  0.2435 -0.0394 -0.1172
  835loPI   C2B12010  17.091  13.684   6.650 -0.1028  0.3964 -0.1009
  835loPI   C3B12011  17.216  13.702   7.077  0.3522  0.1966 -0.2030
  835loPI   C4B12012  17.216  13.656   7.534  0.1619 -0.0791  0.0784
  836loPI    C112013   2.060  16.708   5.618  0.0042  0.0617 -0.0580
  836loPI    C212014   2.268  16.500   5.889 -0.0294  0.1601  0.0440
  836loPI    C312015   2.070  16.309   5.599  0.0431  0.0568  0.0621
  836loPI   PO412016   1.943  16.919   5.743  0.1683  0.0752  0.0900
  836loPI   GL112017   1.699  17.151   6.065  0.3017 -0.0263  0.0768
  836loPI   GL212018   1.821  17.319   6.127 -0.5039 -0.3228  0.0701
  836loPI   C1A12019   1.711  16.898   6.497 -0.0334  0.1613  0.0179
  836loPI   C2A12020   1.620  16.630   6.865  0.3527 -0.1587  0.1367
  836loPI   C3A12021   1.617  16.659   7.305 -0.1199  0.1763  0.0210
  836loPI   C4A12022   1.511  16.670   7.666 -0.2117 -0.1389 -0.1510
  836loPI   C5A12023   1.496  17.029   7.980  0.0056 -0.1015 -0.1241
  836loPI   C6A12024   1.845  17.145   8.285 -0.2434 -0.0476  0.1651
  836loPI   C1B12025   1.780  17.432   6.585  0.0000  0.3060  0.1633
  836loPI   C2B12026   1.719  17.503   6.946  0.0183 -0.0198  0.1490
  836loPI   C3B12027   1.644  17.603   7.453 -0.0078  0.2560 -0.0975
  836loPI   C4B12028   1.382  17.481   7.779  0.1559 -0.0158  0.1782
  837loPI    C112029   1.398   7.515   5.576  0.1446 -0.1789 -0.0243
  837loPI    C212030   1.558   7.805   5.352 -0.0737 -0.0220  0.0205
  837loPI    C312031   1.591   7.423   5.238  0.1989  0.0205 -0.0487
  837loPI   PO412032   1.442   7.565   5.764 -0.2216 -0.2823 -0.2156
  837loPI   GL112033   1.776   7.629   6.110  0.1966 -0.0002 -0.1253
  837loPI   GL212034   1.854   7.798   6.302  0.1875  0.0043 -0.4235
  837loPI   C1A12035   1.689   7.618   6.703  0.0319  0.1269  0.0046
  837loPI   C2A12036   1.604   7.575   7.198  0.1089  0.0313  0.1053
  837loPI   C3A12037   1.267   7.439   7.441  0.2589 -0.1524 -0.0105
  837loPI   C4A12038   1.229   7.445   7.815  0.0558  0.0894  0.0340
  837loPI   C5A12039   1.134   7.312   8.150  0.2813  0.0669  0.2705
  837loPI   C6A12040   0.782   7.165   8.402 -0.2061 -0.0148 -0.3578
  837loPI   C1B12041   2.044   7.909   6.639 -0.1206 -0.1997  0.2490
  837loPI   C2B12042   2.003   7.899   7.069 -0.0893 -0.2054 -0.0137
  837loPI   C3B12043   1.765   7.991   7.460 -0.2415  0.1471  0.1073
  837loPI   C4B12044   1.681   7.751   7.779  0.2522  0.3220 -0.1256
  838loPI    C112045  12.609  17.059   5.899 -0.1427  0.2472 -0.0143
  838loPI    C212046  12.831  16.817   5.671 -0.1580 -0.0840  0.3137
  838loPI    C312047  12.618  17.110   5.502  0.1691 -0.0477 -0.0494
  838loPI   PO412048  12.467  16.832   6.039  0.2079  0.1205  0.0993
  838loPI   GL112049  12.444  16.605   6.419 -0.1818 -0.0002 -0.0674
  838loPI   GL212050  12.291  16.389   6.243  0.1898  0.1043 -0.1361
  838loPI   C1A12051  12.430  16.556   6.802  0.0953 -0.0199 -0.0588
  838loPI   C2A12052  12.606  16.428   7.143  0.2091  0.1617 -0.1015
  838loPI   C3A12053  12.602  16.140   7.474 -0.2386  0.0218  0.1006
  838loPI   C4A12054  12.848  15.899   7.775  0.3820 -0.2687 -0.1876
  838loPI   C5A12055  13.052  15.993   8.157  0.2290 -0.0071 -0.3346
  838loPI   C6A12056  13.225  16.442   8.436  0.2217 -0.1791  0.2134
  838loPI   C1B12057  12.222  16.151   6.498 -0.0051  0.0030 -0.0804
  838loPI   C2B12058  11.988  15.968   6.618  0.0057  0.2002  0.0887
  838loPI   C3B12059  11.829  15.790   6.964  0.4327 -0.0297 -0.0423
  838loPI   C4B12060  11.708  15.961   7.281  0.0944  0.1010 -0.3244
  839loPI    C112061  16.841   2.792   5.686 -0.2028  0.2588  0.1344
  839loPI    C212062  16.816   2.557   5.363  0.2290  0.3831  0.0043
  839loPI    C312063  16.552   2.852   5.416 -0.3083 -0.1077  0.1596
  839loPI   PO412064  16.953   2.632   5.801 -0.1185  0.0686  0.0683
  839loPI   GL112065  17.078   2.574   6.151 -0.2780 -0.0460 -0.1413
  839loPI   GL212066  17.406   2.702   6.128 -0.1943 -0.0422  0.2281
  839loPI   C1A12067  16.886   2.728   6.526  0.2356  0.0621 -0.0009
  839loPI   C2A12068  16.992   2.764   7.001 -0.1399 -0.0428 -0.1279
  839loPI   C3A12069  17.013   2.685   7.474  0.1564  0.0843 -0.2674
  839loPI   C4A12070  17.020   2.670   7.933  0.0681 -0.2636  0.0741
  839loPI   C5A12071  16.727   2.555   8.211  0.0111  0.1401 -0.1542
  839loPI   C6A12072  16.518   2.289   8.498 -0.4913  0.2206 -0.2042
  839loPI   C1B12073  17.411   2.480   6.528  0.1452  0.4993  0.0207
  839loPI   C2B12074  17.435   2.526   6.858 -0.0017  0.0041 -0.0887
  839loPI   C3B12075  17.394   2.504   7.171  0.1233  0.3367  0.0585
  839loPI   C4B12076  17.464   2.496   7.634  0.1691 -0.1580  0.0463
  840loPI    C112077   5.740  10.001   5.623 -0.3281 -0.1218  0.0384
  840loPI    C212078   5.549  10.217   5.346 -0.0060 -0.0643 -0.1441
  840loPI    C312079   5.822   9.946   5.235  0.2589  0.0873  0.1222
  840loPI   PO412080   5.571   9.947   5.857  0.0896  0.0420  0.4511
  840loPI   GL112081   5.329   9.975   6.078 -0.0483  0.0556  0.1276
  840loPI   GL212082   5.300  10.252   6.141  0.3354 -0.0413 -0.3218
  840loPI   C1A12083   5.125   9.805   6.454  0.0518  0.0654  0.1159
  840loPI   C2A12084   4.985   9.812   6.787  0.0233 -0.1458  0.1021
  840loPI   C3A12085   5.059   9.900   7.248  0.0871  0.2941 -0.1353
  840loPI   C4A12086   5.014  10.277   7.579 -0.1352 -0.1969 -0.2003
  840loPI   C5A12087   5.302  10.558   7.844  0.1469 -0.1890 -0.2537
  840loPI   C6A12088   5.351  10.673   8.254  0.0760  0.0199  0.0462
  840loPI   C1B12089   5.051  10.400   6.521 -0.1481 -0.4091  0.2700
  840loPI   C2B12090   5.125  10.759   6.749 -0.1650 -0.0117  0.3658
  840loPI   C3B12091   5.233  11.132   6.903  0.0844 -0.1164 -0.0055
  840loPI   C4B12092   5.268  11.294   7.282  0.1369  0.1714  0.0693
  841loPI    C112093   9.066  16.052   5.721 -0.0942  0.0024  0.0007
  841loPI    C212094   8.706  15.986   5.882 -0.0008  0.0385  0.2274
  841loPI    C312095   8.999  15.718   5.930 -0.0440 -0.0717 -0.1006
  841loPI   PO412096   9.164  16.339   5.849 -0.0289  0.2251  0.0090
  841loPI   GL112097   9.051  16.609   6.169 -0.1218  0.2606  0.0764
  841loPI   GL212098   8.819  16.840   6.240 -0.2310  0.0844 -0.3591
  841loPI   C1A12099   9.302  16.431   6.594 -0.2295 -0.0282  0.1864
  841loPI   C2A12100   9.530  16.594   6.936  0.1244  0.1437  0.0551
  841loPI   C3A12101   9.576  16.497   7.375 -0.0188 -0.2025 -0.0330
  841loPI   C4A12102   9.537  16.469   7.833 -0.0218  0.1666 -0.0927
  841loPI   C5A12103   9.378  16.325   8.293 -0.1994  0.0837 -0.2642
  841loPI   C6A12104   9.602  16.301   8.668 -0.0089  0.0098 -0.0291
  841loPI   C1B12105   8.836  16.646   6.635 -0.1081  0.0667  0.1641
  841loPI   C2B12106   9.062  16.525   7.062 -0.0748  0.1229  0.0519
  841loPI   C3B12107   9.142  16.794   7.368 -0.1084 -0.1647 -0.0740
  841loPI   C4B12108   9.105  16.908   7.796 -0.0618 -0.2913  0.3269
  842loPI    C112109   6.942   7.925   5.763  0.3668  0.1546  0.1038
  842loPI    C212110   6.923   7.792   5.387  0.2388 -0.0227  0.1715
  842loPI    C312111   6.642   8.041   5.525  0.1453 -0.1562  0.2244
  842loPI   PO412112   7.181   7.975   5.803 -0.0307 -0.2756  0.0078
  842loPI   GL112113   7.336   8.049   6.225 -0.0243  0.1394 -0.4173
  842loPI   GL212114   7.381   8.328   6.284 -0.4706 -0.2170 -0.0997
  842loPI   C1A12115   7.323   7.794   6.591 -0.1405 -0.1185 -0.1929
  842loPI   C2A12116   7.267   7.651   7.022  0.0510  0.1103 -0.2268
  842loPI   C3A12117   7.315   7.539   7.438 -0.0977  0.0910  0.1515
  842loPI   C4A12118   7.408   7.571   7.735 -0.2809  0.0364  0.0100
  842loPI   C5A12119   7.138   7.856   7.943 -0.2505  0.1976  0.0195
  842loPI   C6A12120   6.658   7.745   8.068  0.2218  0.0144 -0.3030
  842loPI   C1B12121   7.330   8.405   6.720  0.0230  0.2655  0.0345
  842loPI   C2B12122   7.374   8.151   7.104 -0.0567 -0.4333  0.0690
  842loPI   C3B12123   7.571   7.949   7.441  0.2578 -0.3234 -0.0201
  842loPI   C4B12124   7.928   7.748   7.665 -0.3052 -0.1174  0.1142
  843loPI    C112125  14.079   9.968   5.080  0.1014 -0.3706 -0.1858
  843loPI    C212126  13.708  10.061   4.962  0.0514 -0.1027  0.1665
  843loPI    C312127  14.024  10.210   4.766 -0.0260 -0.1865 -0.0242
  843loPI   PO412128  14.054  10.021   5.354  0.0454  0.2329  0.1793
  843loPI   GL112129  14.257   9.918   5.790  0.0003 -0.3467  0.3958
  843loPI   GL212130  14.052   9.694   5.829 -0.0395 -0.2042 -0.2214
  843loPI   C1A12131  14.523   9.738   6.184 -0.2065 -0.2223 -0.1846
  843loPI   C2A12132  14.423   9.914   6.551  0.2606  0.0976  0.0287
  843loPI   C3A12133  14.443  10.124   6.987  0.2605 -0.3152  0.1366
  843loPI   C4A12134  14.480  10.160   7.386  0.1601 -0.3449 -0.1307
  843loPI   C5A12135  14.285  10.390   7.744  0.0238  0.2186 -0.1933
  843loPI   C6A12136  13.949  10.288   8.012  0.0974 -0.4876 -0.0680
  843loPI   C1B12137  14.026   9.786   6.312 -0.1620 -0.2014  0.0134
  843loPI   C2B12138  14.019   9.859   6.800  0.0241 -0.0677  0.1434
  843loPI   C3B12139  14.109   9.802   7.115  0.2122 -0.0408 -0.2637
  843loPI   C4B12140  14.126   9.861   7.575 -0.2872  0.2528  0.2175
  844loPI    C112141   9.071   3.130   5.695 -0.1779 -0.0763  0.0313
  844loPI    C212142   9.245   2.983   5.366 -0.2928  0.0405 -0.0832
  844loPI    C312143   8.851   2.939   5.421 -0.2953  0.1330 -0.0236
  844loPI   PO412144   9.183   2.993   5.912 -0.0977 -0.2433 -0.0843
  844loPI   GL112145   9.046   2.788   6.259  0.2414  0.0906 -0.3177
  844loPI   GL212146   8.794   2.817   6.446  0.0740  0.0307 -0.1720
  844loPI   C1A12147   9.185   2.592   6.590 -0.0581  0.0863 -0.0001
  844loPI   C2A12148   9.186   2.518   6.996 -0.0002  0.0920 -0.0234
  844loPI   C3A12149   9.064   2.370   7.354 -0.3741 -0.0660 -0.1378
  844loPI   C4A12150   9.004   2.227   7.651  0.4231  0.3783  0.0714
  844loPI   C5A12151   8.796   2.386   8.060 -0.1042 -0.1999 -0.1771
  844loPI   C6A12152   8.374   2.417   8.352  0.3154 -0.3211 -0.0396
  844loPI   C1B12153   8.804   2.887   6.796 -0.1080 -0.0418  0.1713
  844loPI   C2B12154   8.860   3.116   7.207  0.0496  0.0460 -0.1045
  844loPI   C3B12155   8.836   3.226   7.685 -0.0232 -0.2741  0.1686
  844loPI   C4B12156   8.930   3.022   8.018 -0.0895 -0.3349  0.1180
  845loPI    C112157   4.810  17.414   5.640 -0.1200  0.0759 -0.0574
  845loPI    C212158   4.643  17.056   5.580  0.1668 -0.0851  0.0786
  845loPI    C312159   4.777  17.269   5.268 -0.0104 -0.0913 -0.0032
  845loPI   PO412160   4.983  17.298   5.875  0.2440  0.0326  0.0038
  845loPI   GL112161   5.043  17.297   6.271  0.2229  0.0243  0.2895
  845loPI   GL212162   5.183  17.572   6.268  0.1135 -0.5843 -0.3439
  845loPI   C1A12163   5.101  17.026   6.638 -0.0662  0.1436 -0.1427
  845loPI   C2A12164   5.100  16.963   7.026  0.0076  0.4607  0.0868
  845loPI   C3A12165   5.247  16.867   7.471  0.1528 -0.0529  0.2707
  845loPI   C4A12166   5.438  16.816   7.909 -0.2459 -0.1409  0.1184
  845loPI   C5A12167   5.559  16.631   8.206 -0.1365  0.0279 -0.1032
  845loPI   C6A12168   5.830  16.323   8.312  0.0573 -0.0655  0.3395
  845loPI   C1B12169   4.829  17.604   6.591 -0.0606  0.2272 -0.3948
  845loPI   C2B12170   4.778  17.422   6.901 -0.0691 -0.0179 -0.0547
  845loPI   C3B12171   4.725  17.554   7.336 -0.0144  0.1766 -0.1526
  845loPI   C4B12172   4.602  17.489   7.740 -0.4230  0.1473  0.0340
  846loPI    C112173   0.829  10.603   5.508  0.0016  0.1060 -0.2775
  846loPI    C212174   0.885  10.210   5.460  0.1320  0.0968 -0.0638
  846loPI    C312175   1.200  10.454   5.490  0.0513  0.2110 -0.1378
  846loPI   PO412176   0.617  10.588   5.655 -0.1103  0.1641  0.1132
  846loPI   GL112177   0.496  10.630   6.013  0.0677  0.0296 -0.0343
  846loPI   GL212178   0.123  10.506   5.991 -0.0258 -0.1285  0.0147
  846loPI   C1A12179   0.514  10.907   6.403  0.0513 -0.0733  0.0173
  846loPI   C2A12180   0.426  10.927   6.746 -0.1788 -0.2439 -0.4295
  846loPI   C3A12181   0.628  10.817   7.130  0.0982  0.2386 -0.3396
  846loPI   C4A12182   0.625  10.601   7.550  0.0527  0.2634 -0.1231
  846loPI   C5A12183   0.797  10.268   7.881  0.3342 -0.1107  0.0811
  846loPI   C6A12184   0.952  10.025   8.160  0.1164  0.5100  0.0469
  846loPI   C1B12185   0.088  10.625   6.439 -0.1040 -0.1394  0.0688
  846loPI   C2B12186   0.013  10.697   6.884 -0.3260  0.0843 -0.2036
  846loPI   C3B12187   0.076  10.612   7.291  0.2590 -0.0191  0.0331
  846loPI   C4B12188   0.163  10.655   7.701  0.2737  0.0283  0.0973
  847loPI    C112189  13.899  13.151   5.622  0.0428 -0.2263 -0.1330
  847loPI    C212190  13.809  13.540   5.612  0.3337 -0.1469  0.1609
  847loPI    C312191  13.893  13.346   5.273  0.0285  0.0041 -0.0056
  847loPI   PO412192  14.085  13.047   5.824 -0.0572 -0.0304 -0.1748
  847loPI   GL112193  14.047  13.070   6.249  0.1526  0.0744 -0.1872
  847loPI   GL212194  13.879  13.104   6.447 -0.2950  0.1689 -0.1114
  847loPI   C1A12195  14.378  13.156   6.545  0.5518 -0.1027  0.4001
  847loPI   C2A12196  14.471  13.130   6.954 -0.0124 -0.0425 -0.0096
  847loPI   C3A12197  14.420  13.142   7.340  0.1739  0.0774  0.0579
  847loPI   C4A12198  14.443  13.388   7.713 -0.2086  0.1992 -0.1185
  847loPI   C5A12199  14.591  13.360   8.180  0.2192  0.0485  0.0051
  847loPI   C6A12200  14.913  13.450   8.463  0.2478 -0.1223 -0.1773
  847loPI   C1B12201  13.958  13.164   6.916 -0.0481  0.2402  0.2857
  847loPI   C2B12202  13.891  13.027   7.294 -0.2986  0.1256  0.2805
  847loPI   C3B12203  14.012  13.232   7.675 -0.1714  0.2328  0.5514
  847loPI   C4B12204  14.090  13.606   8.009  0.0404 -0.1460  0.2400
  848loPI    C112205  11.813  12.521   6.003 -0.1586  0.0894 -0.0148
  848loPI    C212206  11.731  12.133   5.957  0.1306  0.0158  0.0682
  848loPI    C312207  11.881  12.344   5.652 -0.2108  0.1126 -0.0368
  848loPI   PO412208  11.778  12.519   6.263  0.0727  0.1907 -0.1111
  848loPI   GL112209  11.899  12.671   6.663 -0.1991 -0.1413 -0.0478
  848loPI   GL212210  12.099  12.939   6.586 -0.0665  0.3130 -0.2220
  848loPI   C1A12211  12.152  12.558   7.071  0.0301 -0.0873 -0.0897
  848loPI   C2A12212  12.085  12.635   7.523 -0.0692 -0.1280  0.2112
  848loPI   C3A12213  11.880  12.774   7.918 -0.0192  0.1669  0.1566
  848loPI   C4A12214  11.616  12.891   8.236  0.2148 -0.1300 -0.1178
  848loPI   C5A12215  11.259  13.149   8.551 -0.1071 -0.2230 -0.2083
  848loPI   C6A12216  11.302  13.581   8.646 -0.1061  0.3133  0.1545
  848loPI   C1B12217  11.858  13.012   6.987  0.2656  0.1391  0.0926
  848loPI   C2B12218  11.769  13.279   7.429 -0.0994 -0.2190  0.2279
  848loPI   C3B12219  11.797  13.245   7.867 -0.2209  0.0366  0.1176
  848loPI   C4B12220  11.702  13.362   8.341  0.0859 -0.1828 -0.1854
  849loPI    C112221   1.055   7.158   5.682  0.1587  0.0245  0.0608
  849loPI    C212222   0.872   6.860   5.489 -0.1725  0.0197  0.3706
  849loPI    C312223   1.197   7.031   5.330 -0.0496 -0.4196  0.1302
  849loPI   PO412224   1.142   7.127   5.899 -0.0537 -0.1907 -0.1824
  849loPI   GL112225   1.276   7.319   6.174  0.0090  0.0452 -0.0684
  849loPI   GL212226   1.041   7.452   6.418  0.1123  0.0231  0.1843
  849loPI   C1A12227   1.634   7.206   6.470 -0.0008  0.3770 -0.1388
  849loPI   C2A12228   1.653   7.162   6.945 -0.0708  0.2620 -0.0356
  849loPI   C3A12229   1.676   7.103   7.348 -0.1091 -0.0235  0.1234
  849loPI   C4A12230   1.602   7.168   7.682  0.1878 -0.0052  0.4236
  849loPI   C5A12231   1.643   7.280   8.154 -0.1630 -0.4217  0.2113
  849loPI   C6A12232   1.768   7.598   8.438  0.1206  0.0407 -0.2225
  849loPI   C1B12233   1.121   7.464   6.777 -0.1511  0.1471  0.1019
  849loPI   C2B12234   1.045   7.609   7.041 -0.0774  0.3002  0.0551
  849loPI   C3B12235   0.848   7.753   7.379 -0.1468 -0.0288  0.3451
  849loPI   C4B12236   0.711   7.722   7.823 -0.3462 -0.0500 -0.4510
  850loPI    C112237   2.551   3.745   5.646 -0.1609 -0.1302 -0.0546
  850loPI    C212238   2.221   3.686   5.428 -0.0407 -0.4344 -0.1594
  850loPI    C312239   2.471   3.985   5.336 -0.2248 -0.2765 -0.1521
  850loPI   PO412240   2.505   3.754   5.920 -0.0988 -0.1996 -0.3853
  850loPI   GL112241   2.270   4.090   6.150 -0.1837 -0.2169 -0.0379
  850loPI   GL212242   2.070   4.321   6.124 -0.1531  0.3537 -0.2313
  850loPI   C1A12243   2.518   3.944   6.530 -0.2088 -0.1512  0.0508
  850loPI   C2A12244   2.572   4.055   6.940  0.1986  0.0264 -0.4190
  850loPI   C3A12245   2.628   4.177   7.363  0.1851  0.0729 -0.5219
  850loPI   C4A12246   2.613   3.990   7.779 -0.0307 -0.1515 -0.0155
  850loPI   C5A12247   2.453   3.926   8.181  0.0141  0.2516 -0.1690
  850loPI   C6A12248   2.092   3.690   8.349  0.1306  0.0759 -0.1934
  850loPI   C1B12249   2.176   4.311   6.565 -0.0379 -0.0558 -0.2133
  850loPI   C2B12250   2.222   4.411   7.050  0.3573  0.0484  0.2019
  850loPI   C3B12251   2.190   4.465   7.485 -0.0677 -0.0620  0.1130
  850loPI   C4B12252   2.170   4.392   7.903  0.2788 -0.0245 -0.0791
  851loPI    C112253   8.532  17.086   5.835  0.2609  0.1222  0.1389
  851loPI    C212254   8.302  17.308   6.076  0.1935  0.1994  0.0051
  851loPI    C312255   8.422  17.455   5.724  0.3212  0.1011  0.0069
  851loPI   PO412256   8.330  16.831   5.845  0.1323 -0.0055  0.1062
  851loPI   GL112257   8.186  16.774   6.117 -0.2144 -0.0442  0.1204
  851loPI   GL212258   7.823  16.873   6.163  0.0481  0.1827 -0.0910
  851loPI   C1A12259   8.420  16.968   6.475  0.0226  0.1641 -0.2107
  851loPI   C2A12260   8.520  16.882   6.930 -0.4057  0.3378 -0.1788
  851loPI   C3A12261   8.632  16.756   7.369 -0.0182 -0.0678 -0.0201
  851loPI   C4A12262   8.693  16.693   7.767 -0.2522 -0.0079 -0.0259
  851loPI   C5A12263   8.735  16.690   8.243 -0.2488 -0.1529 -0.1630
  851loPI   C6A12264   8.839  16.838   8.642  0.0593  0.1018 -0.0002
  851loPI   C1B12265   7.877  16.868   6.620  0.4117 -0.1535 -0.2420
  851loPI   C2B12266   7.630  16.722   7.008  0.3260 -0.3973  0.0617
  851loPI   C3B12267   7.688  16.668   7.382  0.2118  0.3423  0.1687
  851loPI   C4B12268   7.805  16.739   7.819 -0.0101  0.1582 -0.2178
  852loPI    C112269  10.007   2.933   5.545  0.1152 -0.3250  0.1331
  852loPI    C212270   9.662   3.103   5.656  0.4074  0.2540  0.1899
  852loPI    C312271   9.755   3.074   5.268  0.1409 -0.2366  0.1547
  852loPI   PO412272  10.012   2.785   5.714 -0.1608  0.0679  0.0173
  852loPI   GL112273  10.024   2.741   6.263  0.0315  0.0688 -0.0512
  852loPI   GL212274  10.443   2.695   6.316 -0.0097 -0.2013 -0.1723
  852loPI   C1A12275  10.120   2.487   6.572 -0.0780  0.0446 -0.0017
  852loPI   C2A12276  10.129   2.421   7.036  0.0166 -0.0154 -0.2691
  852loPI   C3A12277  10.262   2.364   7.464  0.1185  0.0244 -0.0031
  852loPI   C4A12278  10.483   2.420   7.869  0.0928  0.1279 -0.1235
  852loPI   C5A12279  10.733   2.314   8.189 -0.1668 -0.1004  0.1197
  852loPI   C6A12280  11.041   1.938   8.272 -0.3326 -0.0700 -0.0755
  852loPI   C1B12281  10.469   2.722   6.798 -0.4172  0.0049  0.0811
  852loPI   C2B12282  10.543   2.722   7.199  0.2577  0.0425  0.0412
  852loPI   C3B12283  10.736   2.829   7.518  0.0418 -0.0015  0.0378
  852loPI   C4B12284  10.946   3.221   7.746 -0.1931  0.3423  0.0213
  853loPI    C112285  14.536  13.839   5.869 -0.1673 -0.2798 -0.1085
  853loPI    C212286  14.179  13.990   5.768 -0.1900 -0.1595  0.1424
  853loPI    C312287  14.497  14.231   5.796 -0.0465 -0.2943 -0.2549
  853loPI   PO412288  14.702  13.629   5.717  0.2681 -0.3469 -0.0199
  853loPI   GL112289  14.932  13.464   6.077  0.2609 -0.1007  0.0622
  853loPI   GL212290  14.992  13.167   6.138  0.1801 -0.0310  0.0485
  853loPI   C1A12291  15.147  13.456   6.440  0.0275 -0.4004  0.0318
  853loPI   C2A12292  15.291  13.289   6.847 -0.2900  0.0658 -0.1449
  853loPI   C3A12293  15.454  13.287   7.227 -0.1086  0.1255  0.1000
  853loPI   C4A12294  15.447  13.316   7.701  0.3270 -0.0635 -0.0277
  853loPI   C5A12295  15.455  13.501   8.036 -0.6634 -0.0595 -0.0513
  853loPI   C6A12296  15.631  13.855   8.294 -0.1195 -0.1878  0.0684
  853loPI   C1B12297  14.857  13.092   6.579  0.0914 -0.1477  0.0689
  853loPI   C2B12298  14.919  13.038   7.067  0.0736 -0.0107 -0.0647
  853loPI   C3B12299  15.039  13.142   7.470 -0.1408 -0.2989 -0.1198
  853loPI   C4B12300  14.963  13.474   7.805  0.0922  0.0544 -0.0243
  854loPI    C112301  17.310   6.189   5.570 -0.0655  0.3017 -0.3248
  854loPI    C212302  17.402   5.800   5.562 -0.2972  0.2296  0.1446
  854loPI    C312303  17.424   6.017   5.227  0.1344 -0.1121 -0.0598
  854loPI   PO412304  17.420   6.281   5.723 -0.0736 -0.1411 -0.0051
  854loPI   GL112305  17.740   6.348   6.064  0.2220  0.3182 -0.1244
  854loPI   GL212306  17.453   6.048   6.198 -0.1628  0.0684  0.0734
  854loPI   C1A12307  17.920   6.276   6.459 -0.5437  0.0248  0.3102
  854loPI   C2A12308  18.118   6.333   6.877  0.2328  0.3015  0.4296
  854loPI   C3A12309  18.164   6.432   7.309 -0.1312  0.4189  0.1629
  854loPI   C4A12310  18.153   6.351   7.659 -0.0144 -0.1126  0.0223
  854loPI   C5A12311  18.128   6.571   7.940 -0.0688 -0.0497 -0.2251
  854loPI   C6A12312  18.015   7.011   7.968 -0.2047  0.0232  0.0755
  854loPI   C1B12313  17.298   6.226   6.591 -0.0424 -0.0209 -0.0209
  854loPI   C2B12314  17.312   6.492   6.923 -0.0987 -0.3694 -0.0334
  854loPI   C3B12315  17.337   6.692   7.359  0.0684  0.2168  0.0537
  854loPI   C4B12316  17.212   6.778   7.803  0.3483 -0.0581 -0.2447
  855loPI    C112317   9.908   3.566   5.750  0.0820 -0.1552 -0.0328
  855loPI    C212318  10.076   3.471   5.400  0.0040 -0.0744 -0.0926
  855loPI    C312319   9.681   3.529   5.423 -0.0177 -0.2655  0.0475
  855loPI   PO412320  10.098   3.773   5.856 -0.1962 -0.2656 -0.1002
  855loPI   GL112321  10.398   3.923   6.181 -0.2344 -0.0478  0.4284
  855loPI   GL212322  10.634   4.152   6.288 -0.0481 -0.0934 -0.4003
  855loPI   C1A12323  10.164   3.558   6.461  0.1100  0.1355 -0.1284
  855loPI   C2A12324  10.281   3.570   6.923  0.1221  0.1674  0.3412
  855loPI   C3A12325  10.029   3.596   7.336  0.0929  0.1571  0.2604
  855loPI   C4A12326  10.101   3.489   7.729  0.1554 -0.2244  0.2385
  855loPI   C5A12327   9.952   3.151   8.020 -0.3208 -0.1539 -0.3561
  855loPI   C6A12328   9.466   2.941   8.052 -0.1901  0.2831  0.1727
  855loPI   C1B12329  10.641   4.420   6.678 -0.2165 -0.0475  0.1017
  855loPI   C2B12330  10.600   4.366   7.154 -0.0599 -0.1206  0.0958
  855loPI   C3B12331  10.782   4.151   7.554 -0.1209  0.0716  0.0383
  855loPI   C4B12332  10.777   4.206   7.921  0.0269 -0.1529 -0.1071
  856loPI    C112333   4.316   5.821   5.793 -0.2757 -0.2464 -0.0659
  856loPI    C212334   4.590   5.847   5.503 -0.2574 -0.1782 -0.0426
  856loPI    C312335   4.487   6.173   5.711 -0.3223 -0.2129 -0.0200
  856loPI   PO412336   4.380   5.563   5.872 -0.2084  0.2732 -0.1402
  856loPI   GL112337   4.175   5.134   6.069 -0.3020  0.0621  0.0344
  856loPI   GL212338   3.969   5.397   6.162 -0.1982 -0.0129  0.0684
  856loPI   C1A12339   4.196   5.120   6.524  0.2930  0.0937 -0.0061
  856loPI   C2A12340   4.484   5.356   6.799  0.0118 -0.2461 -0.2609
  856loPI   C3A12341   4.560   5.478   7.144 -0.1711  0.0094 -0.0501
  856loPI   C4A12342   4.517   5.380   7.496 -0.0648 -0.1611  0.2346
  856loPI   C5A12343   4.259   5.149   7.759  0.0531 -0.1104  0.1430
  856loPI   C6A12344   4.121   5.086   8.186 -0.2216  0.3876  0.4071
  856loPI   C1B12345   4.209   5.626   6.504  0.0822 -0.0058  0.1481
  856loPI   C2B12346   4.086   5.575   6.934  0.0074  0.1252 -0.2352
  856loPI   C3B12347   3.847   5.800   7.060  0.2457  0.1819 -0.6016
  856loPI   C4B12348   3.987   6.203   7.305  0.0078 -0.3191 -0.1303
  857loPI    C112349   0.402  16.775   5.238  0.1125  0.2662  0.0239
  857loPI    C212350   0.615  16.473   5.085  0.0663  0.1980  0.0927
  857loPI    C312351   0.554  16.805   4.870 -0.0517  0.0788 -0.0614
  857loPI   PO412352   0.505  16.812   5.499 -0.2328  0.1497  0.0757
  857loPI   GL112353   0.559  16.900   5.945  0.4285  0.2309  0.0354
  857loPI   GL212354   0.557  17.216   6.081 -0.3822  0.1967 -0.1191
  857loPI   C1A12355   0.323  16.731   6.416  0.2196  0.2824  0.0075
  857loPI   C2A12356   0.472  16.813   6.840  0.0541  0.2463 -0.1318
  857loPI   C3A12357   0.521  16.736   7.258 -0.1870  0.1347  0.3719
  857loPI   C4A12358   0.648  16.754   7.580 -0.0614 -0.0200 -0.0731
  857loPI   C5A12359   1.003  16.558   7.882 -0.1245  0.1205  0.1880
  857loPI   C6A12360   1.312  16.227   7.962 -0.1118  0.3632 -0.1744
  857loPI   C1B12361   0.722  17.003   6.470 -0.2299 -0.2607 -0.5726
  857loPI   C2B12362   0.880  17.219   6.867 -0.1508 -0.0951  0.0893
  857loPI   C3B12363   0.676  17.196   7.300  0.0696  0.0982  0.0608
  857loPI   C4B12364   0.649  17.258   7.804 -0.0785 -0.4269  0.0906
  858loPI    C112365  10.029  11.596   6.102  0.1053  0.0827 -0.1534
  858loPI    C212366   9.855  11.671   5.749 -0.2219 -0.0017 -0.0133
  858loPI    C312367  10.254  11.653   5.776 -0.1868  0.2226 -0.3346
  858loPI   PO412368   9.946  11.382   6.203  0.2792 -0.0342 -0.1883
  858loPI   GL112369   9.914  11.284   6.618  0.0792 -0.0525 -0.1207
  858loPI   GL212370   9.950  11.511   6.803  0.1626 -0.0280  0.0143
  858loPI   C1A12371   9.865  10.931   6.915 -0.0053  0.2004 -0.2464
  858loPI   C2A12372   9.722  10.568   7.223  0.3066 -0.0174  0.2369
  858loPI   C3A12373   9.778  10.377   7.609 -0.0832  0.1246 -0.2309
  858loPI   C4A12374  10.162  10.559   7.731 -0.1172 -0.2602  0.0451
  858loPI   C5A12375  10.514  10.796   7.796  0.1935 -0.0341 -0.2272
  858loPI   C6A12376  10.956  10.794   7.842  0.0143  0.3184  0.0849
  858loPI   C1B12377   9.937  11.664   7.304 -0.1063  0.2009  0.0576
  858loPI   C2B12378  10.018  11.725   7.712  0.0270 -0.0289 -0.1397
  858loPI   C3B12379  10.023  11.580   8.119 -0.0492  0.1288  0.1666
  858loPI   C4B12380  10.170  11.449   8.497 -0.2768 -0.1251  0.0346
  859loPI    C112381   1.088   3.029   5.666  0.1565 -0.0209 -0.1229
  859loPI    C212382   1.314   2.755   5.483  0.0474 -0.1969  0.0030
  859loPI    C312383   0.920   2.765   5.417  0.0197 -0.2076  0.1620
  859loPI   PO412384   1.157   2.983   5.918 -0.2568  0.1790 -0.0722
  859loPI   GL112385   0.989   2.779   6.341  0.2211 -0.2480 -0.0745
  859loPI   GL212386   1.262   2.734   6.377 -0.1424 -0.1310  0.2547
  859loPI   C1A12387   0.717   2.616   6.656  0.1274 -0.1109 -0.2701
  859loPI   C2A12388   0.770   2.605   7.144  0.4316  0.0439  0.0385
  859loPI   C3A12389   0.742   2.686   7.582  0.2551  0.1263 -0.0943
  859loPI   C4A12390   0.883   2.832   7.987 -0.0340  0.1173  0.3366
  859loPI   C5A12391   1.030   3.230   8.128  0.1992 -0.0483  0.1716
  859loPI   C6A12392   0.908   3.464   8.508 -0.0310 -0.0908  0.0114
  859loPI   C1B12393   1.197   2.744   6.846 -0.1446  0.2816 -0.1465
  859loPI   C2B12394   1.141   2.872   7.263  0.3545 -0.1248 -0.2484
  859loPI   C3B12395   1.195   2.943   7.637 -0.1431  0.0086  0.1650
  859loPI   C4B12396   1.392   2.834   7.993 -0.0263 -0.4521 -0.0187
  860loPI    C112397  12.572  14.069   6.027  0.2184  0.0690 -0.1314
  860loPI    C212398  12.669  13.906   5.675  0.2681  0.1289 -0.1457
  860loPI    C312399  12.429  14.226   5.688  0.1242  0.0208 -0.1143
  860loPI   PO412400  12.581  13.853   6.167  0.1035  0.1296 -0.1355
  860loPI   GL112401  12.600  13.807   6.688 -0.4220  0.0018  0.4023
  860loPI   GL212402  12.522  14.024   6.873  0.1951 -0.0611 -0.3290
  860loPI   C1A12403  13.014  13.768   6.936 -0.1223  0.0443 -0.0740
  860loPI   C2A12404  13.165  13.585   7.285  0.2092 -0.0881  0.1128
  860loPI   C3A12405  13.439  13.272   7.540  0.1249  0.0086 -0.3631
  860loPI   C4A12406  13.586  13.190   7.954  0.0398 -0.4530 -0.0585
  860loPI   C5A12407  14.003  13.192   8.222  0.2931 -0.0712 -0.2304
  860loPI   C6A12408  14.365  13.097   8.600 -0.2549 -0.0860 -0.0339
  860loPI   C1B12409  12.673  13.840   7.299 -0.2172 -0.1622 -0.1590
  860loPI   C2B12410  12.650  13.728   7.710  0.0821 -0.0183  0.2932
  860loPI   C3B12411  12.609  13.611   8.162  0.4826 -0.1081 -0.1450
  860loPI   C4B12412  12.328  13.533   8.517  0.2883 -0.0187  0.2745
  861loPI    C112413   3.329  13.526   5.467 -0.2856 -0.0813  0.0707
  861loPI    C212414   3.481  13.873   5.341  0.0697 -0.2565  0.0029
  861loPI    C312415   3.206  13.684   5.121 -0.1350 -0.0161  0.0463
  861loPI   PO412416   3.353  13.556   5.714  0.2129 -0.4919 -0.0517
  861loPI   GL112417   3.486  13.360   6.110 -0.0708 -0.1725 -0.0219
  861loPI   GL212418   3.510  13.018   6.152 -0.0268 -0.0192  0.2805
  861loPI   C1A12419   3.420  13.459   6.470 -0.2229  0.1257 -0.0760
  861loPI   C2A12420   3.292  13.344   6.836  0.0029  0.0528  0.1239
  861loPI   C3A12421   3.256  13.491   7.219  0.2899  0.3322 -0.0186
  861loPI   C4A12422   3.198  13.575   7.630 -0.1233  0.0682 -0.2637
  861loPI   C5A12423   2.965  13.464   8.010 -0.0510  0.4341 -0.0491
  861loPI   C6A12424   2.656  13.297   8.235  0.2167  0.0900 -0.0379
  861loPI   C1B12425   3.363  12.855   6.522  0.1826  0.0098 -0.1083
  861loPI   C2B12426   3.207  12.887   6.950 -0.0068  0.1106  0.1669
  861loPI   C3B12427   3.143  12.980   7.286  0.0803 -0.1707 -0.0205
  861loPI   C4B12428   3.120  13.057   7.595 -0.0111  0.2097 -0.1631
  862loPI    C112429   2.833  13.360   5.309 -0.1932  0.2312  0.3197
  862loPI    C212430   2.502  13.499   5.485 -0.3988  0.1918 -0.0275
  862loPI    C312431   2.479  13.319   5.129 -0.0497 -0.1434  0.1128
  862loPI   PO412432   2.903  13.246   5.448 -0.0039 -0.0471 -0.0483
  862loPI   GL112433   2.879  13.337   5.855  0.1200  0.1175 -0.0870
  862loPI   GL212434   2.612  13.274   5.938 -0.1487 -0.0982  0.2874
  862loPI   C1A12435   3.032  13.158   6.192  0.1729 -0.1011  0.0074
  862loPI   C2A12436   2.884  13.196   6.618  0.0335 -0.0368  0.1671
  862loPI   C3A12437   2.842  13.229   6.995 -0.1331 -0.0123 -0.0329
  862loPI   C4A12438   2.643  13.183   7.376 -0.1085  0.2315 -0.4143
  862loPI   C5A12439   2.495  13.303   7.753  0.3579 -0.1889  0.2976
  862loPI   C6A12440   2.462  13.681   7.934  0.1994 -0.0976  0.0716
  862loPI   C1B12441   2.530  13.532   6.382 -0.2610  0.0072  0.0490
  862loPI   C2B12442   2.424  13.494   6.872  0.3225  0.0244 -0.0899
  862loPI   C3B12443   2.272  13.487   7.256  0.0219  0.0376 -0.1278
  862loPI   C4B12444   2.016  13.419   7.586  0.0612 -0.0286  0.2342
  863loPI    C112445  13.562  12.745   5.713  0.1524  0.0740  0.0177
  863loPI    C212446  13.845  12.687   5.436  0.1348 -0.0499  0.0248
  863loPI    C312447  13.549  12.422   5.477 -0.1443  0.2233 -0.1758
  863loPI   PO412448  13.618  12.665   5.929 -0.2624 -0.0506 -0.1707
  863loPI   GL112449  13.794  12.589   6.428 -0.0801  0.0190 -0.0361
  863loPI   GL212450  14.077  12.580   6.296 -0.1386  0.2665 -0.0006
  863loPI   C1A12451  13.817  12.443   6.939 -0.4131  0.1312  0.2095
  863loPI   C2A12452  13.827  12.436   7.381 -0.0928 -0.1381 -0.1353
  863loPI   C3A12453  14.043  12.656   7.682  0.1507  0.0835  0.1326
  863loPI   C4A12454  14.314  12.954   7.945 -0.0452  0.3392  0.0437
  863loPI   C5A12455  14.726  12.994   7.886  0.3647  0.0931  0.2995
  863loPI   C6A12456  15.100  13.105   8.099 -0.0452 -0.0771  0.0408
  863loPI   C1B12457  14.155  12.753   6.713  0.0318 -0.0294 -0.1126
  863loPI   C2B12458  14.249  12.671   7.119  0.1921 -0.1780 -0.0152
  863loPI   C3B12459  14.516  12.689   7.481  0.1684 -0.2917  0.0809
  863loPI   C4B12460  14.581  12.511   7.883 -0.0024 -0.2073 -0.0847
  864loPI    C112461   8.832  13.373   5.525  0.2348 -0.1092  0.0887
  864loPI    C212462   8.534  13.413   5.262  0.1452  0.1070  0.2205
  864loPI    C312463   8.905  13.338   5.133  0.0410 -0.1393  0.0541
  864loPI   PO412464   8.678  13.449   5.777  0.2876  0.0895 -0.0533
  864loPI   GL112465   8.700  13.569   6.244 -0.0211  0.0855  0.1422
  864loPI   GL212466   8.883  13.267   6.331 -0.5569  0.3334  0.2432
  864loPI   C1A12467   8.342  13.579   6.584  0.2956  0.0496  0.0892
  864loPI   C2A12468   8.317  13.450   6.940  0.1451 -0.2064  0.2728
  864loPI   C3A12469   8.235  13.653   7.331 -0.0955 -0.3165 -0.1201
  864loPI   C4A12470   8.144  13.629   7.838 -0.1381 -0.2462  0.5202
  864loPI   C5A12471   8.346  13.848   8.155  0.3147  0.1785  0.3187
  864loPI   C6A12472   8.523  14.253   8.192 -0.0107  0.2212 -0.0548
  864loPI   C1B12473   8.882  13.403   6.708 -0.1338  0.1941 -0.0143
  864loPI   C2B12474   8.995  13.395   7.157 -0.0065 -0.0127  0.0946
  864loPI   C3B12475   9.120  13.545   7.612  0.1167 -0.1355 -0.0761
  864loPI   C4B12476   9.188  13.491   8.071 -0.1836 -0.2209 -0.2677
  865loPI    C112477   9.981  10.525   5.743 -0.1763  0.1456  0.1105
  865loPI    C212478  10.208  10.770   5.523 -0.1739 -0.0201 -0.0741
  865loPI    C312479   9.866  10.625   5.374  0.0115 -0.4291 -0.1147
  865loPI   PO412480  10.135  10.441   5.868 -0.1826  0.3877 -0.2130
  865loPI   GL112481  10.223  10.264   6.205  0.1023  0.0193  0.0176
  865loPI   GL212482   9.942  10.263   6.360  0.1968  0.0635 -0.4324
  865loPI   C1A12483  10.457  10.100   6.514  0.0877 -0.2060  0.0363
  865loPI   C2A12484  10.659  10.194   6.918  0.0526  0.2007 -0.4274
  865loPI   C3A12485  10.862  10.029   7.265 -0.1861  0.0225  0.0156
  865loPI   C4A12486  10.897   9.947   7.659 -0.1918  0.1647  0.1023
  865loPI   C5A12487  10.734  10.069   8.151  0.3558  0.0252 -0.0182
  865loPI   C6A12488  10.968  10.051   8.506 -0.0000 -0.1493 -0.1120
  865loPI   C1B12489   9.953  10.429   6.759 -0.1345  0.2387 -0.2419
  865loPI   C2B12490  10.300  10.576   6.944  0.2632  0.3547  0.0774
  865loPI   C3B12491  10.207  10.813   7.278  0.1027  0.1067 -0.0832
  865loPI   C4B12492   9.788  10.868   7.589  0.4667  0.0660  0.3565
  866loPI    C112493  12.881   6.741   5.573 -0.0507  0.0232  0.1123
  866loPI    C212494  12.572   6.886   5.781 -0.2115  0.1367 -0.1988
  866loPI    C312495  12.562   6.511   5.643 -0.0474  0.0167  0.1062
  866loPI   PO412496  13.092   6.793   5.739  0.2371 -0.1137  0.1571
  866loPI   GL112497  13.046   7.005   6.148  0.1927  0.0823  0.0533
  866loPI   GL212498  13.424   7.105   6.302  0.0916  0.2319  0.2811
  866loPI   C1A12499  13.018   6.890   6.600 -0.3045  0.1589  0.2966
  866loPI   C2A12500  13.061   6.971   6.998  0.0770 -0.1153 -0.0961
  866loPI   C3A12501  13.196   7.040   7.406  0.0902 -0.0847 -0.1453
  866loPI   C4A12502  13.582   6.943   7.714  0.1203  0.0148 -0.1417
  866loPI   C5A12503  13.526   7.178   8.110  0.2253 -0.0320  0.1150
  866loPI   C6A12504  13.823   7.106   8.546 -0.0556 -0.2111  0.0203
  866loPI   C1B12505  13.409   7.207   6.751  0.1654 -0.1288  0.0001
  866loPI   C2B12506  13.491   7.415   7.120  0.1551 -0.1817 -0.1424
  866loPI   C3B12507  13.662   7.529   7.531 -0.2685 -0.1643  0.1263
  866loPI   C4B12508  13.633   7.657   7.928  0.2376  0.0993 -0.2410
  867loPI    C112509  17.479  16.849   5.510 -0.0473 -0.2116  0.0239
  867loPI    C212510  17.513  16.988   5.137  0.0822  0.0387  0.1265
  867loPI    C312511  17.708  16.655   5.245  0.1577  0.0443  0.0100
  867loPI   PO412512  17.357  17.023   5.660 -0.4246 -0.1749 -0.1778
  867loPI   GL112513  17.519  17.117   5.999  0.0839 -0.1708 -0.1718
  867loPI   GL212514  17.203  16.995   6.127  0.2993  0.1242 -0.0399
  867loPI   C1A12515  17.452  17.229   6.425  0.1761 -0.2678 -0.0462
  867loPI   C2A12516  17.632  17.159   6.898  0.0084 -0.0545  0.0965
  867loPI   C3A12517  17.526  17.040   7.256 -0.0140  0.1762 -0.1166
  867loPI   C4A12518  17.437  17.062   7.694 -0.0117  0.0920 -0.1613
  867loPI   C5A12519  17.584  16.857   8.091 -0.2188  0.0137 -0.2074
  867loPI   C6A12520  17.676  16.818   8.525 -0.0810 -0.1536 -0.0229
  867loPI   C1B12521  17.267  16.774   6.548 -0.1855 -0.4149 -0.0976
  867loPI   C2B12522  17.481  16.623   6.925 -0.0207  0.0485 -0.1419
  867loPI   C3B12523  17.717  16.566   7.198  0.2228 -0.0155  0.1356
  867loPI   C4B12524  17.762  16.702   7.603 -0.0727 -0.1555  0.0901
  868loPI    C112525   7.842  13.382   5.686  0.0576 -0.1697  0.1308
  868loPI    C212526   8.170  13.603   5.631 -0.2796  0.2182 -0.4199
  868loPI    C312527   8.199  13.205   5.655  0.2307  0.2496 -0.4119
  868loPI   PO412528   7.760  13.619   5.924  0.1458 -0.2437  0.2923
  868loPI   GL112529   7.790  13.498   6.449  0.1013 -0.3846  0.2246
  868loPI   GL212530   7.554  13.332   6.604  0.1408 -0.1911 -0.1978
  868loPI   C1A12531   7.941  13.785   6.666  0.0563 -0.2210  0.1527
  868loPI   C2A12532   7.891  13.911   7.060  0.0334 -0.1780 -0.2415
  868loPI   C3A12533   7.696  14.250   7.385  0.2074  0.0478  0.0488
  868loPI   C4A12534   7.483  14.284   7.588  0.0736  0.3418  0.3771
  868loPI   C5A12535   7.461  14.477   7.982 -0.0428  0.3395  0.3212
  868loPI   C6A12536   7.336  14.589   8.366 -0.2701  0.2832 -0.0932
  868loPI   C1B12537   7.739  13.431   6.964 -0.0012 -0.5620 -0.1910
  868loPI   C2B12538   7.796  13.477   7.304  0.2159 -0.0476 -0.0725
  868loPI   C3B12539   7.694  13.743   7.605 -0.0282 -0.1185  0.0408
  868loPI   C4B12540   7.794  13.727   8.135 -0.0694  0.0030  0.1049
  869loPI    C112541   1.398   8.341   5.460  0.1046  0.1791 -0.1553
  869loPI    C212542   1.056   8.518   5.569  0.1190  0.1130 -0.0009
  869loPI    C312543   1.104   8.390   5.193 -0.0113  0.1562 -0.0326
  869loPI   PO412544   1.589   8.487   5.588  0.0566 -0.3280 -0.0835
  869loPI   GL112545   1.435   8.698   5.897  0.0673 -0.0818 -0.0199
  869loPI   GL212546   1.334   8.381   6.028 -0.1769  0.0201 -0.0421
  869loPI   C1A12547   1.106   8.845   6.009  0.1024  0.2873  0.0060
  869loPI   C2A12548   0.960   8.899   6.422 -0.2062  0.1874 -0.1625
  869loPI   C3A12549   0.946   9.068   6.898 -0.3004 -0.0187  0.1959
  869loPI   C4A12550   0.997   9.092   7.392  0.0543  0.0391  0.2140
  869loPI   C5A12551   0.816   8.959   7.858 -0.0162  0.2751 -0.0387
  869loPI   C6A12552   0.434   8.709   7.946  0.0531  0.1304 -0.2357
  869loPI   C1B12553   1.401   8.624   6.464  0.2371  0.1186  0.3478
  869loPI   C2B12554   1.369   8.724   6.829  0.0794  0.2557 -0.3110
  869loPI   C3B12555   1.442   8.892   7.189  0.2185  0.3728  0.0221
  869loPI   C4B12556   1.376   8.979   7.640  0.0258 -0.1637  0.2787
  870loPI    C112557   0.961   4.665   5.171  0.0414  0.1121  0.1010
  870loPI    C212558   1.108   5.035   5.210  0.1570  0.0845 -0.0589
  870loPI    C312559   1.187   4.823   4.881 -0.0490 -0.0200 -0.0429
  870loPI   PO412560   0.926   4.484   5.454  0.1160  0.0080 -0.1995
  870loPI   GL112561   0.992   4.619   5.963 -0.2564  0.1797  0.1452
  870loPI   GL212562   1.223   4.313   6.158 -0.0674  0.0216  0.0599
  870loPI   C1A12563   0.793   4.661   6.267  0.1027 -0.0237  0.2480
  870loPI   C2A12564   0.914   4.668   6.694  0.0340  0.0316  0.1017
  870loPI   C3A12565   0.885   4.837   7.127 -0.0968 -0.3235  0.2043
  870loPI   C4A12566   0.839   4.785   7.635  0.2550  0.0159 -0.2068
  870loPI   C5A12567   0.791   4.934   7.988  0.1767  0.0820 -0.1546
  870loPI   C6A12568   0.817   5.229   8.299 -0.0618 -0.0083 -0.2932
  870loPI   C1B12569   1.308   4.454   6.533 -0.0476  0.0480  0.0269
  870loPI   C2B12570   1.349   4.405   7.052  0.0144  0.0160 -0.3566
  870loPI   C3B12571   1.326   4.535   7.371  0.2014  0.1137 -0.1712
  870loPI   C4B12572   1.288   4.496   7.813 -0.1784 -0.0169  0.1277
  871loPI    C112573   8.419   4.504   5.562 -0.0653  0.1377 -0.1449
  871loPI    C212574   8.527   4.163   5.383 -0.2189  0.0572 -0.0858
  871loPI    C312575   8.641   4.514   5.230  0.1436 -0.0247 -0.0128
  871loPI   PO412576   8.468   4.404   5.807 -0.0104  0.0943 -0.1476
  871loPI   GL112577   8.315   4.300   6.196  0.1962 -0.0448  0.1956
  871loPI   GL212578   8.007   4.211   6.246 -0.0714 -0.0773 -0.0298
  871loPI   C1A12579   8.516   4.288   6.566 -0.1090 -0.1795 -0.2217
  871loPI   C2A12580   8.706   4.363   7.016  0.1657 -0.0409  0.0291
  871loPI   C3A12581   8.722   4.385   7.482 -0.1921 -0.0422 -0.2066
  871loPI   C4A12582   8.507   4.305   7.906  0.0556  0.1734  0.2345
  871loPI   C5A12583   8.099   4.287   8.065  0.0594  0.0842 -0.0220
  871loPI   C6A12584   7.844   3.875   8.179 -0.1445 -0.2402  0.0886
  871loPI   C1B12585   8.042   4.175   6.707  0.2829  0.0447  0.1995
  871loPI   C2B12586   8.150   4.079   7.156 -0.0607 -0.1961 -0.0174
  871loPI   C3B12587   8.078   4.079   7.515  0.0926 -0.0906  0.1281
  871loPI   C4B12588   8.237   3.800   7.789 -0.1900  0.3555 -0.0753
  872loPI    C112589   1.302  10.941   5.422  0.1236  0.0868  0.1562
  872loPI    C212590   1.391  11.166   5.104  0.1664  0.0027  0.1081
  872loPI    C312591   1.054  10.951   5.108  0.0130  0.2407  0.2474
  872loPI   PO412592   1.293  11.000   5.625  0.3933 -0.3332  0.0484
  872loPI   GL112593   1.292  10.728   5.940 -0.2599  0.4272  0.0622
  872loPI   GL212594   0.945  10.855   5.982  0.1425  0.1166  0.0717
  872loPI   C1A12595   1.443  10.761   6.369  0.2182  0.0799  0.2466
  872loPI   C2A12596   1.498  10.764   6.831 -0.2948 -0.1662  0.1608
  872loPI   C3A12597   1.511  10.871   7.269 -0.1083 -0.0121 -0.2223
  872loPI   C4A12598   1.441  10.922   7.770 -0.2114 -0.2209 -0.0568
  872loPI   C5A12599   1.756  11.195   8.011 -0.2894 -0.0882  0.0644
  872loPI   C6A12600   1.877  11.481   8.316  0.0572  0.1095 -0.1438
  872loPI   C1B12601   1.000  11.031   6.352 -0.2163  0.3463  0.0525
  872loPI   C2B12602   0.999  11.095   6.807 -0.0568 -0.1918  0.2469
  872loPI   C3B12603   1.049  11.029   7.164 -0.0872  0.0879 -0.2011
  872loPI   C4B12604   0.976  11.064   7.552 -0.0439 -0.2111 -0.1070
  873loPI    C112605   8.960   5.472   5.627 -0.0743 -0.0260  0.0262
  873loPI    C212606   8.880   5.766   5.886  0.0884 -0.0680  0.1255
  873loPI    C312607   8.889   5.843   5.493  0.2118  0.0786  0.1560
  873loPI   PO412608   8.845   5.191   5.712 -0.1598  0.0731 -0.1115
  873loPI   GL112609   8.952   5.089   6.121  0.1729  0.1668  0.1288
  873loPI   GL212610   9.029   5.359   6.231 -0.2426 -0.0058  0.3490
  873loPI   C1A12611   8.714   4.962   6.548  0.2925 -0.4332  0.0994
  873loPI   C2A12612   8.740   4.923   6.929  0.0975  0.1774 -0.0677
  873loPI   C3A12613   8.782   4.889   7.379  0.1867  0.0713 -0.1962
  873loPI   C4A12614   8.656   4.827   7.807 -0.2122  0.3558 -0.0867
  873loPI   C5A12615   8.852   4.695   8.242 -0.0936 -0.0463  0.2041
  873loPI   C6A12616   8.555   4.496   8.503  0.1678 -0.1057 -0.1694
  873loPI   C1B12617   8.806   5.459   6.583  0.2152  0.0217  0.0537
  873loPI   C2B12618   8.905   5.411   7.004 -0.1162 -0.0421  0.0182
  873loPI   C3B12619   8.919   5.409   7.438 -0.2539  0.2114  0.3172
  873loPI   C4B12620   8.896   5.493   7.822  0.0523  0.1894 -0.2367
  874loPI    C112621   1.351   1.130   5.768 -0.0718 -0.0966  0.0993
  874loPI    C212622   1.082   0.869   5.627 -0.2584  0.1441  0.0033
  874loPI    C312623   1.279   1.110   5.375  0.2699 -0.2310  0.0394
  874loPI   PO412624   1.484   1.014   6.015 -0.1917 -0.2353 -0.0414
  874loPI   GL112625   1.427   1.052   6.483 -0.0660  0.1076  0.0819
  874loPI   GL212626   1.740   0.947   6.459  0.1220 -0.2954 -0.2132
  874loPI   C1A12627   1.414   1.282   6.807  0.1494  0.1612  0.1963
  874loPI   C2A12628   1.358   1.371   7.141  0.0994 -0.1440  0.1495
  874loPI   C3A12629   1.266   1.397   7.561  0.1376 -0.4062 -0.0966
  874loPI   C4A12630   1.229   1.458   8.026 -0.2456 -0.0087  0.0520
  874loPI   C5A12631   1.111   1.154   8.301 -0.1089 -0.3157 -0.1232
  874loPI   C6A12632   1.196   0.850   8.718 -0.0630 -0.0777  0.1591
  874loPI   C1B12633   1.870   1.107   6.925  0.0690 -0.2368  0.1024
  874loPI   C2B12634   1.824   1.211   7.359 -0.1306  0.0841  0.1042
  874loPI   C3B12635   1.738   1.411   7.777 -0.3771  0.0977 -0.1121
  874loPI   C4B12636   1.728   1.571   8.208 -0.2551 -0.0123  0.1445
  875loPI    C112637  15.531   7.947   5.547  0.1106  0.0733  0.1772
  875loPI    C212638  15.829   7.771   5.346 -0.0552 -0.0467  0.0345
  875loPI    C312639  15.535   7.957   5.148 -0.2095 -0.1481  0.1650
  875loPI   PO412640  15.672   8.109   5.748 -0.3789  0.1869  0.3657
  875loPI   GL112641  15.684   8.067   6.100  0.0226 -0.4172  0.2174
  875loPI   GL212642  15.560   8.479   6.193  0.1108 -0.0160  0.2205
  875loPI   C1A12643  15.497   8.153   6.588  0.0819 -0.1305  0.0866
  875loPI   C2A12644  15.359   8.282   7.034  0.3291 -0.0938  0.1631
  875loPI   C3A12645  15.343   8.310   7.531  0.1517 -0.4089  0.0827
  875loPI   C4A12646  15.277   8.515   7.824  0.0310 -0.2693 -0.1871
  875loPI   C5A12647  15.202   8.563   8.241  0.1548  0.0538 -0.1205
  875loPI   C6A12648  14.779   8.721   8.290 -0.0004 -0.3693  0.0150
  875loPI   C1B12649  15.434   8.675   6.660 -0.1702  0.0530  0.0386
  875loPI   C2B12650  15.523   8.710   7.205  0.0791 -0.2952  0.1446
  875loPI   C3B12651  15.743   8.656   7.528  0.2584 -0.3423 -0.3574
  875loPI   C4B12652  16.097   8.513   7.693  0.0766  0.0860  0.0929
  876loPI    C112653  16.237  14.490   5.149  0.0847 -0.0962 -0.0913
  876loPI    C212654  15.965  14.736   4.989  0.1618  0.0957  0.0680
  876loPI    C312655  16.304  14.655   4.791  0.2486  0.3172  0.1237
  876loPI   PO412656  16.257  14.577   5.432 -0.1265  0.1504 -0.0578
  876loPI   GL112657  16.276  14.550   5.862 -0.0434  0.0527  0.0268
  876loPI   GL212658  16.054  14.309   5.976  0.0385 -0.2133  0.1876
  876loPI   C1A12659  16.299  14.656   6.322 -0.3879  0.1129 -0.0529
  876loPI   C2A12660  16.354  14.804   6.736 -0.0385 -0.1194  0.1557
  876loPI   C3A12661  16.501  14.927   7.160  0.1164 -0.0637 -0.1315
  876loPI   C4A12662  16.558  14.891   7.533 -0.2808 -0.4163  0.1586
  876loPI   C5A12663  16.756  14.909   7.935 -0.1521 -0.0888  0.2681
  876loPI   C6A12664  16.751  14.781   8.319  0.0187  0.0692 -0.3116
  876loPI   C1B12665  16.467  14.061   6.196 -0.0242 -0.0711 -0.0628
  876loPI   C2B12666  16.672  13.975   6.619  0.2022 -0.1375  0.0706
  876loPI   C3B12667  16.872  14.103   7.046 -0.2923  0.2864 -0.1064
  876loPI   C4B12668  16.878  14.010   7.447 -0.2156  0.2686 -0.0766
  877loPI    C112669   8.271  14.420   5.854 -0.0435 -0.0501 -0.1612
  877loPI    C212670   8.023  14.599   5.595  0.0023 -0.1027 -0.2419
  877loPI    C312671   8.405  14.536   5.495  0.0428 -0.0438 -0.1273
  877loPI   PO412672   8.107  14.405   6.033 -0.2229  0.2119  0.1850
  877loPI   GL112673   8.039  14.411   6.407 -0.1105  0.1356 -0.1362
  877loPI   GL212674   7.797  14.315   6.563  0.1624  0.0783  0.1305
  877loPI   C1A12675   8.344  14.158   6.692 -0.1767 -0.3565  0.1207
  877loPI   C2A12676   8.311  14.148   7.056 -0.2759  0.1324  0.1676
  877loPI   C3A12677   8.188  14.093   7.503 -0.2545 -0.1539  0.0934
  877loPI   C4A12678   8.005  14.085   7.839  0.3392 -0.0284 -0.0133
  877loPI   C5A12679   7.934  14.264   8.165 -0.0012 -0.1178  0.1514
  877loPI   C6A12680   7.645  14.137   8.426  0.1200  0.1796  0.1539
  877loPI   C1B12681   7.905  14.432   6.932 -0.1185  0.0154 -0.3551
  877loPI   C2B12682   7.813  14.734   7.358 -0.0696 -0.1443  0.0826
  877loPI   C3B12683   7.846  14.839   7.776 -0.2497  0.3135  0.0819
  877loPI   C4B12684   7.594  14.917   8.114  0.2143 -0.2296  0.1101
  878loPI    C112685   6.400  11.017   5.910 -0.1082 -0.3348 -0.0645
  878loPI    C212686   6.141  11.016   5.605 -0.2019  0.1365  0.0073
  878loPI    C312687   6.534  11.039   5.534 -0.1930 -0.2594 -0.0905
  878loPI   PO412688   6.358  11.200   6.038  0.2779  0.0923 -0.1485
  878loPI   GL112689   6.504  11.295   6.395 -0.0071 -0.2287  0.6350
  878loPI   GL212690   6.790  11.068   6.380  0.1249 -0.0540  0.1073
  878loPI   C1A12691   6.401  11.093   6.777  0.1086 -0.2814  0.0670
  878loPI   C2A12692   6.706  11.126   7.161  0.3739  0.3996 -0.3671
  878loPI   C3A12693   6.974  11.204   7.542 -0.1582  0.3790  0.0524
  878loPI   C4A12694   7.074  11.224   8.068 -0.0930  0.1530  0.0550
  878loPI   C5A12695   7.488  11.302   8.168  0.1038 -0.0732 -0.0207
  878loPI   C6A12696   7.775  11.111   8.463 -0.2877  0.2603 -0.0407
  878loPI   C1B12697   6.959  11.333   6.676 -0.0221 -0.0429 -0.0578
  878loPI   C2B12698   6.931  11.622   7.104 -0.1593  0.1793 -0.1413
  878loPI   C3B12699   6.552  11.757   7.313  0.1609  0.1531  0.0774
  878loPI   C4B12700   6.469  11.849   7.767  0.2366 -0.3955 -0.1671
  879loPI    C112701  14.179  11.908   5.197 -0.1077  0.1671  0.1131
  879loPI    C212702  14.294  11.627   5.458 -0.0258  0.2215  0.1357
  879loPI    C312703  14.175  11.522   5.091 -0.3152  0.1289  0.2527
  879loPI   PO412704  13.995  12.071   5.425  0.0706  0.1034 -0.1076
  879loPI   GL112705  14.066  11.873   5.904  0.1183  0.0429  0.1463
  879loPI   GL212706  14.055  11.589   5.866 -0.1817  0.3310 -0.0152
  879loPI   C1A12707  14.171  11.842   6.394 -0.1052  0.0800  0.0842
  879loPI   C2A12708  14.268  11.779   6.802 -0.1799  0.0839  0.4061
  879loPI   C3A12709  14.351  11.728   7.293 -0.0557 -0.0182 -0.1666
  879loPI   C4A12710  14.274  11.744   7.751  0.1063  0.0526 -0.1515
  879loPI   C5A12711  14.144  11.743   8.232 -0.1956 -0.3428 -0.2627
  879loPI   C6A12712  13.802  11.525   8.458  0.5344 -0.1609  0.2787
  879loPI   C1B12713  14.224  11.382   6.188  0.1525 -0.0259  0.0342
  879loPI   C2B12714  14.405  11.255   6.612  0.2010 -0.1467 -0.2169
  879loPI   C3B12715  14.343  11.162   7.042 -0.0293 -0.1923  0.0255
  879loPI   C4B12716  14.427  11.260   7.483  0.1033 -0.1219  0.1632
  880loPI    C112717  16.650   0.888   5.564  0.2255 -0.3637 -0.0333
  880loPI    C212718  16.418   0.741   5.274  0.1194  0.0943 -0.1891
  880loPI    C312719  16.816   0.730   5.236  0.1121 -0.1010 -0.2206
  880loPI   PO412720  16.522   0.814   5.785 -0.0568 -0.0032 -0.2812
  880loPI   GL112721  16.448   0.400   6.058 -0.0095 -0.4305  0.4322
  880loPI   GL212722  16.338   0.154   6.176  0.0698 -0.1260  0.0153
  880loPI   C1A12723  16.607   0.450   6.463  0.1491 -0.2671  0.2510
  880loPI   C2A12724  16.526   0.325   7.031 -0.0404 -0.1766 -0.1019
  880loPI   C3A12725  16.564   0.283   7.405  0.0807 -0.0936  0.0779
  880loPI   C4A12726  16.584   0.398   7.888 -0.0575  0.3065 -0.0472
  880loPI   C5A12727  16.410   0.641   8.244 -0.0498  0.0260 -0.1053
  880loPI   C6A12728  16.116   0.888   8.366 -0.1541  0.1476  0.2080
  880loPI   C1B12729  16.361   0.003   6.691  0.2471 -0.1177 -0.1656
  880loPI   C2B12730  16.387  -0.133   7.268  0.0994 -0.1102  0.0418
  880loPI   C3B12731  16.572  -0.100   7.759 -0.0962 -0.0242  0.2113
  880loPI   C4B12732  16.459  -0.267   8.156  0.1348 -0.1239 -0.0024
  881loPI    C112733  16.621   1.874   5.784 -0.0884  0.1093 -0.1941
  881loPI    C212734  16.298   1.796   5.563 -0.1652  0.2615 -0.1361
  881loPI    C312735  16.504   2.134   5.505  0.2316 -0.0256 -0.4619
  881loPI   PO412736  16.531   1.738   6.129 -0.1553  0.1259 -0.2400
  881loPI   GL112737  16.642   1.842   6.489  0.2268  0.1392  0.2650
  881loPI   GL212738  16.936   1.612   6.552  0.1537 -0.0315 -0.0001
  881loPI   C1A12739  16.571   1.897   6.890  0.0651  0.4808 -0.2471
  881loPI   C2A12740  16.467   1.826   7.300  0.0348 -0.0616  0.2156
  881loPI   C3A12741  16.527   1.923   7.706  0.1871 -0.0449 -0.1937
  881loPI   C4A12742  16.633   1.857   8.145 -0.2281  0.1184  0.2026
  881loPI   C5A12743  16.688   1.554   8.408  0.0759  0.1220 -0.0253
  881loPI   C6A12744  16.471   1.193   8.372  0.0031 -0.0638 -0.0091
  881loPI   C1B12745  17.008   1.714   6.960  0.0735 -0.3820  0.2072
  881loPI   C2B12746  16.959   1.694   7.433 -0.5061  0.2167  0.1486
  881loPI   C3B12747  17.159   1.615   7.888  0.0173 -0.2878 -0.0055
  881loPI   C4B12748  17.103   1.621   8.264 -0.3639 -0.1361  0.1845
  882loPI    C112749   5.841   0.354   6.005 -0.0658  0.0322  0.0317
  882loPI    C212750   6.000   0.399   5.640 -0.0680 -0.0616  0.0189
  882loPI    C312751   5.689   0.623   5.752  0.0103  0.0534  0.0079
  882loPI   PO412752   6.046   0.400   6.190  0.0907  0.4127 -0.1265
  882loPI   GL112753   6.364   0.327   6.557 -0.0929 -0.1128 -0.1897
  882loPI   GL212754   6.454   0.047   6.541 -0.1760  0.2442  0.2549
  882loPI   C1A12755   6.201   0.110   7.020 -0.0733 -0.0728 -0.0272
  882loPI   C2A12756   6.123   0.000   7.473  0.3106 -0.1006 -0.0190
  882loPI   C3A12757   6.328  -0.021   7.774  0.0499 -0.2099 -0.0004
  882loPI   C4A12758   6.335   0.068   8.213  0.3354  0.0483  0.0744
  882loPI   C5A12759   6.292   0.369   8.492 -0.0777 -0.3794  0.0487
  882loPI   C6A12760   6.002   0.779   8.386 -0.1678 -0.0296  0.4276
  882loPI   C1B12761   6.695   0.115   6.941  0.1112  0.0981  0.1985
  882loPI   C2B12762   6.616   0.148   7.353 -0.4122 -0.4318  0.2141
  882loPI   C3B12763   6.750   0.255   7.753  0.2724  0.0232  0.2139
  882loPI   C4B12764   6.773   0.005   8.094 -0.1874  0.1939  0.0101
  883loPI    C112765  16.234  13.308   4.963 -0.3150  0.3368  0.1699
  883loPI    C212766  16.448  13.435   4.650  0.0385 -0.0830  0.2314
  883loPI    C312767  16.069  13.318   4.598  0.0317  0.0351 -0.0013
  883loPI   PO412768  16.423  13.077   5.104  0.0043  0.0144  0.0328
  883loPI   GL112769  16.509  12.801   5.479  0.1340  0.0350 -0.0164
  883loPI   GL212770  16.265  12.557   5.424  0.0092  0.0070  0.2830
  883loPI   C1A12771  16.597  13.110   5.844 -0.2502  0.2698  0.3191
  883loPI   C2A12772  16.647  13.108   6.215  0.2328 -0.0274 -0.2690
  883loPI   C3A12773  16.649  12.976   6.651 -0.2679  0.1723  0.2848
  883loPI   C4A12774  16.736  12.920   7.146 -0.3542  0.1996  0.0869
  883loPI   C5A12775  16.638  12.933   7.589 -0.1631 -0.0080  0.1935
  883loPI   C6A12776  16.702  12.726   8.017 -0.0875 -0.0419  0.1538
  883loPI   C1B12777  16.143  12.707   5.866  0.2616  0.0334 -0.0712
  883loPI   C2B12778  16.184  12.766   6.268 -0.0194 -0.1832  0.0214
  883loPI   C3B12779  16.189  12.699   6.734 -0.1969 -0.1853 -0.0037
  883loPI   C4B12780  16.263  12.702   7.186 -0.3035 -0.3760 -0.1089
  884loPI    C112781   1.640  10.205   5.302  0.2564 -0.2227  0.0203
  884loPI    C212782   1.360  10.288   5.028 -0.0291 -0.0587  0.3534
  884loPI    C312783   1.746  10.274   4.922 -0.1565 -0.2723 -0.1089
  884loPI   PO412784   1.489  10.047   5.462  0.1059 -0.0382 -0.1238
  884loPI   GL112785   1.375  10.115   5.867 -0.0715  0.1021 -0.2069
  884loPI   GL212786   1.679  10.237   5.877  0.1444 -0.0360  0.0288
  884loPI   C1A12787   1.406  10.170   6.351  0.0294  0.0172 -0.0352
  884loPI   C2A12788   1.464  10.269   6.803 -0.2545 -0.4291  0.0526
  884loPI   C3A12789   1.500  10.371   7.156 -0.1616 -0.3299  0.1810
  884loPI   C4A12790   1.442  10.263   7.581 -0.1528 -0.1427 -0.0281
  884loPI   C5A12791   1.125   9.892   7.735 -0.1700  0.2087 -0.1100
  884loPI   C6A12792   0.968   9.539   7.713  0.1935 -0.0618 -0.2987
  884loPI   C1B12793   1.960  10.415   6.148  0.2253 -0.1266  0.1962
  884loPI   C2B12794   1.900  10.517   6.583  0.2177  0.1960 -0.3024
  884loPI   C3B12795   1.955  10.602   7.004 -0.1901 -0.1017 -0.2096
  884loPI   C4B12796   1.867  10.590   7.502  0.2190 -0.0100 -0.1142
  885loPI    C112797   2.125  11.229   5.399  0.0431  0.2647  0.2671
  885loPI    C212798   1.751  11.204   5.539  0.0177  0.1507  0.1804
  885loPI    C312799   1.843  11.476   5.260 -0.1331 -0.1821 -0.2049
  885loPI   PO412800   2.303  11.202   5.643 -0.0087 -0.1733 -0.3456
  885loPI   GL112801   2.242  11.281   6.077 -0.1379 -0.1156  0.1459
  885loPI   GL212802   1.979  11.443   5.993  0.0286 -0.1998  0.0745
  885loPI   C1A12803   2.307  11.233   6.432  0.1053  0.0312 -0.1075
  885loPI   C2A12804   2.348  11.291   6.782  0.1193  0.2736 -0.0452
  885loPI   C3A12805   2.335  11.346   7.187  0.0229  0.0016  0.1120
  885loPI   C4A12806   2.407  11.379   7.559  0.1151 -0.3331 -0.1282
  885loPI   C5A12807   2.335  11.328   7.985  0.1116 -0.2132  0.0385
  885loPI   C6A12808   2.498  11.365   8.323 -0.2032  0.0526  0.0055
  885loPI   C1B12809   1.906  11.468   6.405 -0.0986 -0.2119 -0.0866
  885loPI   C2B12810   1.832  11.628   6.861  0.0149  0.3212  0.2047
  885loPI   C3B12811   1.919  11.574   7.329  0.1703 -0.1079 -0.3764
  885loPI   C4B12812   1.914  11.583   7.771  0.2211  0.1522  0.4249
  886loPI    C112813   0.769  12.301   5.292  0.0097 -0.0752 -0.4180
  886loPI    C212814   0.469  12.417   5.055 -0.2567  0.2512  0.0630
  886loPI    C312815   0.812  12.623   5.060 -0.1802  0.1325 -0.1703
  886loPI   PO412816   0.710  12.339   5.617  0.0577  0.2867  0.0156
  886loPI   GL112817   0.600  12.483   6.025 -0.2014 -0.1912  0.0507
  886loPI   GL212818   0.643  12.804   5.887 -0.3061 -0.0951 -0.1790
  886loPI   C1A12819   0.496  12.434   6.512 -0.0227 -0.1343 -0.2534
  886loPI   C2A12820   0.573  12.507   6.993 -0.0297  0.0530 -0.0068
  886loPI   C3A12821   0.699  12.387   7.414 -0.0796 -0.2241 -0.0061
  886loPI   C4A12822   1.002  12.491   7.762 -0.0136 -0.1748 -0.0136
  886loPI   C5A12823   0.959  12.445   8.149  0.1082  0.0275  0.4843
  886loPI   C6A12824   0.753  12.152   8.350 -0.3446  0.3939  0.3245
  886loPI   C1B12825   0.552  12.973   6.331 -0.1771  0.0615 -0.1712
  886loPI   C2B12826   0.550  12.986   6.710 -0.0377 -0.1025 -0.0647
  886loPI   C3B12827   0.578  13.006   7.129 -0.0831 -0.0898  0.1115
  886loPI   C4B12828   0.735  12.933   7.546 -0.4769 -0.2756  0.0492
  887loPI    C112829  14.518  12.272   5.630  0.0211 -0.0704  0.1219
  887loPI    C212830  14.401  12.642   5.729  0.0972 -0.0318  0.0688
  887loPI    C312831  14.278  12.478   5.385  0.0023 -0.0853  0.1278
  887loPI   PO412832  14.443  12.117   5.836 -0.2989  0.0713  0.0165
  887loPI   GL112833  14.381  12.218   6.225 -0.0112  0.1685  0.1218
  887loPI   GL212834  14.696  12.027   6.355 -0.2185  0.0313  0.2120
  887loPI   C1A12835  14.291  12.269   6.682 -0.0798  0.1053  0.1241
  887loPI   C2A12836  14.383  12.177   7.089  0.2925 -0.3975 -0.0508
  887loPI   C3A12837  14.302  12.204   7.531  0.1029  0.1930  0.1631
  887loPI   C4A12838  14.089  12.229   8.031 -0.2505 -0.2403  0.1255
  887loPI   C5A12839  13.784  12.146   8.287 -0.5277 -0.1093  0.0325
  887loPI   C6A12840  13.319  12.114   8.576  0.1216 -0.1985 -0.0206
  887loPI   C1B12841  14.814  11.981   6.819  0.2779  0.1219 -0.2761
  887loPI   C2B12842  14.840  11.985   7.227  0.1736 -0.1999 -0.3961
  887loPI   C3B12843  14.750  11.968   7.655  0.1738 -0.1508 -0.0876
  887loPI   C4B12844  14.619  12.110   8.130 -0.2600  0.1550  0.0844
  888loPI    C112845  13.372   4.452   5.864  0.1568 -0.0453  0.1217
  888loPI    C212846  13.362   4.539   5.474 -0.1338  0.1488  0.1699
  888loPI    C312847  13.340   4.158   5.594 -0.1502  0.0957  0.0011
  888loPI   PO412848  13.198   4.613   5.973  0.1271  0.1946  0.0627
  888loPI   GL112849  13.087   4.754   6.398 -0.1369 -0.2223 -0.0351
  888loPI   GL212850  12.746   4.834   6.438 -0.0542  0.1801 -0.4075
  888loPI   C1A12851  13.030   4.404   6.646  0.0204 -0.0728 -0.2027
  888loPI   C2A12852  13.028   4.222   7.082 -0.2098 -0.2903  0.2518
  888loPI   C3A12853  13.056   4.328   7.558  0.0287  0.0268 -0.0912
  888loPI   C4A12854  12.836   4.492   7.888 -0.3589 -0.1283  0.1425
  888loPI   C5A12855  12.404   4.764   8.082 -0.0509  0.1230  0.1424
  888loPI   C6A12856  11.910   4.741   8.244  0.0528  0.0224  0.2505
  888loPI   C1B12857  12.899   4.750   6.920  0.0960  0.1975  0.1300
  888loPI   C2B12858  12.921   4.740   7.320 -0.2619  0.3559 -0.1929
  888loPI   C3B12859  12.851   4.978   7.822  0.0599 -0.0836  0.0554
  888loPI   C4B12860  12.850   5.435   7.757 -0.0792  0.2022  0.5385
  889loPI    C112861  13.487   2.584   5.414  0.0568  0.0696  0.0591
  889loPI    C212862  13.690   2.284   5.583  0.0179  0.0591  0.0875
  889loPI    C312863  13.648   2.298   5.185 -0.2362 -0.1367  0.1050
  889loPI   PO412864  13.418   2.729   5.729  0.2956 -0.2185 -0.3882
  889loPI   GL112865  13.386   2.461   6.176  0.0767 -0.1511  0.0426
  889loPI   GL212866  13.174   2.810   6.218  0.1332 -0.0931 -0.1111
  889loPI   C1A12867  13.397   2.345   6.491  0.0799 -0.0974 -0.2274
  889loPI   C2A12868  13.266   2.279   6.939 -0.0616 -0.2219 -0.1361
  889loPI   C3A12869  13.307   2.301   7.420 -0.0982 -0.1228 -0.1444
  889loPI   C4A12870  13.682   2.368   7.790  0.1653  0.0725 -0.2642
  889loPI   C5A12871  13.909   2.302   8.189 -0.2204 -0.1308 -0.1697
  889loPI   C6A12872  13.866   2.293   8.597  0.2154 -0.0427  0.0723
  889loPI   C1B12873  13.174   2.781   6.632 -0.2468 -0.2631 -0.1914
  889loPI   C2B12874  13.112   2.750   7.067  0.0623  0.2117 -0.0053
  889loPI   C3B12875  13.045   2.698   7.509  0.0412  0.1037  0.1348
  889loPI   C4B12876  12.723   2.681   7.892  0.3197  0.1739 -0.2418
  890loPI    C112877  10.892  10.563   5.954  0.1208 -0.1825  0.1151
  890loPI    C212878  10.646  10.547   6.268 -0.1321 -0.1723 -0.0791
  890loPI    C312879  10.531  10.734   5.934  0.1989 -0.0395 -0.1223
  890loPI   PO412880  11.007  10.324   5.953  0.0687  0.0696 -0.3903
  890loPI   GL112881  10.735  10.107   6.102  0.2366 -0.2590 -0.2051
  890loPI   GL212882  10.769   9.781   6.258  0.0528 -0.0554 -0.0200
  890loPI   C1A12883  10.945  10.280   6.542 -0.3628 -0.1422 -0.0266
  890loPI   C2A12884  11.270  10.184   6.825  0.0732  0.0993 -0.1570
  890loPI   C3A12885  11.436  10.054   7.165 -0.0973  0.2209  0.1639
  890loPI   C4A12886  11.398   9.753   7.540  0.0703 -0.1255  0.1432
  890loPI   C5A12887  11.505   9.390   8.021 -0.1461  0.1861  0.1305
  890loPI   C6A12888  11.646   9.338   8.499  0.2721 -0.2224 -0.0659
  890loPI   C1B12889  10.714   9.749   6.669 -0.2687  0.0112 -0.1151
  890loPI   C2B12890  10.727   9.583   7.075 -0.2812  0.2719  0.1458
  890loPI   C3B12891  10.983   9.464   7.547  0.0739  0.1999 -0.0066
  890loPI   C4B12892  11.015   9.579   7.981  0.2902  0.1679  0.1582
  891loPI    C112893  12.654  12.877   5.580 -0.0676  0.0850  0.0355
  891loPI    C212894  12.329  12.646   5.561  0.0167 -0.0424  0.1247
  891loPI    C312895  12.582  12.661   5.252 -0.2175  0.2729 -0.0569
  891loPI   PO412896  12.689  12.810   5.834 -0.2323  0.4250 -0.1320
  891loPI   GL112897  12.735  12.907   6.287  0.0211 -0.0778 -0.1701
  891loPI   GL212898  12.539  12.801   6.494 -0.2644  0.2237 -0.1417
  891loPI   C1A12899  12.966  12.830   6.673  0.1824 -0.0889  0.1471
  891loPI   C2A12900  13.011  12.934   7.050 -0.0901  0.3296 -0.3208
  891loPI   C3A12901  13.007  12.745   7.467  0.0077  0.0851 -0.0898
  891loPI   C4A12902  13.000  12.516   7.879  0.0842  0.2971  0.0668
  891loPI   C5A12903  13.254  12.406   8.203 -0.1560  0.0718  0.2277
  891loPI   C6A12904  13.420  12.570   8.688  0.1339 -0.1486 -0.1671
  891loPI   C1B12905  12.607  12.517   6.719 -0.0385 -0.0657 -0.0039
  891loPI   C2B12906  12.808  12.491   7.077  0.0068  0.2917  0.0418
  891loPI   C3B12907  12.542  12.616   7.360  0.0270  0.1802 -0.1304
  891loPI   C4B12908  12.564  12.798   7.779 -0.2875  0.4097 -0.1160
  892loPI    C112909   7.564   5.356   5.987 -0.1146 -0.1438 -0.1288
  892loPI    C212910   7.704   5.370   5.613  0.1967  0.1497 -0.0069
  892loPI    C312911   7.337   5.507   5.695  0.1250  0.0795 -0.2031
  892loPI   PO412912   7.598   5.057   6.036 -0.0387 -0.0469 -0.0168
  892loPI   GL112913   7.704   4.775   6.341  0.1509  0.0487 -0.0111
  892loPI   GL212914   7.444   5.006   6.493  0.3564 -0.2512 -0.0417
  892loPI   C1A12915   7.584   4.483   6.548 -0.2130 -0.0918  0.0040
  892loPI   C2A12916   7.741   4.512   6.912 -0.0416 -0.0979  0.1072
  892loPI   C3A12917   7.724   4.545   7.293 -0.0539  0.2834 -0.3986
  892loPI   C4A12918   7.729   4.379   7.663  0.3608  0.0862 -0.4498
  892loPI   C5A12919   7.489   4.137   7.984 -0.0109  0.3177  0.0695
  892loPI   C6A12920   7.347   4.148   8.349  0.0499 -0.0568  0.0377
  892loPI   C1B12921   7.418   4.907   6.948 -0.4236  0.1716 -0.1419
  892loPI   C2B12922   7.379   4.985   7.351 -0.1794  0.0876  0.1400
  892loPI   C3B12923   7.521   4.843   7.729  0.0660 -0.2313 -0.6129
  892loPI   C4B12924   7.528   4.675   8.068 -0.2255 -0.0366 -0.0134
  893loPI    C112925   8.660   7.866   5.822  0.0632 -0.1989  0.1396
  893loPI    C212926   9.052   7.946   5.825  0.0459 -0.1092  0.0577
  893loPI    C312927   8.905   7.677   5.568  0.0252  0.0069 -0.0532
  893loPI   PO412928   8.632   8.086   6.034 -0.4510  0.0315 -0.0176
  893loPI   GL112929   8.458   8.096   6.398 -0.0672  0.4574 -0.1886
  893loPI   GL212930   8.214   7.862   6.583 -0.0814 -0.0931  0.1503
  893loPI   C1A12931   8.375   8.350   6.667 -0.4035 -0.0913  0.0784
  893loPI   C2A12932   8.144   8.515   6.881 -0.1824  0.0782 -0.1730
  893loPI   C3A12933   7.812   8.414   7.201  0.1628  0.0738 -0.0309
  893loPI   C4A12934   7.692   8.425   7.642 -0.0360 -0.3279  0.3309
  893loPI   C5A12935   7.810   8.454   8.100 -0.1049 -0.0957 -0.1710
  893loPI   C6A12936   8.015   8.441   8.425 -0.0230  0.0407 -0.0306
  893loPI   C1B12937   8.450   7.964   6.959  0.2097 -0.0155  0.1678
  893loPI   C2B12938   8.754   7.991   7.329  0.3614  0.1810 -0.1446
  893loPI   C3B12939   8.936   8.046   7.812  0.5473 -0.1812 -0.1303
  893loPI   C4B12940   9.005   7.906   8.297 -0.1123  0.0101  0.2108
  894loPI    C112941  10.333   7.433   5.449 -0.0168 -0.1656 -0.0061
  894loPI    C212942   9.966   7.417   5.292  0.0171  0.0992 -0.1187
  894loPI    C312943  10.254   7.622   5.105  0.1605  0.0929  0.0917
  894loPI   PO412944  10.297   7.274   5.645  0.0707 -0.1209  0.1476
  894loPI   GL112945  10.472   6.996   5.909 -0.0881 -0.1721 -0.0234
  894loPI   GL212946  10.256   7.117   6.148  0.0281 -0.2571 -0.2509
  894loPI   C1A12947  10.631   6.972   6.347 -0.2429  0.0390  0.0481
  894loPI   C2A12948  10.689   6.988   6.758 -0.0175  0.1434  0.3297
  894loPI   C3A12949  10.756   6.906   7.128  0.0671  0.1462 -0.0104
  894loPI   C4A12950  10.811   6.897   7.598 -0.1110  0.4488  0.1652
  894loPI   C5A12951  10.880   7.112   7.992  0.1576  0.0164  0.0363
  894loPI   C6A12952  10.735   7.383   8.256  0.0711 -0.0516 -0.0494
  894loPI   C1B12953  10.137   7.083   6.680 -0.1002 -0.2374 -0.0914
  894loPI   C2B12954  10.292   7.165   7.109  0.4717  0.1384 -0.1068
  894loPI   C3B12955  10.365   7.134   7.479 -0.1049 -0.1316 -0.1929
  894loPI   C4B12956  10.367   7.115   7.885  0.1820  0.0765  0.0339
  895loPI    C112957  14.408  15.158   5.728  0.0760 -0.0928  0.0656
  895loPI    C212958  14.621  15.440   5.539 -0.0399 -0.0646 -0.0245
  895loPI    C312959  14.607  15.067   5.393  0.0581 -0.1007  0.0571
  895loPI   PO412960  14.293  15.251   5.950  0.1652  0.0378  0.0201
  895loPI   GL112961  14.234  15.545   6.257  0.0094  0.0234  0.0824
  895loPI   GL212962  14.014  15.610   6.429  0.0779  0.3995 -0.1043
  895loPI   C1A12963  14.272  15.182   6.594 -0.1028 -0.1695  0.3446
  895loPI   C2A12964  14.347  15.109   7.037 -0.0389  0.0371  0.1969
  895loPI   C3A12965  14.385  14.946   7.424 -0.2558 -0.1050 -0.1442
  895loPI   C4A12966  14.279  15.008   7.824  0.1494 -0.0794 -0.3365
  895loPI   C5A12967  14.032  14.971   8.234  0.2126  0.1478 -0.0344
  895loPI   C6A12968  13.775  15.220   8.433 -0.0248 -0.4219 -0.0565
  895loPI   C1B12969  14.036  15.554   6.924  0.0205 -0.2068 -0.0088
  895loPI   C2B12970  14.078  15.499   7.317 -0.4968 -0.0595  0.0685
  895loPI   C3B12971  14.227  15.628   7.680  0.0867  0.0833 -0.0149
  895loPI   C4B12972  14.277  15.423   8.221 -0.3146 -0.0895  0.2290
  896loPI    C112973   5.699  13.693   5.666  0.3064 -0.0853 -0.0962
  896loPI    C212974   5.670  14.091   5.652  0.1400 -0.0952 -0.0529
  896loPI    C312975   5.741  13.885   5.317  0.1585 -0.0346 -0.0866
  896loPI   PO412976   5.860  13.672   5.805 -0.0594  0.0747 -0.2362
  896loPI   GL112977   5.923  13.528   6.217 -0.0589  0.0291 -0.1239
  896loPI   GL212978   5.642  13.551   6.401  0.1336 -0.0171  0.2297
  896loPI   C1A12979   6.039  13.784   6.594  0.1498 -0.1421  0.3611
  896loPI   C2A12980   5.857  13.861   6.963 -0.0187 -0.0104  0.0971
  896loPI   C3A12981   5.815  13.668   7.361 -0.1565  0.3055 -0.1356
  896loPI   C4A12982   5.756  13.583   7.776  0.1789  0.0179 -0.0321
  896loPI   C5A12983   5.368  13.581   8.127  0.1840  0.3246 -0.1970
  896loPI   C6A12984   5.445  13.410   8.644  0.0918  0.2676 -0.1051
  896loPI   C1B12985   5.561  13.422   6.895  0.1003  0.2427 -0.0519
  896loPI   C2B12986   5.495  13.301   7.261  0.1061 -0.1203 -0.1302
  896loPI   C3B12987   5.395  13.233   7.711 -0.0042 -0.2456 -0.2304
  896loPI   C4B12988   5.630  13.072   7.958 -0.1271  0.0488  0.0773
  897loPI    C112989   0.312   2.336   5.695 -0.0100 -0.0214  0.0675
  897loPI    C212990   0.465   2.137   5.384  0.0314 -0.0413  0.1006
  897loPI    C312991   0.707   2.333   5.635 -0.0220  0.2024 -0.0346
  897loPI   PO412992   0.054   2.189   5.845  0.1263  0.3689 -0.0808
  897loPI   GL112993   0.020   2.300   6.265  0.4634  0.3505  0.1479
  897loPI   GL212994   0.148   2.058   6.350 -0.0470 -0.1069  0.1992
  897loPI   C1A12995  -0.104   2.248   6.702 -0.1083 -0.0910 -0.1727
  897loPI   C2A12996  -0.151   2.276   7.106  0.1011  0.0418 -0.3724
  897loPI   C3A12997  -0.073   2.285   7.594 -0.1381  0.0095  0.2032
  897loPI   C4A12998  -0.053   2.226   8.004  0.0093  0.2035 -0.1110
  897loPI   C5A12999   0.138   2.166   8.383  0.1895  0.2431  0.1165
  897loPI   C6A13000   0.597   2.109   8.566 -0.2979  0.1392  0.0275
  897loPI   C1B13001   0.388   2.273   6.642 -0.0241  0.1784 -0.4531
  897loPI   C2B13002   0.297   2.397   6.931  0.0197 -0.1457 -0.2588
  897loPI   C3B13003   0.351   2.451   7.335  0.2297  0.0328 -0.3984
  897loPI   C4B13004   0.363   2.468   7.796 -0.2857 -0.0100 -0.3417
  898loPI    C113005  14.923   5.327   6.034  0.0422  0.0568 -0.1864
  898loPI    C213006  15.030   5.096   5.725  0.2622 -0.1165  0.0156
  898loPI    C313007  15.163   5.472   5.749 -0.0292  0.0096 -0.2711
  898loPI   PO413008  14.925   5.149   6.220 -0.3874 -0.2174  0.0225
  898loPI   GL113009  15.148   5.302   6.559 -0.0070  0.0286  0.1951
  898loPI   GL213010  15.357   5.090   6.482 -0.1555  0.3351 -0.0930
  898loPI   C1A13011  14.931   5.281   6.943 -0.1808 -0.2860 -0.0218
  898loPI   C2A13012  15.105   5.332   7.364  0.0468 -0.1120  0.0172
  898loPI   C3A13013  15.193   5.117   7.725 -0.0970 -0.0853 -0.1089
  898loPI   C4A13014  15.382   4.880   8.065  0.0369 -0.1264  0.0695
  898loPI   C5A13015  15.690   4.982   8.264 -0.0750 -0.1156 -0.1536
  898loPI   C6A13016  16.147   5.217   8.180 -0.0453  0.1515  0.1769
  898loPI   C1B13017  15.331   4.834   6.858 -0.0268 -0.0300 -0.1281
  898loPI   C2B13018  15.333   4.896   7.268 -0.1386  0.5555 -0.1065
  898loPI   C3B13019  15.552   4.759   7.608  0.2768 -0.0230  0.1838
  898loPI   C4B13020  15.992   4.772   7.790  0.2611 -0.0136  0.0180
  899loPI    C113021  11.107  14.831   6.042 -0.0177 -0.0308 -0.1299
  899loPI    C213022  11.416  14.776   5.794  0.0315 -0.0488 -0.0653
  899loPI    C313023  11.334  15.142   5.935 -0.1187 -0.0033 -0.2658
  899loPI   PO413024  11.147  14.725   6.262  0.1148  0.3448  0.2753
  899loPI   GL113025  11.337  14.649   6.707 -0.0888  0.4369  0.0732
  899loPI   GL213026  11.364  14.328   6.680 -0.0401  0.2242  0.0074
  899loPI   C1A13027  11.233  14.868   7.139 -0.1120 -0.2382  0.2940
  899loPI   C2A13028  11.165  14.981   7.575 -0.0914  0.2274  0.1625
  899loPI   C3A13029  11.298  15.012   7.979  0.0852  0.1699 -0.1554
  899loPI   C4A13030  11.311  14.924   8.398  0.2116  0.1201  0.0755
  899loPI   C5A13031  11.432  15.064   8.778  0.1803  0.1840 -0.0920
  899loPI   C6A13032  11.534  15.007   9.312 -0.0223 -0.0581  0.0610
  899loPI   C1B13033  11.129  14.400   7.046  0.0517 -0.0032  0.0094
  899loPI   C2B13034  11.073  14.517   7.508 -0.1992  0.1030  0.2687
  899loPI   C3B13035  10.848  14.636   7.897  0.0968  0.1584  0.1177
  899loPI   C4B13036  10.859  14.826   8.288 -0.2091 -0.2573 -0.1391
  900loPI    C113037   7.100  12.653   5.871 -0.0097 -0.0286  0.1104
  900loPI    C213038   7.322  12.363   5.707 -0.2236 -0.1225 -0.0178
  900loPI    C313039   7.495  12.704   5.825  0.0144 -0.2613  0.0430
  900loPI   PO413040   6.973  12.514   6.099  0.0773 -0.0734 -0.0348
  900loPI   GL113041   7.044  12.435   6.416  0.0076  0.2362 -0.1184
  900loPI   GL213042   7.405  12.633   6.394 -0.1058  0.0637 -0.1434
  900loPI   C1A13043   6.703  12.526   6.733 -0.0667 -0.3078 -0.0182
  900loPI   C2A13044   6.570  12.661   7.209 -0.0439  0.4377 -0.2753
  900loPI   C3A13045   6.733  12.588   7.591  0.0993 -0.1970  0.1571
  900loPI   C4A13046   6.943  12.712   7.929  0.0916  0.1269 -0.4230
  900loPI   C5A13047   7.185  12.796   8.251  0.1044 -0.1891  0.2012
  900loPI   C6A13048   7.668  12.865   8.223  0.2763  0.1844  0.3177
  900loPI   C1B13049   7.631  12.834   6.705  0.1990 -0.0742  0.5201
  900loPI   C2B13050   7.680  12.799   7.055 -0.1663  0.1676 -0.0009
  900loPI   C3B13051   7.719  12.879   7.473 -0.0416 -0.2554 -0.2062
  900loPI   C4B13052   7.484  12.826   7.758 -0.1028 -0.4304  0.0158
  901loPI    C113053   8.743  15.162   5.435  0.0175 -0.0663  0.3046
  901loPI    C213054   9.013  15.140   5.140 -0.0014  0.4320  0.2411
  901loPI    C313055   8.654  14.969   5.095  0.1527  0.1212  0.1604
  901loPI   PO413056   8.882  15.154   5.677  0.2383 -0.0424  0.2340
  901loPI   GL113057   8.773  15.254   6.084  0.1203 -0.2534  0.2004
  901loPI   GL213058   9.070  15.166   6.157  0.2868 -0.0676  0.0956
  901loPI   C1A13059   8.714  15.092   6.516  0.0450 -0.1494 -0.0784
  901loPI   C2A13060   8.645  15.091   6.912 -0.1933  0.2551  0.1566
  901loPI   C3A13061   8.697  14.991   7.342 -0.2595  0.1785 -0.2205
  901loPI   C4A13062   8.698  14.840   7.730  0.0234 -0.0664 -0.2097
  901loPI   C5A13063   8.831  14.822   8.142 -0.0336  0.1815  0.2533
  901loPI   C6A13064   9.196  14.958   8.385  0.1114 -0.0903  0.1154
  901loPI   C1B13065   9.198  15.181   6.581 -0.1471 -0.0164 -0.0834
  901loPI   C2B13066   9.087  14.901   6.887 -0.3442  0.0382  0.1763
  901loPI   C3B13067   8.843  14.477   7.078 -0.1561 -0.1762  0.0736
  901loPI   C4B13068   8.735  14.381   7.487 -0.0926  0.0745  0.0713
  902loPI    C113069   6.926   6.156   5.827  0.0599 -0.1309 -0.2568
  902loPI    C213070   7.288   6.103   5.667  0.0700  0.0782 -0.3065
  902loPI    C313071   7.006   6.298   5.462 -0.0642 -0.0639 -0.2584
  902loPI   PO413072   6.780   5.864   5.806 -0.3073 -0.1270  0.2414
  902loPI   GL113073   6.878   5.466   6.051 -0.3669 -0.1620  0.2903
  902loPI   GL213074   6.999   5.187   6.019 -0.1917 -0.2028  0.1544
  902loPI   C1A13075   6.730   5.560   6.554 -0.1737 -0.0256  0.0583
  902loPI   C2A13076   6.754   5.601   7.012 -0.2006 -0.0694 -0.1302
  902loPI   C3A13077   6.864   5.727   7.466  0.0289 -0.0108  0.1931
  902loPI   C4A13078   6.785   5.742   7.940  0.2550 -0.1375  0.1289
  902loPI   C5A13079   6.494   5.833   8.259 -0.0824  0.2986 -0.0219
  902loPI   C6A13080   5.998   5.835   8.263 -0.0998  0.0277 -0.2228
  902loPI   C1B13081   6.934   5.137   6.430 -0.2251  0.3964  0.1808
  902loPI   C2B13082   6.906   5.152   6.940  0.1429  0.0261 -0.1910
  902loPI   C3B13083   6.919   5.226   7.367 -0.2020  0.2419  0.1508
  902loPI   C4B13084   6.667   5.178   7.664 -0.0200  0.2762  0.1447
  903loPI    C113085  11.438  10.163   5.715 -0.1461  0.0213  0.0701
  903loPI    C213086  11.407   9.971   5.366  0.0314  0.1279 -0.0058
  903loPI    C313087  11.119  10.224   5.482 -0.0517  0.0547 -0.0516
  903loPI   PO413088  11.552  10.083   5.899 -0.1917  0.1828  0.1329
  903loPI   GL113089  11.740  10.035   6.278  0.2289  0.1005  0.6791
  903loPI   GL213090  11.817   9.793   6.518  0.1216  0.0779  0.1395
  903loPI   C1A13091  11.741  10.219   6.713 -0.0740  0.0734 -0.1043
  903loPI   C2A13092  11.952  10.511   6.949  0.1012 -0.0357 -0.1073
  903loPI   C3A13093  11.781  10.480   7.317 -0.0732  0.1400 -0.4092
  903loPI   C4A13094  11.546  10.255   7.696 -0.0132  0.1549 -0.0064
  903loPI   C5A13095  11.569   9.935   8.066 -0.3759  0.1868  0.1233
  903loPI   C6A13096  11.342   9.765   8.420 -0.2182 -0.0433 -0.1674
  903loPI   C1B13097  11.828   9.785   6.994  0.3832 -0.1845 -0.2975
  903loPI   C2B13098  11.872   9.962   7.369  0.0831 -0.0769 -0.0958
  903loPI   C3B13099  11.996  10.028   7.743  0.1422 -0.0179 -0.1630
  903loPI   C4B13100  11.946  10.294   8.119 -0.1279  0.4071 -0.1000
  904loPI    C113101  11.299   7.290   5.588  0.0667  0.0239  0.2039
  904loPI    C213102  11.172   6.913   5.548  0.0279  0.0501  0.0768
  904loPI    C313103  11.468   7.050   5.316  0.1608  0.0462  0.2424
  904loPI   PO413104  11.311   7.345   5.787  0.0074 -0.0038  0.2785
  904loPI   GL113105  11.510   7.403   6.084 -0.3013  0.1853 -0.2557
  904loPI   GL213106  11.749   7.519   5.874 -0.1419  0.2049 -0.1814
  904loPI   C1A13107  11.642   7.360   6.483  0.2749  0.0295  0.2310
  904loPI   C2A13108  11.635   7.435   6.858 -0.0181  0.2730  0.2530
  904loPI   C3A13109  11.641   7.381   7.296 -0.0831  0.2770  0.0200
  904loPI   C4A13110  11.838   7.276   7.642  0.0870 -0.1298 -0.2027
  904loPI   C5A13111  11.840   7.044   8.057  0.3023  0.0060 -0.0287
  904loPI   C6A13112  12.008   6.699   8.289 -0.0465 -0.1083 -0.0319
  904loPI   C1B13113  12.149   7.555   6.219 -0.1555 -0.0865 -0.3360
  904loPI   C2B13114  12.136   7.562   6.661  0.3048  0.0610  0.1839
  904loPI   C3B13115  12.122   7.565   7.104  0.3668 -0.2852  0.0991
  904loPI   C4B13116  12.265   7.532   7.531 -0.1579  0.1569 -0.0689
  905loPI    C113117   1.938   8.171   5.357  0.1635  0.2117 -0.0152
  905loPI    C213118   2.271   8.292   5.172  0.1153  0.0315 -0.2226
  905loPI    C313119   1.918   8.321   4.987  0.0334  0.0890 -0.0585
  905loPI   PO413120   2.051   8.191   5.645  0.0381 -0.2602 -0.1206
  905loPI   GL113121   1.950   8.307   6.023 -0.0765 -0.0075  0.0131
  905loPI   GL213122   2.143   8.183   6.176 -0.0296  0.3881 -0.1601
  905loPI   C1A13123   1.715   8.290   6.385 -0.1094 -0.0689 -0.0780
  905loPI   C2A13124   1.788   8.295   6.767 -0.2399  0.1537  0.0161
  905loPI   C3A13125   1.748   8.442   7.174 -0.3780  0.1910 -0.0405
  905loPI   C4A13126   1.457   8.408   7.482  0.2628  0.2707 -0.1445
  905loPI   C5A13127   1.487   8.282   7.898 -0.1163  0.0709 -0.0647
  905loPI   C6A13128   1.427   8.356   8.419 -0.2477  0.1391  0.4392
  905loPI   C1B13129   2.315   8.309   6.582  0.1289  0.4504 -0.1535
  905loPI   C2B13130   2.192   8.335   7.024  0.0395  0.2094  0.1102
  905loPI   C3B13131   2.248   8.220   7.389 -0.3326  0.0998 -0.0824
  905loPI   C4B13132   2.225   7.877   7.751 -0.1771 -0.1851  0.2747
  906loPI    C113133   8.763  17.772   5.348  0.1586 -0.1806 -0.0794
  906loPI    C213134   8.766  17.963   4.997  0.3701  0.1646  0.1045
  906loPI    C313135   9.098  17.784   5.130  0.3053  0.0798  0.1536
  906loPI   PO413136   8.687  17.888   5.578  0.0559  0.0553 -0.1224
  906loPI   GL113137   8.718  17.760   5.956  0.3322  0.0328  0.0432
  906loPI   GL213138   8.970  17.964   6.036 -0.4716 -0.1607  0.2005
  906loPI   C1A13139   8.414  17.818   6.278  0.0195 -0.2855 -0.1718
  906loPI   C2A13140   7.956  17.781   6.497  0.0695  0.1667  0.0263
  906loPI   C3A13141   7.868  17.583   6.912  0.1734 -0.3788  0.2233
  906loPI   C4A13142   7.878  17.561   7.379  0.0745  0.1085  0.1412
  906loPI   C5A13143   8.096  17.647   7.730  0.0746  0.2937 -0.2903
  906loPI   C6A13144   7.899  17.784   8.050 -0.2945 -0.1822 -0.0352
  906loPI   C1B13145   8.926  17.864   6.418 -0.2029  0.1478 -0.0249
  906loPI   C2B13146   8.942  17.834   6.861 -0.0419 -0.2297  0.0356
  906loPI   C3B13147   9.033  17.764   7.264  0.0574 -0.2331 -0.1325
  906loPI   C4B13148   8.973  17.680   7.672  0.1536 -0.3614  0.1036
  907loPI    C113149   2.543   3.249   5.534  0.0026  0.0569  0.1610
  907loPI    C213150   2.179   3.086   5.521 -0.0265  0.1381 -0.1331
  907loPI    C313151   2.500   2.867   5.425 -0.0003  0.0794  0.0822
  907loPI   PO413152   2.622   3.248   5.834  0.0658 -0.0939 -0.0066
  907loPI   GL113153   2.750   3.252   6.221 -0.1679  0.1673  0.0502
  907loPI   GL213154   2.830   3.602   6.329  0.1526  0.1474  0.3072
  907loPI   C1A13155   2.937   3.147   6.576 -0.2685 -0.1668  0.0070
  907loPI   C2A13156   3.019   3.084   7.019 -0.2197 -0.0102 -0.1118
  907loPI   C3A13157   3.074   3.223   7.416  0.0359 -0.5125  0.0580
  907loPI   C4A13158   3.234   3.088   7.759  0.2475 -0.0540 -0.0949
  907loPI   C5A13159   3.524   2.861   8.065  0.0608 -0.0173  0.0745
  907loPI   C6A13160   3.621   2.642   8.441  0.3618  0.1104  0.1430
  907loPI   C1B13161   2.959   3.783   6.775  0.3564 -0.2137 -0.0774
  907loPI   C2B13162   3.056   4.026   7.153 -0.0738 -0.0143 -0.0124
  907loPI   C3B13163   3.056   4.125   7.617 -0.2194 -0.2864  0.1124
  907loPI   C4B13164   3.051   4.421   7.908  0.1821 -0.0929  0.1234
  908loPI    C113165  12.955   0.059   5.389  0.0647  0.1852  0.0599
  908loPI    C213166  12.811   0.224   5.055 -0.0227  0.2394  0.1238
  908loPI    C313167  13.029  -0.111   5.035 -0.1291  0.1754  0.0230
  908loPI   PO413168  12.966   0.280   5.578  0.0118  0.1325 -0.0041
  908loPI   GL113169  12.753   0.438   5.993  0.3936 -0.0628  0.3034
  908loPI   GL213170  13.040   0.372   6.195 -0.3066  0.1552  0.2842
  908loPI   C1A13171  12.619   0.396   6.388  0.1643  0.0497  0.2747
  908loPI   C2A13172  12.590   0.502   6.807  0.1460 -0.0259  0.0788
  908loPI   C3A13173  12.493   0.795   7.280  0.1170  0.0163  0.1265
  908loPI   C4A13174  12.522   1.041   7.683  0.1325 -0.0529 -0.2242
  908loPI   C5A13175  12.378   1.408   7.828 -0.0230  0.0254 -0.0496
  908loPI   C6A13176  12.257   1.813   7.989 -0.1297  0.3913  0.0070
  908loPI   C1B13177  13.088   0.258   6.584 -0.1221  0.1416  0.0409
  908loPI   C2B13178  13.015   0.208   7.018  0.2109  0.0907  0.0269
  908loPI   C3B13179  12.681   0.308   7.375  0.0660 -0.0439  0.1803
  908loPI   C4B13180  12.647   0.270   7.748 -0.0103 -0.3163 -0.3048
  909loPI    C113181   5.617  15.703   5.981 -0.0866 -0.2519 -0.0366
  909loPI    C213182   5.301  15.796   5.754 -0.1472 -0.0514  0.1264
  909loPI    C313183   5.418  16.044   6.045  0.0524 -0.2100  0.1840
  909loPI   PO413184   5.588  15.475   6.205 -0.0511 -0.0144 -0.4191
  909loPI   GL113185   5.900  15.477   6.455 -0.0398  0.2841 -0.2420
  909loPI   GL213186   6.030  15.744   6.500  0.0187 -0.1710 -0.0268
  909loPI   C1A13187   5.598  15.342   6.840  0.1880 -0.3282  0.1387
  909loPI   C2A13188   5.302  15.448   7.265 -0.0345 -0.4794  0.0745
  909loPI   C3A13189   5.062  15.413   7.513 -0.1128 -0.2752  0.1048
  909loPI   C4A13190   4.845  15.469   7.809  0.1665  0.0779 -0.0986
  909loPI   C5A13191   4.856  15.431   8.167  0.2697 -0.0167  0.1684
  909loPI   C6A13192   4.537  15.316   8.539 -0.0896  0.1170  0.1718
  909loPI   C1B13193   5.969  15.746   6.893  0.2048 -0.0819  0.1313
  909loPI   C2B13194   5.837  15.620   7.276  0.0929  0.3489  0.0214
  909loPI   C3B13195   5.841  15.437   7.790 -0.0554 -0.3475 -0.1815
  909loPI   C4B13196   6.133  15.737   8.121  0.1878  0.0363  0.1248
  910loPI    C113197  10.525   8.470   5.507 -0.3084  0.0627 -0.1365
  910loPI    C213198  10.729   8.285   5.217 -0.0529 -0.1623  0.1797
  910loPI    C313199  10.517   8.613   5.134 -0.1444 -0.3346 -0.2981
  910loPI   PO413200  10.710   8.498   5.745  0.0831  0.1180 -0.0704
  910loPI   GL113201  10.699   8.062   6.051  0.1928  0.1583 -0.1402
  910loPI   GL213202  10.540   8.363   6.254  0.0139  0.0680  0.2131
  910loPI   C1A13203  10.877   7.997   6.407  0.0954 -0.0809 -0.0863
  910loPI   C2A13204  10.812   8.069   6.804  0.1029 -0.0692  0.1425
  910loPI   C3A13205  10.842   7.953   7.245 -0.1595  0.0580 -0.1556
  910loPI   C4A13206  10.811   7.872   7.663  0.0640 -0.3615  0.2704
  910loPI   C5A13207  10.985   7.711   7.940  0.0544 -0.1177 -0.4291
  910loPI   C6A13208  11.225   7.510   8.139 -0.0071  0.1461 -0.2685
  910loPI   C1B13209  10.442   8.436   6.638 -0.0532 -0.3005 -0.1880
  910loPI   C2B13210  10.490   8.355   7.083 -0.0136 -0.2878 -0.5490
  910loPI   C3B13211  10.394   8.108   7.474  0.0643  0.1313  0.1213
  910loPI   C4B13212  10.265   8.371   7.845  0.0905 -0.0602  0.3617
  911loPI    C113213  10.907   5.802   5.808 -0.2481 -0.0627 -0.0384
  911loPI    C213214  10.783   6.005   5.487 -0.1400  0.1674  0.0632
  911loPI    C313215  10.941   5.640   5.444 -0.1216  0.1984 -0.1450
  911loPI   PO413216  10.743   5.785   5.999  0.0673  0.2410 -0.0734
  911loPI   GL113217  10.480   5.986   6.364 -0.0111 -0.0410 -0.0201
  911loPI   GL213218  10.726   6.216   6.351 -0.0215 -0.1263  0.1480
  911loPI   C1A13219  10.601   5.914   6.770  0.0594  0.1364  0.0367
  911loPI   C2A13220  10.712   5.918   7.228 -0.3665 -0.0646  0.0835
  911loPI   C3A13221  10.768   5.768   7.637 -0.1743 -0.0282  0.2976
  911loPI   C4A13222  10.781   5.549   8.029 -0.4454 -0.4245  0.3741
  911loPI   C5A13223  10.424   5.659   8.340 -0.3365  0.0168  0.3467
  911loPI   C6A13224  10.092   5.733   8.577  0.0102 -0.0409  0.0612
  911loPI   C1B13225  10.723   6.426   6.718  0.1552  0.1144 -0.0737
  911loPI   C2B13226  10.729   6.430   7.168 -0.1612 -0.1343 -0.3171
  911loPI   C3B13227  10.817   6.364   7.534  0.1259  0.0730 -0.1334
  911loPI   C4B13228  10.864   6.502   7.927 -0.1104 -0.2269  0.0445
  912loPI    C113229   3.869  13.923   5.561 -0.0284 -0.1425 -0.0782
  912loPI    C213230   3.852  14.308   5.453 -0.0117 -0.0103  0.3668
  912loPI    C313231   4.035  14.042   5.217 -0.2510  0.2021 -0.0716
  912loPI   PO413232   3.951  13.884   5.772 -0.2023  0.0207 -0.0643
  912loPI   GL113233   4.225  13.662   6.163  0.0051 -0.0555  0.0792
  912loPI   GL213234   3.834  13.732   6.227  0.1299 -0.2059  0.0230
  912loPI   C1A13235   4.312  13.936   6.546 -0.2617  0.1532  0.3021
  912loPI   C2A13236   4.265  13.892   7.005 -0.2611  0.0517 -0.1833
  912loPI   C3A13237   4.572  13.860   7.310  0.1302  0.2228 -0.1303
  912loPI   C4A13238   4.566  13.607   7.671  0.0488 -0.3340  0.0811
  912loPI   C5A13239   4.430  13.590   8.109  0.1828  0.3457  0.1593
  912loPI   C6A13240   4.425  13.392   8.496  0.0238  0.0087 -0.2568
  912loPI   C1B13241   3.831  13.683   6.631 -0.1267  0.0923  0.0565
  912loPI   C2B13242   3.762  13.699   7.116 -0.1623 -0.0446  0.1020
  912loPI   C3B13243   3.619  13.758   7.520 -0.0312 -0.4425  0.0903
  912loPI   C4B13244   3.498  13.820   7.987  0.0850 -0.2513 -0.0241
  913loPI    C113245   0.357  13.979   5.355  0.3233  0.1651 -0.1187
  913loPI    C213246   0.423  14.314   5.146 -0.0255  0.2477 -0.1036
  913loPI    C313247   0.100  14.091   5.069  0.0947  0.0243  0.0283
  913loPI   PO413248   0.350  14.071   5.646 -0.0078 -0.1833  0.0294
  913loPI   GL113249   0.019  14.061   5.982  0.1561 -0.1726 -0.0469
  913loPI   GL213250   0.022  13.726   5.855 -0.1954  0.1309  0.1774
  913loPI   C1A13251   0.122  14.183   6.355  0.2627 -0.0276 -0.0586
  913loPI   C2A13252   0.135  14.322   6.841 -0.1652  0.3107  0.0460
  913loPI   C3A13253   0.113  14.208   7.228  0.0563 -0.2328  0.0342
  913loPI   C4A13254   0.195  14.316   7.613 -0.1715  0.1267  0.1831
  913loPI   C5A13255   0.167  14.306   8.040  0.1545 -0.3373  0.2583
  913loPI   C6A13256   0.054  14.636   8.405 -0.1214  0.3096  0.0405
  913loPI   C1B13257  -0.023  13.702   6.275 -0.0156 -0.1702 -0.4242
  913loPI   C2B13258   0.037  13.766   6.693 -0.1022 -0.2236  0.1488
  913loPI   C3B13259   0.058  13.714   7.138  0.0928 -0.0321  0.2733
  913loPI   C4B13260   0.091  13.632   7.565 -0.2845  0.1582 -0.1205
  914loPI    C113261  17.861  12.884   5.227 -0.1779 -0.1849  0.2511
  914loPI    C213262  17.474  12.951   5.154 -0.1340  0.0619  0.2385
  914loPI    C313263  17.744  13.239   5.085  0.0669 -0.1477  0.1365
  914loPI   PO413264  17.849  12.751   5.490  0.3019  0.0877 -0.1488
  914loPI   GL113265  17.624  12.894   5.777  0.2086  0.0044  0.1176
  914loPI   GL213266  17.321  12.887   5.632 -0.2041  0.1742  0.1535
  914loPI   C1A13267  17.518  13.014   6.185 -0.0981  0.1894  0.0050
  914loPI   C2A13268  17.630  12.925   6.732  0.1541 -0.0929 -0.1072
  914loPI   C3A13269  17.666  12.910   7.130 -0.0578 -0.0895 -0.1451
  914loPI   C4A13270  17.611  12.868   7.582  0.0506  0.0771  0.0226
  914loPI   C5A13271  17.856  13.036   7.898  0.1745 -0.4456  0.0097
  914loPI   C6A13272  17.804  13.222   8.280  0.1448 -0.0277  0.1332
  914loPI   C1B13273  17.057  12.880   5.961 -0.1270 -0.2713 -0.0662
  914loPI   C2B13274  17.154  12.795   6.468  0.1392  0.1605  0.3542
  914loPI   C3B13275  17.243  12.671   6.915  0.0637 -0.0630 -0.0733
  914loPI   C4B13276  17.147  12.653   7.346 -0.1389 -0.0626  0.2332
  915loPI    C113277  15.606  15.386   5.513 -0.1886  0.0471 -0.1094
  915loPI    C213278  15.896  15.460   5.248  0.1043 -0.0404  0.1794
  915loPI    C313279  15.735  15.095   5.271  0.0415 -0.0189  0.0887
  915loPI   PO413280  15.687  15.488   5.704  0.0993  0.0510 -0.3955
  915loPI   GL113281  15.885  15.262   6.127  0.1591  0.1156 -0.1508
  915loPI   GL213282  15.755  15.036   6.183  0.1239 -0.1282 -0.2126
  915loPI   C1A13283  15.927  15.081   6.620 -0.0759  0.2141 -0.0108
  915loPI   C2A13284  16.070  15.075   7.043  0.0616 -0.2343 -0.3793
  915loPI   C3A13285  16.022  15.036   7.479  0.0024  0.0056  0.0027
  915loPI   C4A13286  16.234  14.996   7.868 -0.2465  0.0357  0.0559
  915loPI   C5A13287  16.313  15.028   8.275 -0.3250  0.2474 -0.2366
  915loPI   C6A13288  16.133  15.324   8.592  0.4540 -0.1489 -0.0677
  915loPI   C1B13289  15.783  14.662   6.348 -0.2809  0.0904  0.4245
  915loPI   C2B13290  15.814  14.587   6.744 -0.2465  0.1898  0.1846
  915loPI   C3B13291  15.861  14.611   7.195  0.1066  0.2017  0.1538
  915loPI   C4B13292  16.065  14.544   7.580 -0.1031  0.2567  0.0545
  916loPI    C113293  17.262   3.544   5.840  0.3968 -0.0525 -0.4526
  916loPI    C213294  16.921   3.687   5.686  0.1471 -0.1691 -0.0260
  916loPI    C313295  17.048   3.320   5.587  0.1788 -0.1062 -0.2241
  916loPI   PO413296  17.140   3.606   6.167  0.1240 -0.0861  0.0867
  916loPI   GL113297  17.296   3.551   6.653  0.1661  0.3960  0.1232
  916loPI   GL213298  17.712   3.644   6.610 -0.1275 -0.0551  0.1698
  916loPI   C1A13299  17.403   3.515   7.122 -0.0585 -0.0899  0.0497
  916loPI   C2A13300  17.383   3.501   7.621 -0.0757  0.0391  0.0808
  916loPI   C3A13301  17.477   3.370   8.016 -0.0664 -0.0761 -0.2233
  916loPI   C4A13302  17.815   3.124   8.174  0.0615 -0.1414  0.4506
  916loPI   C5A13303  18.192   3.247   8.376 -0.0548 -0.3675  0.1160
  916loPI   C6A13304  18.571   3.111   8.452  0.1476  0.3974 -0.1122
  916loPI   C1B13305  17.899   3.745   7.144  0.0704  0.0463  0.2381
  916loPI   C2B13306  17.897   3.821   7.669 -0.1788 -0.0460 -0.0477
  916loPI   C3B13307  18.107   3.608   8.011 -0.0324  0.1663 -0.0836
  916loPI   C4B13308  18.546   3.461   8.088 -0.0058 -0.1616 -0.1531
  917loPI    C113309   2.112  10.493   5.275 -0.1403 -0.0490 -0.3048
  917loPI    C213310   2.501  10.398   5.271 -0.1414 -0.0702 -0.0652
  917loPI    C313311   2.233  10.150   5.107 -0.0392  0.0240 -0.3824
  917loPI   PO413312   2.118  10.718   5.434  0.0020 -0.1977  0.1801
  917loPI   GL113313   2.125  10.812   5.828 -0.3192 -0.2056 -0.3568
  917loPI   GL213314   1.840  10.953   5.946  0.1039 -0.0655 -0.0780
  917loPI   C1A13315   2.383  10.703   6.265 -0.1624 -0.3921  0.1671
  917loPI   C2A13316   2.386  10.806   6.726  0.0442 -0.0261 -0.0294
  917loPI   C3A13317   2.309  10.859   7.249 -0.1884  0.0915 -0.0777
  917loPI   C4A13318   2.322  10.765   7.572 -0.1033  0.0757 -0.0452
  917loPI   C5A13319   2.216  10.796   7.968 -0.1969  0.0341  0.0237
  917loPI   C6A13320   2.088  11.015   8.367  0.0366  0.0979 -0.0578
  917loPI   C1B13321   1.936  10.916   6.278 -0.1386 -0.2026  0.1430
  917loPI   C2B13322   1.906  11.020   6.682 -0.1405 -0.3399 -0.1845
  917loPI   C3B13323   1.893  11.088   7.138  0.0822 -0.1106  0.0135
  917loPI   C4B13324   1.970  11.096   7.565 -0.1414 -0.2561  0.2259
  918loPI    C113325   9.962   1.929   5.395  0.1387  0.0154 -0.1615
  918loPI    C213326  10.235   1.982   5.106  0.0961  0.1534 -0.1771
  918loPI    C313327   9.895   2.192   5.101  0.1211  0.2000  0.0060
  918loPI   PO413328  10.077   1.933   5.664 -0.1856  0.0945 -0.0876
  918loPI   GL113329  10.124   1.768   6.037 -0.0672  0.3738 -0.3805
  918loPI   GL213330   9.922   1.594   6.110  0.2028  0.1499  0.0818
  918loPI   C1A13331  10.375   2.119   6.307 -0.3182  0.0463 -0.3080
  918loPI   C2A13332  10.678   2.245   6.616  0.0934  0.1871 -0.0212
  918loPI   C3A13333  10.706   2.303   7.013  0.2122 -0.1045  0.1827
  918loPI   C4A13334  10.721   2.318   7.349  0.1462  0.0770  0.0238
  918loPI   C5A13335  10.969   2.445   7.701 -0.2169  0.0105  0.0133
  918loPI   C6A13336  11.201   2.732   7.747  0.2753 -0.1587  0.0616
  918loPI   C1B13337   9.834   1.476   6.501 -0.3888  0.0796 -0.1909
  918loPI   C2B13338   9.421   1.307   6.756 -0.0750 -0.0312  0.2553
  918loPI   C3B13339   9.284   1.325   7.241 -0.4813  0.0532 -0.0298
  918loPI   C4B13340   9.603   1.302   7.468  0.1729 -0.1757 -0.2615
  919loPI    C113341  13.674   4.864   5.675  0.0357 -0.0679  0.0127
  919loPI    C213342  14.062   4.960   5.649  0.0350 -0.0682  0.0026
  919loPI    C313343  13.800   5.112   5.388  0.0174 -0.0116  0.0531
  919loPI   PO413344  13.622   4.901   5.867  0.0737 -0.0186 -0.1971
  919loPI   GL113345  13.580   4.812   6.302 -0.0437  0.0203  0.2474
  919loPI   GL213346  13.935   4.642   6.204  0.0072  0.1321 -0.2217
  919loPI   C1A13347  13.523   4.744   6.804 -0.0471 -0.1106  0.0569
  919loPI   C2A13348  13.413   4.711   7.132 -0.0400 -0.1140 -0.0801
  919loPI   C3A13349  13.453   4.718   7.574 -0.2274  0.2866 -0.1036
  919loPI   C4A13350  13.292   4.651   7.950  0.0706 -0.2590  0.2323
  919loPI   C5A13351  13.350   4.379   8.328  0.0576  0.3165  0.2688
  919loPI   C6A13352  13.392   3.932   8.529  0.0224 -0.0162 -0.1061
  919loPI   C1B13353  14.007   4.711   6.677  0.3279 -0.3926 -0.2903
  919loPI   C2B13354  13.940   4.766   7.127  0.0395 -0.0340  0.0584
  919loPI   C3B13355  13.907   4.603   7.506 -0.1902  0.1587  0.0287
  919loPI   C4B13356  13.816   4.595   7.942  0.0167  0.1246 -0.4168
  920loPI    C113357  16.412   7.737   5.679 -0.1995  0.0861 -0.0649
  920loPI    C213358  16.464   7.577   5.316 -0.0376 -0.1446  0.0572
  920loPI    C313359  16.732   7.837   5.460 -0.0924 -0.0670  0.0202
  920loPI   PO413360  16.376   7.520   5.832 -0.2655  0.1039  0.1716
  920loPI   GL113361  16.636   7.239   6.015 -0.2866 -0.1387  0.1337
  920loPI   GL213362  16.826   7.658   6.163 -0.0190  0.4954  0.2273
  920loPI   C1A13363  16.545   7.434   6.461 -0.0310  0.1432  0.2768
  920loPI   C2A13364  16.505   7.649   6.915  0.1385  0.0044  0.1465
  920loPI   C3A13365  16.452   7.650   7.339 -0.0558 -0.0846 -0.0543
  920loPI   C4A13366  16.268   7.570   7.749 -0.0790  0.3429 -0.1397
  920loPI   C5A13367  16.264   7.319   8.122  0.0319  0.0868  0.4058
  920loPI   C6A13368  16.627   7.083   8.228 -0.1048 -0.0601  0.1195
  920loPI   C1B13369  16.871   7.824   6.614  0.0049  0.1299  0.1808
  920loPI   C2B13370  16.839   8.037   7.064 -0.1273 -0.1035  0.1302
  920loPI   C3B13371  16.712   8.307   7.421  0.2322  0.0126  0.0324
  920loPI   C4B13372  16.557   8.778   7.638  0.1268  0.0120 -0.2611
  921loPI    C113373   8.625   6.939   5.775  0.0922  0.0063  0.0790
  921loPI    C213374   8.460   6.600   5.641 -0.1355  0.1297  0.0425
  921loPI    C313375   8.624   6.858   5.383 -0.0002  0.0680  0.0661
  921loPI   PO413376   8.825   6.899   5.929  0.1194 -0.0708  0.2421
  921loPI   GL113377   8.974   6.804   6.329  0.2052  0.0074 -0.2961
  921loPI   GL213378   9.215   7.006   6.368 -0.0901 -0.0835  0.2730
  921loPI   C1A13379   8.814   6.561   6.743 -0.3179  0.1303 -0.0774
  921loPI   C2A13380   8.947   6.486   7.164  0.1663  0.2722 -0.1888
  921loPI   C3A13381   8.898   6.530   7.607 -0.0181  0.0814 -0.2406
  921loPI   C4A13382   8.719   6.682   8.031 -0.2966  0.2224 -0.0716
  921loPI   C5A13383   8.933   6.830   8.321 -0.1657  0.1895 -0.0891
  921loPI   C6A13384   8.978   7.265   8.402 -0.0496  0.2188 -0.0985
  921loPI   C1B13385   9.273   6.847   6.713  0.1191 -0.1904  0.4382
  921loPI   C2B13386   9.194   6.975   7.171  0.1139 -0.0615 -0.1801
  921loPI   C3B13387   9.364   6.730   7.448  0.0401 -0.2113  0.1543
  921loPI   C4B13388   9.551   6.768   7.769 -0.4214  0.0282 -0.0140
  922loPI    C113389  17.596  10.983   5.161 -0.3334 -0.0594  0.2317
  922loPI    C213390  17.750  10.631   5.271 -0.0316  0.0288  0.0995
  922loPI    C313391  17.569  10.668   4.916 -0.0297  0.0161  0.0972
  922loPI   PO413392  17.636  11.119   5.423 -0.2597 -0.3202 -0.0609
  922loPI   GL113393  17.862  11.172   5.818 -0.0683 -0.0245 -0.0845
  922loPI   GL213394  18.189  11.152   5.973  0.2144  0.2218  0.0225
  922loPI   C1A13395  17.600  11.336   6.100  0.1797  0.2105 -0.2768
  922loPI   C2A13396  17.508  11.381   6.528 -0.4854 -0.0015  0.1984
  922loPI   C3A13397  17.617  11.465   6.820  0.2492  0.3803  0.0134
  922loPI   C4A13398  17.565  11.400   7.153 -0.1417 -0.0160  0.3261
  922loPI   C5A13399  17.529  11.374   7.554  0.1749  0.2582  0.1687
  922loPI   C6A13400  17.619  11.551   7.864 -0.3664 -0.1294  0.2101
  922loPI   C1B13401  18.013  11.156   6.362 -0.0152  0.2768 -0.1456
  922loPI   C2B13402  18.067  11.257   6.804  0.4031 -0.0171 -0.0151
  922loPI   C3B13403  17.973  11.161   7.195  0.0969 -0.1279  0.0598
  922loPI   C4B13404  17.971  11.106   7.721 -0.0150 -0.1602  0.0655
  923loPI    C113405  13.356  15.117   5.939 -0.2159  0.0529 -0.3546
  923loPI    C213406  13.441  14.894   5.618 -0.0832 -0.0133 -0.2744
  923loPI    C313407  13.496  15.290   5.607  0.2223 -0.0519 -0.2317
  923loPI   PO413408  13.508  15.044   6.173  0.0562  0.3018 -0.1711
  923loPI   GL113409  13.706  15.244   6.469  0.1072 -0.1290 -0.2478
  923loPI   GL213410  13.406  15.493   6.450 -0.3476 -0.4165 -0.2040
  923loPI   C1A13411  13.843  15.093   6.775  0.0591  0.1833 -0.3396
  923loPI   C2A13412  13.877  15.044   7.185  0.2642 -0.0825  0.2245
  923loPI   C3A13413  13.824  14.922   7.585 -0.1915  0.0796 -0.0018
  923loPI   C4A13414  13.491  14.975   7.915  0.1748 -0.0472  0.0252
  923loPI   C5A13415  13.555  14.830   8.227  0.3319 -0.1547 -0.1223
  923loPI   C6A13416  13.272  14.538   8.480 -0.3182 -0.0497  0.1530
  923loPI   C1B13417  13.528  15.477   6.842  0.3400 -0.1377 -0.0206
  923loPI   C2B13418  13.544  15.437   7.315 -0.1485 -0.5461  0.2078
  923loPI   C3B13419  13.698  15.403   7.642  0.1131 -0.1791 -0.0059
  923loPI   C4B13420  13.798  15.586   8.110  0.0725  0.0946 -0.1413
  924loPI    C113421   7.060   4.299   5.825 -0.0085  0.2129 -0.1271
  924loPI    C213422   7.080   3.993   5.568 -0.0032  0.0142  0.1066
  924loPI    C313423   7.365   4.274   5.567  0.0489 -0.0385 -0.0381
  924loPI   PO413424   6.889   4.210   5.978 -0.1054 -0.2997  0.3369
  924loPI   GL113425   7.144   4.204   6.399 -0.0530 -0.1274  0.3577
  924loPI   GL213426   7.101   4.545   6.361  0.1630  0.0949  0.1562
  924loPI   C1A13427   7.219   4.262   6.857 -0.3485 -0.1497  0.0143
  924loPI   C2A13428   7.212   4.328   7.283  0.1981  0.0607 -0.0649
  924loPI   C3A13429   7.068   4.281   7.685  0.2045 -0.0277 -0.1372
  924loPI   C4A13430   7.040   4.415   8.048 -0.2781 -0.2377 -0.2398
  924loPI   C5A13431   6.874   4.782   8.116 -0.0393 -0.0213 -0.0115
  924loPI   C6A13432   6.684   5.129   8.178 -0.1200  0.1351 -0.1628
  924loPI   C1B13433   7.058   4.672   6.719 -0.4571  0.2254 -0.0910
  924loPI   C2B13434   6.974   4.727   7.197  0.0763  0.0495 -0.0715
  924loPI   C3B13435   6.982   4.716   7.637 -0.0354 -0.0350  0.0067
  924loPI   C4B13436   7.099   5.108   7.785 -0.3051  0.0551 -0.0833
  925loPI    C113437  11.606  13.520   6.039 -0.1601 -0.1733  0.0625
  925loPI    C213438  11.475  13.302   5.730 -0.2315  0.1218 -0.1191
  925loPI    C313439  11.836  13.473   5.715 -0.0662 -0.1952  0.1321
  925loPI   PO413440  11.610  13.442   6.263  0.2580 -0.0961 -0.0763
  925loPI   GL113441  11.821  13.398   6.656  0.0719 -0.2049 -0.1494
  925loPI   GL213442  12.053  13.613   6.610  0.1262 -0.1009  0.1552
  925loPI   C1A13443  11.748  13.592   7.069 -0.0255  0.0321  0.4501
  925loPI   C2A13444  11.574  13.766   7.445  0.3023 -0.2986 -0.2742
  925loPI   C3A13445  11.587  13.676   7.907  0.4265 -0.1694 -0.3581
  925loPI   C4A13446  11.319  13.723   8.173 -0.1845 -0.1771 -0.2171
  925loPI   C5A13447  11.294  14.097   8.297 -0.0480  0.0891  0.2216
  925loPI   C6A13448  11.405  14.469   8.494 -0.0137 -0.0279 -0.1608
  925loPI   C1B13449  12.275  13.498   6.987  0.1382  0.0556  0.2225
  925loPI   C2B13450  12.209  13.595   7.377 -0.4582 -0.2837 -0.0515
  925loPI   C3B13451  12.132  13.678   7.723 -0.0318 -0.0318 -0.0890
  925loPI   C4B13452  11.968  13.758   8.187 -0.1309  0.3077 -0.2983
  926loPI    C113453   9.167  10.930   5.698  0.0036 -0.0614 -0.1639
  926loPI    C213454   9.170  11.268   5.483 -0.1068 -0.0514 -0.1502
  926loPI    C313455   9.416  10.967   5.387  0.1276  0.1046 -0.0466
  926loPI   PO413456   9.165  11.015   5.953  0.0468 -0.1089  0.2087
  926loPI   GL113457   9.067  10.740   6.283  0.3217 -0.2166  0.2072
  926loPI   GL213458   9.140  11.049   6.438  0.3038  0.0216 -0.1507
  926loPI   C1A13459   8.893  10.622   6.642  0.0194  0.1797  0.0196
  926loPI   C2A13460   9.026  10.521   7.070  0.1425  0.0412 -0.0116
  926loPI   C3A13461   9.295  10.432   7.428 -0.0850 -0.3994 -0.0435
  926loPI   C4A13462   9.380  10.508   7.872 -0.2682  0.1429  0.0857
  926loPI   C5A13463   9.720  10.279   8.115  0.1622  0.0905  0.0376
  926loPI   C6A13464  10.106  10.351   8.200  0.0925  0.0326  0.2204
  926loPI   C1B13465   9.105  11.207   6.780  0.0056 -0.2204  0.2859
  926loPI   C2B13466   9.132  11.458   7.209 -0.0324 -0.1593  0.1321
  926loPI   C3B13467   9.139  11.371   7.606  0.0574 -0.0080 -0.1808
  926loPI   C4B13468   8.877  11.156   7.942  0.1561 -0.0957  0.2053
  927loPI    C113469  13.027  17.481   5.681 -0.2168  0.2589 -0.0095
  927loPI    C213470  12.802  17.580   5.366  0.0659  0.2658 -0.2134
  927loPI    C313471  13.031  17.252   5.353 -0.1085  0.1279  0.0816
  927loPI   PO413472  12.874  17.536   5.921 -0.1611  0.3948 -0.0415
  927loPI   GL113473  13.033  17.508   6.309 -0.0382  0.1035 -0.0351
  927loPI   GL213474  12.778  17.826   6.317 -0.0351  0.1284  0.2020
  927loPI   C1A13475  12.787  17.420   6.711  0.3888  0.0718 -0.1441
  927loPI   C2A13476  12.566  17.427   7.109  0.2423 -0.0068  0.1410
  927loPI   C3A13477  12.338  17.359   7.424 -0.0377  0.0503  0.1317
  927loPI   C4A13478  12.420  17.211   7.740  0.2309  0.1942  0.2038
  927loPI   C5A13479  12.768  17.097   7.936 -0.0097  0.0474 -0.1955
  927loPI   C6A13480  12.897  16.959   8.253  0.3220 -0.0148  0.2141
  927loPI   C1B13481  12.724  17.939   6.716  0.0265  0.2182 -0.1679
  927loPI   C2B13482  12.507  17.936   7.036 -0.2503 -0.2853  0.0413
  927loPI   C3B13483  12.295  17.866   7.465  0.0257 -0.2460 -0.2478
  927loPI   C4B13484  12.572  17.708   7.815  0.0991  0.1045 -0.1829
  928loPI    C113485   5.059   4.977   5.340  0.1373 -0.1324 -0.2350
  928loPI    C213486   5.248   5.229   5.093  0.3202  0.0631  0.0973
  928loPI    C313487   4.868   5.297   5.196  0.2429 -0.0198 -0.1277
  928loPI   PO413488   5.284   5.038   5.583  0.1035  0.0594 -0.2570
  928loPI   GL113489   5.194   5.266   6.074  0.0733  0.0632 -0.4556
  928loPI   GL213490   5.523   5.472   6.175  0.2266 -0.0630 -0.2215
  928loPI   C1A13491   5.113   5.160   6.551 -0.2307  0.1545  0.0545
  928loPI   C2A13492   4.978   5.281   6.931 -0.2404 -0.0658  0.1833
  928loPI   C3A13493   5.022   5.356   7.421 -0.1407  0.0127  0.0559
  928loPI   C4A13494   4.864   5.262   7.838 -0.1825  0.3814 -0.1070
  928loPI   C5A13495   4.710   5.016   8.120  0.0739 -0.1453  0.0121
  928loPI   C6A13496   4.411   4.673   7.992  0.2263 -0.1304  0.0903
  928loPI   C1B13497   5.418   5.554   6.551  0.2343  0.0410  0.0102
  928loPI   C2B13498   5.360   5.587   6.985  0.0420 -0.1236 -0.0004
  928loPI   C3B13499   5.445   5.746   7.397 -0.2190 -0.1449  0.2760
  928loPI   C4B13500   5.319   5.598   7.776  0.3142 -0.3833 -0.1239
  929loPI    C113501  12.101  16.321   5.795  0.2068 -0.1573  0.0222
  929loPI    C213502  12.025  15.958   5.645  0.0204 -0.0203 -0.2232
  929loPI    C313503  12.359  16.152   5.542  0.1093 -0.1117 -0.1092
  929loPI   PO413504  11.907  16.480   5.809 -0.0867  0.0884  0.0994
  929loPI   GL113505  12.017  16.813   6.132  0.1216  0.0747  0.1069
  929loPI   GL213506  12.101  17.056   6.338 -0.0131 -0.1507 -0.0726
  929loPI   C1A13507  11.563  16.903   6.417  0.1582 -0.2851 -0.0321
  929loPI   C2A13508  11.181  17.168   6.575  0.1104  0.0682  0.0998
  929loPI   C3A13509  10.875  17.424   6.705 -0.1633 -0.0846 -0.1269
  929loPI   C4A13510  10.675  17.646   7.120  0.0485 -0.0060  0.1358
  929loPI   C5A13511  10.422  17.762   7.568  0.1259  0.1003  0.0676
  929loPI   C6A13512  10.418  18.020   7.945  0.0641  0.0747 -0.1561
  929loPI   C1B13513  11.970  17.003   6.734 -0.1924 -0.0354 -0.6053
  929loPI   C2B13514  11.940  17.081   7.209  0.1034  0.0539 -0.0538
  929loPI   C3B13515  11.857  17.241   7.628  0.0306  0.1968 -0.0230
  929loPI   C4B13516  12.063  17.595   7.804  0.0816  0.0544 -0.0140
  930loPI    C113517   4.260  16.127   6.122 -0.2435  0.1977 -0.0527
  930loPI    C213518   4.422  16.484   6.043  0.0409  0.0949  0.0486
  930loPI    C313519   4.503  16.172   5.807  0.0571  0.0231  0.1488
  930loPI   PO413520   4.055  16.113   6.104  0.1553 -0.2960  0.2032
  930loPI   GL113521   3.720  15.820   6.393 -0.1545 -0.2317  0.0312
  930loPI   GL213522   4.079  15.751   6.517  0.1175  0.2206 -0.0693
  930loPI   C1A13523   3.537  16.016   6.744 -0.0798 -0.0588  0.3278
  930loPI   C2A13524   3.340  16.122   7.131  0.0664  0.3082 -0.0910
  930loPI   C3A13525   3.516  16.119   7.564  0.0693  0.0727 -0.3683
  930loPI   C4A13526   3.406  16.192   8.015 -0.0344 -0.0286 -0.2083
  930loPI   C5A13527   3.330  16.065   8.454 -0.1300 -0.0610 -0.1967
  930loPI   C6A13528   3.383  16.092   8.882  0.0100  0.0475 -0.2426
  930loPI   C1B13529   3.940  15.763   6.901  0.0617 -0.0531  0.0939
  930loPI   C2B13530   3.888  15.844   7.379 -0.1875 -0.3222 -0.3102
  930loPI   C3B13531   3.934  15.860   7.826  0.1400 -0.1388 -0.1232
  930loPI   C4B13532   3.862  15.868   8.192 -0.0749  0.1319  0.1912
  931loPI    C113533   0.978   1.451   5.665  0.0379  0.1423 -0.0102
  931loPI    C213534   1.288   1.590   5.454  0.1081 -0.2319 -0.1627
  931loPI    C313535   0.965   1.450   5.265  0.1026 -0.4175 -0.0187
  931loPI   PO413536   0.851   1.529   5.885 -0.4517  0.2442 -0.2307
  931loPI   GL113537   0.711   1.490   6.295  0.4600 -0.2170 -0.1252
  931loPI   GL213538   0.652   1.833   6.418 -0.1291  0.0367 -0.0650
  931loPI   C1A13539   0.828   1.126   6.513  0.2725 -0.1820  0.0528
  931loPI   C2A13540   0.651   0.945   6.832 -0.0411 -0.2148  0.2084
  931loPI   C3A13541   0.566   0.635   7.141 -0.5072 -0.3066  0.0231
  931loPI   C4A13542   0.539   0.580   7.596 -0.1008 -0.0215 -0.2149
  931loPI   C5A13543   0.554   0.522   8.062 -0.0307 -0.0141 -0.0446
  931loPI   C6A13544   0.357   0.536   8.459 -0.0204  0.4116 -0.3519
  931loPI   C1B13545   0.582   1.776   6.839 -0.1276  0.0818 -0.0877
  931loPI   C2B13546   0.805   1.669   7.270 -0.1468  0.2001 -0.2177
  931loPI   C3B13547   0.641   1.564   7.637 -0.2248  0.0261  0.1463
  931loPI   C4B13548   0.479   1.367   7.992 -0.0983  0.1614  0.1430
  932loPI    C113549  14.921   8.902   5.234  0.0573 -0.0359  0.0674
  932loPI    C213550  15.073   8.567   5.076 -0.2281 -0.1110 -0.0541
  932loPI    C313551  14.694   8.574   5.204 -0.1643  0.1099  0.1292
  932loPI   PO413552  15.057   8.884   5.573 -0.0366  0.0656 -0.1035
  932loPI   GL113553  15.010   8.756   5.969 -0.1239 -0.0314 -0.1739
  932loPI   GL213554  15.014   8.494   6.293 -0.5036 -0.1552  0.0757
  932loPI   C1A13555  14.908   9.028   6.471 -0.0504 -0.0995  0.3897
  932loPI   C2A13556  15.047   8.929   6.880 -0.1703 -0.2345 -0.0846
  932loPI   C3A13557  15.110   8.951   7.313 -0.0945  0.0122 -0.0860
  932loPI   C4A13558  15.370   9.031   7.676 -0.1207 -0.1731 -0.0149
  932loPI   C5A13559  15.380   9.109   8.114  0.3613  0.1933  0.0264
  932loPI   C6A13560  15.333   8.936   8.460 -0.0033 -0.1311 -0.0569
  932loPI   C1B13561  14.964   8.469   6.717 -0.1046 -0.1722  0.1829
  932loPI   C2B13562  14.928   8.482   7.212 -0.2324  0.4923  0.1003
  932loPI   C3B13563  14.781   8.825   7.674  0.0121  0.0564 -0.0022
  932loPI   C4B13564  14.905   9.092   7.955 -0.1249  0.2192  0.1889
  933loPI    C113565  11.273   1.284   5.295 -0.0283 -0.3283 -0.0826
  933loPI    C213566  11.596   1.462   5.141 -0.0998 -0.2280 -0.1175
  933loPI    C313567  11.482   1.102   5.007 -0.1677 -0.1371 -0.3077
  933loPI   PO413568  11.284   1.447   5.523 -0.1000 -0.2530 -0.3930
  933loPI   GL113569  11.329   1.403   5.943  0.0932 -0.2236 -0.0287
  933loPI   GL213570  11.625   1.443   6.060  0.0852  0.0325  0.2594
  933loPI   C1A13571  11.357   1.035   6.256  0.4826  0.2869  0.0700
  933loPI   C2A13572  11.423   0.846   6.638 -0.0422 -0.1674  0.0652
  933loPI   C3A13573  11.332   0.911   7.086  0.1046 -0.2171  0.0901
  933loPI   C4A13574  11.034   1.007   7.280  0.0890  0.0729 -0.3086
  933loPI   C5A13575  11.040   0.783   7.726 -0.3193  0.2349 -0.0073
  933loPI   C6A13576  10.836   0.655   8.023  0.0995  0.1350  0.1849
  933loPI   C1B13577  11.624   1.690   6.380  0.1392  0.1376  0.0915
  933loPI   C2B13578  11.657   1.728   6.723 -0.0490  0.1378 -0.2806
  933loPI   C3B13579  11.486   1.862   7.209  0.1154 -0.0780 -0.0884
  933loPI   C4B13580  11.492   1.849   7.564 -0.1996  0.0623 -0.0386
  934loPI    C113581   2.734   2.399   5.509 -0.1070 -0.2090 -0.2955
  934loPI    C213582   3.007   2.669   5.620 -0.3442 -0.1241  0.1008
  934loPI    C313583   3.069   2.443   5.296  0.2411 -0.1784  0.2406
  934loPI   PO413584   2.685   2.272   5.810 -0.1340  0.0723 -0.0299
  934loPI   GL113585   2.661   2.394   6.237  0.2629  0.0127 -0.0207
  934loPI   GL213586   2.809   2.288   6.488  0.0556 -0.0352  0.0594
  934loPI   C1A13587   2.307   2.424   6.468  0.4358 -0.0005  0.0042
  934loPI   C2A13588   2.181   2.518   6.758  0.0417 -0.0305  0.0386
  934loPI   C3A13589   2.221   2.634   7.192  0.0716  0.2864 -0.1199
  934loPI   C4A13590   2.119   2.744   7.530  0.4113  0.0330  0.1332
  934loPI   C5A13591   2.100   3.027   7.908 -0.1514 -0.3298 -0.1308
  934loPI   C6A13592   2.235   3.168   8.297  0.4032  0.1295  0.3217
  934loPI   C1B13593   2.755   2.450   6.894  0.1258  0.1390  0.3254
  934loPI   C2B13594   2.752   2.479   7.355  0.0634 -0.1973 -0.0133
  934loPI   C3B13595   2.534   2.505   7.747 -0.2277 -0.0066 -0.1259
  934loPI   C4B13596   2.397   2.526   8.153 -0.2815  0.2622  0.2383
  935loPI    C113597  10.682   0.805   5.627  0.0909  0.0605  0.0354
  935loPI    C213598  10.545   0.695   5.268 -0.0360  0.0156  0.0971
  935loPI    C313599  10.876   0.917   5.295  0.0955 -0.1603 -0.0384
  935loPI   PO413600  10.592   0.913   5.741  0.1737 -0.0998  0.1456
  935loPI   GL113601  10.503   0.952   6.158 -0.1320  0.0160  0.0680
  935loPI   GL213602  10.489   0.628   6.370 -0.0481 -0.0431 -0.2036
  935loPI   C1A13603  10.865   0.957   6.375  0.2382  0.1649  0.0334
  935loPI   C2A13604  11.009   1.116   6.746 -0.0933 -0.2733 -0.0745
  935loPI   C3A13605  10.734   1.383   6.970  0.0459  0.3205  0.1841
  935loPI   C4A13606  10.563   1.529   7.358  0.0884 -0.0764  0.1868
  935loPI   C5A13607  10.263   1.608   7.679 -0.0077  0.0820 -0.4915
  935loPI   C6A13608   9.777   1.595   7.876  0.2416  0.0711  0.0946
  935loPI   C1B13609  10.537   0.981   6.711  0.0449  0.1239  0.0726
  935loPI   C2B13610  10.551   0.991   7.157 -0.1172  0.2225  0.2258
  935loPI   C3B13611  10.426   1.065   7.557  0.0876  0.1260  0.2565
  935loPI   C4B13612  10.187   1.220   7.997 -0.1633 -0.1128  0.1426
  936loPI    C113613   3.871  12.750   5.585 -0.1529 -0.0548  0.1276
  936loPI    C213614   3.749  13.111   5.462 -0.0139 -0.0365  0.0416
  936loPI    C313615   4.140  13.031   5.493 -0.0452 -0.1310  0.2073
  936loPI   PO413616   3.739  12.704   5.810  0.1877 -0.3652  0.0559
  936loPI   GL113617   3.596  12.535   6.182 -0.0593  0.1138 -0.0016
  936loPI   GL213618   3.632  12.270   6.052  0.0604  0.1481  0.3287
  936loPI   C1A13619   3.316  12.333   6.454 -0.1046  0.2520  0.2009
  936loPI   C2A13620   3.247  12.224   6.894 -0.1280 -0.3635 -0.0577
  936loPI   C3A13621   3.182  12.418   7.303 -0.0375  0.1142 -0.0390
  936loPI   C4A13622   3.069  12.530   7.779 -0.0199 -0.1586 -0.4766
  936loPI   C5A13623   2.737  12.432   8.127 -0.3102  0.3564 -0.0358
  936loPI   C6A13624   2.471  12.317   8.423  0.2570 -0.0383  0.0693
  936loPI   C1B13625   3.728  11.969   6.370 -0.2247 -0.0458  0.4937
  936loPI   C2B13626   3.680  11.984   6.797  0.0632  0.3094 -0.0160
  936loPI   C3B13627   3.689  12.200   7.194  0.0203  0.2812  0.1512
  936loPI   C4B13628   3.590  12.247   7.646 -0.0101 -0.2380  0.0053
  937loPI    C113629   5.737  10.922   5.820 -0.0247  0.0422 -0.0433
  937loPI    C213630   5.410  11.125   5.930 -0.1325 -0.0622 -0.1689
  937loPI    C313631   5.474  11.042   5.544  0.1201  0.0897 -0.1619
  937loPI   PO413632   5.876  10.965   6.079  0.1821  0.2617  0.0834
  937loPI   GL113633   5.973  11.232   6.428  0.0259 -0.0772 -0.4014
  937loPI   GL213634   6.118  11.543   6.418 -0.0140  0.0682  0.0399
  937loPI   C1A13635   5.860  11.177   6.784 -0.1521  0.0051 -0.2411
  937loPI   C2A13636   5.692  11.387   7.138  0.0895 -0.2091 -0.1343
  937loPI   C3A13637   5.650  11.441   7.600 -0.0715 -0.1328  0.0948
  937loPI   C4A13638   5.236  11.442   7.778  0.3457  0.2883  0.1476
  937loPI   C5A13639   5.046  11.417   8.109  0.1286 -0.0234  0.0244
  937loPI   C6A13640   4.746  11.650   8.379 -0.1554  0.0780  0.1837
  937loPI   C1B13641   6.015  11.762   6.707 -0.1095  0.1717 -0.0612
  937loPI   C2B13642   5.990  11.836   7.104  0.1198  0.2639  0.3258
  937loPI   C3B13643   5.927  11.840   7.492 -0.1616  0.0250 -0.0280
  937loPI   C4B13644   5.937  11.951   7.805  0.0124 -0.1308 -0.0666
  938loPI    C113645   2.988   9.902   5.371 -0.1570  0.4163  0.0491
  938loPI    C213646   2.710   9.992   5.098 -0.1566  0.1098 -0.0570
  938loPI    C313647   3.072  10.161   5.078 -0.2034  0.1998 -0.1588
  938loPI   PO413648   2.789   9.966   5.631 -0.0599 -0.0538  0.1188
  938loPI   GL113649   2.948  10.008   5.931 -0.3806 -0.0005 -0.1831
  938loPI   GL213650   3.233   9.798   5.992  0.0171  0.0581 -0.0885
  938loPI   C1A13651   2.772   9.938   6.337  0.1488  0.0188 -0.1529
  938loPI   C2A13652   2.782  10.009   6.831 -0.1095  0.2599 -0.0047
  938loPI   C3A13653   2.839  10.083   7.249  0.0995 -0.1135  0.1621
  938loPI   C4A13654   2.686  10.113   7.642 -0.0726  0.1414 -0.0915
  938loPI   C5A13655   2.634  10.469   8.005  0.1525  0.1237  0.0163
  938loPI   C6A13656   2.562  10.884   8.345 -0.0905  0.3468 -0.4888
  938loPI   C1B13657   3.206   9.766   6.413  0.1393  0.3532 -0.0396
  938loPI   C2B13658   3.255   9.779   6.920 -0.1330  0.0326  0.1050
  938loPI   C3B13659   3.226   9.728   7.338 -0.0806  0.1244  0.1754
  938loPI   C4B13660   3.331   9.767   7.760  0.0690 -0.0462  0.1483
  939loPI    C113661   1.931  17.760   5.693  0.2579  0.0049  0.1742
  939loPI    C213662   1.879  18.115   5.516  0.0084  0.0948  0.4202
  939loPI    C313663   2.208  17.900   5.442 -0.0285  0.1888 -0.0460
  939loPI   PO413664   1.878  17.770   5.983 -0.0439 -0.0065  0.2620
  939loPI   GL113665   2.092  17.806   6.329 -0.1819  0.1566  0.0186
  939loPI   GL213666   2.203  17.542   6.392  0.1638 -0.2611  0.0738
  939loPI   C1A13667   2.394  17.973   6.496  0.2605  0.1364  0.0475
  939loPI   C2A13668   2.518  17.925   7.000  0.0318 -0.0142 -0.2365
  939loPI   C3A13669   2.734  17.824   7.372 -0.1670 -0.0855  0.1731
  939loPI   C4A13670   2.844  17.986   7.775 -0.1652 -0.1255 -0.3882
  939loPI   C5A13671   2.937  18.005   8.218 -0.0769 -0.0100 -0.0344
  939loPI   C6A13672   2.988  17.674   8.639 -0.1625  0.2799  0.0026
  939loPI   C1B13673   2.206  17.577   6.852  0.1369  0.1030 -0.0346
  939loPI   C2B13674   2.197  17.672   7.351 -0.1605 -0.1371 -0.2544
  939loPI   C3B13675   2.356  17.966   7.699 -0.2867  0.0214  0.3967
  939loPI   C4B13676   2.349  18.102   8.147 -0.5154 -0.0358  0.2529
  940loPI    C113677   3.293  12.155   5.288 -0.2335 -0.0479 -0.0421
  940loPI    C213678   3.059  12.272   4.984  0.2745  0.1960 -0.3525
  940loPI    C313679   3.275  11.936   4.954 -0.0761 -0.0661 -0.0395
  940loPI   PO413680   3.128  12.162   5.473 -0.0702 -0.1666  0.2390
  940loPI   GL113681   3.058  11.884   5.922  0.1225  0.0499 -0.0076
  940loPI   GL213682   2.913  12.198   5.929  0.0007  0.2693  0.1994
  940loPI   C1A13683   3.210  11.879   6.292 -0.0620  0.3811  0.1796
  940loPI   C2A13684   3.241  11.804   6.665 -0.1976 -0.0557 -0.2379
  940loPI   C3A13685   3.359  11.823   7.134  0.2314  0.3051  0.4041
  940loPI   C4A13686   3.220  11.842   7.522 -0.3059 -0.1246 -0.1724
  940loPI   C5A13687   3.491  11.824   7.917  0.2113  0.1066  0.0969
  940loPI   C6A13688   3.480  11.552   8.274 -0.1004  0.0554 -0.0560
  940loPI   C1B13689   2.806  12.149   6.361  0.0381 -0.0664  0.2704
  940loPI   C2B13690   2.748  12.033   6.665  0.0951 -0.1739  0.3017
  940loPI   C3B13691   2.745  12.071   7.098 -0.0199 -0.1984  0.1180
  940loPI   C4B13692   2.776  12.173   7.573  0.0224  0.2239  0.0926
  941loPI    C113693  14.675  12.712   5.186 -0.0882 -0.3060  0.0066
  941loPI    C213694  14.925  12.906   4.941 -0.3295  0.0454  0.0308
  941loPI    C313695  14.660  12.646   4.792 -0.1836 -0.0686 -0.0315
  941loPI   PO413696  14.841  12.659   5.442  0.3182 -0.3474 -0.1530
  941loPI   GL113697  14.828  12.585   5.915  0.2106 -0.1962 -0.4528
  941loPI   GL213698  14.848  12.374   6.069  0.3983  0.0461  0.0747
  941loPI   C1A13699  15.175  12.682   6.240 -0.0486 -0.1205  0.0114
  941loPI   C2A13700  15.215  12.809   6.665  0.0938  0.2468 -0.2027
  941loPI   C3A13701  15.412  12.810   7.114  0.0829 -0.1133  0.0162
  941loPI   C4A13702  15.522  12.773   7.551 -0.1820 -0.1632  0.1113
  941loPI   C5A13703  15.193  12.700   7.816 -0.1883  0.0654 -0.0621
  941loPI   C6A13704  14.962  12.503   8.191  0.2313  0.1752 -0.0125
  941loPI   C1B13705  15.142  12.249   6.430  0.0351  0.3244  0.0148
  941loPI   C2B13706  15.340  12.284   6.836  0.0524 -0.0737 -0.2429
  941loPI   C3B13707  15.319  12.283   7.262  0.1648 -0.2807 -0.1383
  941loPI   C4B13708  15.333  12.213   7.770 -0.2382 -0.0043 -0.0982
  942loPI    C113709   7.338  17.283   5.570 -0.2173 -0.1323  0.1226
  942loPI    C213710   7.162  17.527   5.306 -0.1794 -0.1193  0.1094
  942loPI    C313711   7.083  17.135   5.299  0.0086 -0.1561 -0.0803
  942loPI   PO413712   7.356  17.571   5.780  0.0282  0.2810 -0.0926
  942loPI   GL113713   7.436  17.666   6.141 -0.0842 -0.1960 -0.0119
  942loPI   GL213714   7.630  17.402   6.195 -0.2301 -0.0398  0.0060
  942loPI   C1A13715   7.516  17.641   6.579  0.1503 -0.0715  0.1024
  942loPI   C2A13716   7.380  17.559   7.032 -0.0206 -0.0996 -0.0702
  942loPI   C3A13717   7.192  17.483   7.425  0.0389 -0.1964  0.0070
  942loPI   C4A13718   7.134  17.329   7.772  0.0291 -0.2688  0.1086
  942loPI   C5A13719   6.938  17.378   8.091 -0.0009 -0.1193  0.0826
  942loPI   C6A13720   6.789  17.204   8.455 -0.1263 -0.1036 -0.1954
  942loPI   C1B13721   8.079  17.321   6.549  0.1975 -0.1470 -0.0391
  942loPI   C2B13722   8.186  17.232   6.954  0.3698  0.0521  0.1522
  942loPI   C3B13723   8.144  17.054   7.392  0.1008  0.1123 -0.1795
  942loPI   C4B13724   8.300  17.046   7.803  0.1546 -0.1621  0.1776
  943loPI    C113725   2.033  15.143   5.342  0.0739  0.0738 -0.1347
  943loPI    C213726   1.798  14.821   5.319 -0.1446  0.2096  0.1457
  943loPI    C313727   1.763  15.113   5.048 -0.0243  0.0519 -0.0426
  943loPI   PO413728   2.056  15.214   5.687 -0.0397  0.2068  0.1169
  943loPI   GL113729   1.996  15.112   6.044  0.2165  0.1058  0.3350
  943loPI   GL213730   1.769  15.034   6.151 -0.0219  0.1880 -0.2968
  943loPI   C1A13731   2.118  15.226   6.444  0.1449  0.0561 -0.2639
  943loPI   C2A13732   2.003  15.391   6.831 -0.3538  0.2216  0.0397
  943loPI   C3A13733   1.952  15.306   7.238 -0.0320  0.2644  0.1103
  943loPI   C4A13734   1.874  15.204   7.728  0.0027  0.1341 -0.0072
  943loPI   C5A13735   1.545  15.367   8.003  0.1798  0.4062 -0.2183
  943loPI   C6A13736   1.246  15.766   8.021  0.0005 -0.4150  0.1156
  943loPI   C1B13737   1.638  15.053   6.547  0.1639  0.0212 -0.0577
  943loPI   C2B13738   1.544  15.114   6.951  0.0013 -0.1911  0.2531
  943loPI   C3B13739   1.432  15.122   7.396  0.0304  0.0243 -0.1265
  943loPI   C4B13740   1.189  15.192   7.707 -0.0133 -0.2481 -0.0805
  944loPI    C113741  11.221   3.365   5.195  0.0989 -0.1114  0.0765
  944loPI    C213742  11.256   3.764   5.209  0.6230 -0.1404 -0.1790
  944loPI    C313743  10.996   3.594   4.956  0.1606  0.0403  0.1618
  944loPI   PO413744  11.348   3.207   5.392 -0.2066 -0.0399 -0.3293
  944loPI   GL113745  11.270   3.126   5.879  0.1679  0.0948 -0.0562
  944loPI   GL213746  11.518   2.923   6.039 -0.1701 -0.2861  0.3376
  944loPI   C1A13747  11.149   3.126   6.401 -0.2013  0.0008 -0.1567
  944loPI   C2A13748  10.882   3.191   6.738 -0.0078  0.2134 -0.2071
  944loPI   C3A13749  10.636   3.263   7.010 -0.1271 -0.2064 -0.2365
  944loPI   C4A13750  10.534   3.323   7.460  0.2824 -0.0136 -0.1367
  944loPI   C5A13751  10.633   3.581   7.901 -0.1110  0.0709 -0.1331
  944loPI   C6A13752  10.745   3.821   8.307  0.1205 -0.1533  0.0172
  944loPI   C1B13753  11.824   2.845   6.404  0.2319 -0.0041  0.0560
  944loPI   C2B13754  12.013   2.902   6.703 -0.1162 -0.0347  0.0302
  944loPI   C3B13755  12.028   2.968   7.106 -0.0865 -0.4237 -0.0229
  944loPI   C4B13756  12.015   3.034   7.512 -0.1067 -0.0253  0.1626
  945loPI    C113757   3.996  17.149   5.617 -0.2461  0.1412 -0.0877
  945loPI    C213758   4.217  17.177   5.285  0.1038 -0.0386  0.1240
  945loPI    C313759   3.862  16.993   5.274  0.0449  0.0875 -0.1797
  945loPI   PO413760   4.158  17.031   5.782 -0.0741 -0.0605  0.0269
  945loPI   GL113761   4.092  16.980   6.196  0.0844  0.1330 -0.0322
  945loPI   GL213762   4.394  16.906   6.330  0.0955 -0.0543  0.0907
  945loPI   C1A13763   4.064  17.168   6.699 -0.2581 -0.3119 -0.1578
  945loPI   C2A13764   4.068  16.984   7.091 -0.0562  0.1624  0.1622
  945loPI   C3A13765   3.886  17.007   7.488 -0.0719  0.0903  0.1363
  945loPI   C4A13766   3.814  16.914   7.929 -0.0997  0.0345  0.0393
  945loPI   C5A13767   3.524  16.995   8.250 -0.2901  0.0147 -0.1794
  945loPI   C6A13768   3.472  17.324   8.625  0.1081  0.0713  0.2715
  945loPI   C1B13769   4.566  17.040   6.677  0.1962 -0.0702  0.0958
  945loPI   C2B13770   4.546  16.961   7.051  0.1589 -0.1577  0.1202
  945loPI   C3B13771   4.715  16.984   7.497 -0.1952 -0.1685  0.2500
  945loPI   C4B13772   4.985  17.186   7.796  0.2384 -0.0501  0.2960
  946loPI    C113773   9.165   2.390   5.423  0.2227  0.1148  0.0626
  946loPI    C213774   9.020   2.591   5.109  0.0864 -0.0830 -0.0029
  946loPI    C313775   9.089   2.198   5.081  0.0244 -0.1122  0.2300
  946loPI   PO413776   9.308   2.508   5.592 -0.1802  0.3251  0.1673
  946loPI   GL113777   9.384   2.536   5.981  0.1543 -0.1704 -0.2310
  946loPI   GL213778   9.590   2.750   6.041  0.4278 -0.2723  0.3422
  946loPI   C1A13779   9.468   2.247   6.316 -0.1691  0.1783 -0.1466
  946loPI   C2A13780   9.622   2.255   6.760 -0.0265 -0.2661 -0.0333
  946loPI   C3A13781   9.692   2.311   7.167  0.0970 -0.2954 -0.0019
  946loPI   C4A13782   9.528   2.277   7.525  0.1432 -0.1278 -0.1907
  946loPI   C5A13783   9.622   2.054   7.989  0.2648 -0.1460  0.3023
  946loPI   C6A13784   9.745   2.146   8.415 -0.3262  0.0531 -0.1367
  946loPI   C1B13785   9.646   2.824   6.508  0.0413 -0.1814  0.3175
  946loPI   C2B13786   9.778   2.752   6.891 -0.1734 -0.0958  0.3022
  946loPI   C3B13787   9.827   2.751   7.322  0.2585 -0.0728  0.1315
  946loPI   C4B13788   9.690   2.725   7.672 -0.0886  0.0899  0.2329
  947loPI    C113789  10.654  15.427   5.615  0.1756 -0.0010  0.1003
  947loPI    C213790  10.829  15.268   5.292  0.1043  0.2611 -0.0708
  947loPI    C313791  10.432  15.321   5.299  0.0988  0.2024  0.0844
  947loPI   PO413792  10.706  15.310   5.768 -0.1324  0.0002  0.2801
  947loPI   GL113793  10.888  15.331   6.108  0.0562  0.2095 -0.2103
  947loPI   GL213794  10.919  15.247   6.385 -0.0820 -0.0778  0.0536
  947loPI   C1A13795  10.913  15.717   6.444  0.0861 -0.2257  0.1095
  947loPI   C2A13796  10.934  15.733   6.944  0.0965  0.3121 -0.2353
  947loPI   C3A13797  10.758  15.709   7.343 -0.2754  0.1459 -0.1530
  947loPI   C4A13798  10.772  15.791   7.718  0.0379  0.0572  0.1678
  947loPI   C5A13799  10.731  15.815   8.093  0.0308 -0.0080 -0.0099
  947loPI   C6A13800  10.821  15.838   8.485 -0.2969 -0.1926  0.2342
  947loPI   C1B13801  10.939  15.224   6.772  0.1371 -0.1390 -0.0199
  947loPI   C2B13802  10.892  15.246   7.213  0.1709  0.0216 -0.0416
  947loPI   C3B13803  10.682  15.158   7.697  0.0151 -0.0204 -0.1896
  947loPI   C4B13804  10.449  15.004   8.100 -0.1652 -0.0791 -0.3272
  948loPI    C113805   1.378  17.155   5.256 -0.2405 -0.1363  0.0023
  948loPI    C213806   1.524  17.429   5.004  0.1282  0.0277  0.3813
  948loPI    C313807   1.341  17.104   4.862 -0.2958  0.4504 -0.0779
  948loPI   PO413808   1.254  17.222   5.359  0.1045 -0.2020 -0.3696
  948loPI   GL113809   1.350  17.313   5.765 -0.2283  0.0702 -0.3858
  948loPI   GL213810   1.398  17.653   5.982  0.1108  0.1055  0.2895
  948loPI   C1A13811   1.153  17.240   6.191 -0.0380 -0.4353  0.1740
  948loPI   C2A13812   1.331  17.237   6.629  0.1460  0.0337 -0.2353
  948loPI   C3A13813   1.431  17.047   7.023  0.3218 -0.3699 -0.0202
  948loPI   C4A13814   1.625  17.121   7.463 -0.1152 -0.1071 -0.3110
  948loPI   C5A13815   1.882  17.256   7.774  0.1436  0.0044 -0.2979
  948loPI   C6A13816   2.268  17.149   8.035 -0.1473  0.0083 -0.3003
  948loPI   C1B13817   1.306  17.666   6.408  0.2089  0.1200  0.3791
  948loPI   C2B13818   1.276  17.640   6.884  0.1334 -0.0194  0.0677
  948loPI   C3B13819   1.130  17.393   7.336  0.0285 -0.1049  0.3877
  948loPI   C4B13820   1.097  17.009   7.591  0.1212  0.0262  0.3711
  949loPI    C113821   1.796   1.368   5.894 -0.3522  0.1733  0.0822
  949loPI    C213822   1.663   1.723   5.767 -0.3713  0.1535  0.0467
  949loPI    C313823   1.782   1.448   5.502  0.0984  0.3084  0.0873
  949loPI   PO413824   1.811   1.419   6.216  0.2428  0.1205 -0.1824
  949loPI   GL113825   1.643   1.728   6.361  0.1018  0.1777 -0.0623
  949loPI   GL213826   1.889   1.634   6.684  0.0572  0.3016  0.1457
  949loPI   C1A13827   1.412   1.826   6.842  0.1331 -0.2059  0.1374
  949loPI   C2A13828   1.314   1.825   7.343 -0.1521 -0.3044  0.0669
  949loPI   C3A13829   1.170   1.897   7.706  0.0041  0.2533 -0.1706
  949loPI   C4A13830   0.859   1.808   8.029 -0.1912 -0.0777  0.1860
  949loPI   C5A13831   0.777   1.563   8.378 -0.0580  0.1556 -0.0476
  949loPI   C6A13832   0.433   1.409   8.660  0.1570  0.0256  0.2515
  949loPI   C1B13833   1.792   1.624   7.003 -0.0867  0.0570  0.0672
  949loPI   C2B13834   1.901   1.751   7.404 -0.2121 -0.0146  0.0552
  949loPI   C3B13835   1.663   1.894   7.800  0.2522 -0.0611 -0.1011
  949loPI   C4B13836   1.757   2.102   8.208 -0.1873 -0.1496  0.1040
  950loPI    C113837  14.246   8.708   5.315  0.0594 -0.0433  0.1659
  950loPI    C213838  13.986   8.766   5.017 -0.1346  0.0826  0.3567
  950loPI    C313839  14.374   8.848   4.962 -0.1580  0.0438  0.1205
  950loPI   PO413840  14.144   8.822   5.465 -0.0206 -0.0872  0.0029
  950loPI   GL113841  13.866   8.890   5.872  0.0590  0.2289 -0.0148
  950loPI   GL213842  14.137   8.589   5.915 -0.3015 -0.4080  0.4268
  950loPI   C1A13843  14.036   9.042   6.283  0.1938  0.0309  0.1141
  950loPI   C2A13844  14.026   9.168   6.711 -0.0493 -0.0329  0.1770
  950loPI   C3A13845  13.993   9.201   7.162 -0.2047 -0.1811  0.0755
  950loPI   C4A13846  14.083   9.320   7.645 -0.2608 -0.0080  0.2268
  950loPI   C5A13847  14.204   9.341   8.065  0.0121 -0.1750 -0.0831
  950loPI   C6A13848  14.623   9.412   8.194  0.1583  0.0153 -0.0418
  950loPI   C1B13849  14.026   8.544   6.439  0.0237 -0.0967  0.1129
  950loPI   C2B13850  14.100   8.562   6.859  0.0898 -0.1483 -0.2220
  950loPI   C3B13851  14.059   8.721   7.278  0.2879  0.0503  0.3413
  950loPI   C4B13852  14.298   8.829   7.589  0.2515  0.1874  0.2507
  951loPI    C113853   6.733   4.587   5.512  0.1668 -0.4387 -0.2388
  951loPI    C213854   7.117   4.611   5.404  0.1721 -0.0917 -0.1547
  951loPI    C313855   6.844   4.839   5.223  0.0383 -0.1800 -0.0659
  951loPI   PO413856   6.764   4.709   5.714  0.0869 -0.0241 -0.3041
  951loPI   GL113857   6.715   4.745   6.079 -0.2633 -0.2298 -0.0956
  951loPI   GL213858   6.329   4.850   6.063 -0.1508 -0.2974  0.0025
  951loPI   C1A13859   6.571   4.780   6.530  0.1455 -0.0187  0.1141
  951loPI   C2A13860   6.545   4.846   6.947  0.0228 -0.1284  0.2141
  951loPI   C3A13861   6.418   4.821   7.356 -0.0864  0.2690  0.1726
  951loPI   C4A13862   6.509   4.694   7.757 -0.2846  0.1177 -0.0684
  951loPI   C5A13863   6.303   4.794   8.107 -0.1079 -0.3684  0.0082
  951loPI   C6A13864   5.881   4.795   8.361 -0.1692  0.2374  0.1973
  951loPI   C1B13865   6.036   4.873   6.382  0.3029 -0.0434 -0.1125
  951loPI   C2B13866   5.992   4.896   6.889  0.1616  0.2007  0.0733
  951loPI   C3B13867   5.948   4.911   7.249  0.0988 -0.0964  0.1202
  951loPI   C4B13868   6.006   4.827   7.741  0.0398  0.2994  0.1617
  952loPI    C113869  17.661   2.006   5.496  0.1328 -0.0376  0.0554
  952loPI    C213870  17.457   2.148   5.183 -0.1265 -0.2325  0.1330
  952loPI    C313871  17.845   2.057   5.144 -0.0000  0.3160  0.0332
  952loPI   PO413872  17.522   2.119   5.719 -0.1460 -0.0267  0.0809
  952loPI   GL113873  17.211   1.996   6.040  0.2352 -0.3290 -0.0560
  952loPI   GL213874  16.980   2.030   6.198  0.0437  0.0374 -0.1403
  952loPI   C1A13875  17.429   1.997   6.470 -0.1255  0.0269  0.1765
  952loPI   C2A13876  17.474   1.999   6.899 -0.2453 -0.5331 -0.2018
  952loPI   C3A13877  17.416   1.963   7.353  0.0387 -0.3743 -0.0055
  952loPI   C4A13878  17.570   1.906   7.761 -0.0058 -0.2606 -0.2838
  952loPI   C5A13879  17.540   1.924   8.289  0.4055  0.0099 -0.0332
  952loPI   C6A13880  17.306   1.875   8.634  0.2155  0.0554  0.3553
  952loPI   C1B13881  16.925   2.210   6.584  0.0407  0.2526  0.0085
  952loPI   C2B13882  17.035   2.200   7.006 -0.2805  0.0979 -0.2106
  952loPI   C3B13883  16.946   2.206   7.433  0.1556  0.1303 -0.1299
  952loPI   C4B13884  17.024   2.132   7.813  0.1670 -0.2068 -0.0828
  953loPI    C113885  13.933  15.010   5.652  0.0484  0.0001  0.0669
  953loPI    C213886  14.180  14.811   5.408 -0.0034  0.1815 -0.1357
  953loPI    C313887  13.857  14.996   5.260 -0.1420  0.1306  0.0977
  953loPI   PO413888  13.898  14.925   5.877 -0.2182  0.2343 -0.3105
  953loPI   GL113889  14.210  14.828   6.221 -0.3659  0.3264  0.0540
  953loPI   GL213890  14.339  14.507   6.258 -0.1975  0.0597 -0.1196
  953loPI   C1A13891  14.154  14.688   6.667 -0.1256  0.3276  0.0541
  953loPI   C2A13892  14.200  14.623   7.086  0.1064 -0.1592 -0.1260
  953loPI   C3A13893  14.141  14.546   7.534 -0.0192  0.1231  0.0435
  953loPI   C4A13894  14.321  14.557   7.993 -0.1314 -0.2150  0.0315
  953loPI   C5A13895  14.655  14.365   8.067 -0.2750 -0.0082  0.2372
  953loPI   C6A13896  14.999  14.331   8.315 -0.1169 -0.2327  0.4525
  953loPI   C1B13897  14.401  14.260   6.616  0.0131  0.3459  0.0912
  953loPI   C2B13898  14.441  14.111   7.091  0.0912 -0.1200  0.2881
  953loPI   C3B13899  14.396  14.151   7.609 -0.1258 -0.0557 -0.2153
  953loPI   C4B13900  14.482  13.860   7.902  0.0117  0.1527 -0.0323
  954loPI    C113901   8.886  12.582   5.753 -0.1776  0.0997  0.2397
  954loPI    C213902   8.708  12.898   5.585  0.2401  0.1707 -0.0854
  954loPI    C313903   8.735  12.553   5.384  0.2020  0.0698  0.0814
  954loPI   PO413904   8.738  12.615   6.053  0.0169  0.2701 -0.0051
  954loPI   GL113905   8.472  12.714   6.419  0.2032 -0.2321  0.0669
  954loPI   GL213906   8.540  12.977   6.559  0.2864 -0.0563  0.1457
  954loPI   C1A13907   8.651  12.498   6.846 -0.2596  0.3478  0.1868
  954loPI   C2A13908   8.796  12.233   6.929  0.1790 -0.0627  0.2436
  954loPI   C3A13909   8.991  11.983   7.255  0.1020  0.0997  0.0116
  954loPI   C4A13910   8.765  11.704   7.497  0.0273 -0.1062  0.0206
  954loPI   C5A13911   8.670  11.666   7.894  0.3032  0.0996 -0.1519
  954loPI   C6A13912   8.882  11.618   8.294  0.0634 -0.2156 -0.1238
  954loPI   C1B13913   8.583  12.993   7.034 -0.2650  0.2244 -0.3287
  954loPI   C2B13914   8.551  13.251   7.360 -0.2018 -0.1221 -0.1730
  954loPI   C3B13915   8.627  13.422   7.736 -0.2905 -0.1120  0.0059
  954loPI   C4B13916   8.655  13.307   8.167 -0.0777 -0.1128  0.0046
  955loPI    C113917   6.017   4.376   5.622  0.1330 -0.0073 -0.0965
  955loPI    C213918   5.749   4.121   5.470  0.1689 -0.0697 -0.0556
  955loPI    C313919   5.903   4.410   5.240  0.0922 -0.0547 -0.0886
  955loPI   PO413920   5.948   4.520   5.863  0.0472  0.0204 -0.0203
  955loPI   GL113921   5.579   4.692   5.979  0.0233  0.2492 -0.1447
  955loPI   GL213922   5.606   4.556   6.285 -0.3047 -0.0617  0.3395
  955loPI   C1A13923   5.535   4.965   6.439  0.1293 -0.0779  0.1569
  955loPI   C2A13924   5.464   5.027   6.873 -0.0406  0.0139  0.1252
  955loPI   C3A13925   5.513   5.186   7.292 -0.1887 -0.1127 -0.1818
  955loPI   C4A13926   5.440   5.100   7.658  0.1174  0.1517 -0.1570
  955loPI   C5A13927   5.315   5.001   8.200  0.1693  0.1930  0.1495
  955loPI   C6A13928   5.414   4.861   8.619 -0.3631 -0.3324  0.1788
  955loPI   C1B13929   5.644   4.560   6.708  0.1104 -0.0148  0.0186
  955loPI   C2B13930   5.533   4.503   7.099 -0.2454  0.3029 -0.1552
  955loPI   C3B13931   5.629   4.608   7.514  0.1129  0.0230 -0.2446
  955loPI   C4B13932   5.557   4.494   7.992 -0.0166 -0.1426 -0.1496
  956loPI    C113933  10.234   5.249   5.338 -0.1002  0.0347  0.2189
  956loPI    C213934  10.621   5.318   5.266 -0.0985  0.0667  0.2580
  956loPI    C313935  10.382   5.192   4.971  0.0021 -0.2261  0.2979
  956loPI   PO413936  10.219   5.128   5.644 -0.0385 -0.1650 -0.2065
  956loPI   GL113937  10.209   5.228   6.105 -0.0616 -0.0016 -0.0649
  956loPI   GL213938  10.410   5.448   6.162 -0.3034 -0.0080 -0.1062
  956loPI   C1A13939  10.053   5.136   6.519 -0.1320 -0.0686  0.0873
  956loPI   C2A13940  10.136   5.062   6.990 -0.2054  0.2915  0.0172
  956loPI   C3A13941  10.300   4.933   7.557 -0.0463  0.0204 -0.0052
  956loPI   C4A13942  10.318   5.144   7.925  0.3535 -0.1556 -0.0906
  956loPI   C5A13943  10.592   5.157   8.280  0.2163 -0.3443 -0.0782
  956loPI   C6A13944  10.741   4.892   8.504 -0.1077 -0.2191 -0.1666
  956loPI   C1B13945  10.390   5.482   6.654 -0.0084  0.1677 -0.0809
  956loPI   C2B13946  10.229   5.559   7.032 -0.0278 -0.2599  0.0325
  956loPI   C3B13947  10.290   5.486   7.465 -0.5111 -0.0483 -0.0510
  956loPI   C4B13948  10.328   5.626   7.855 -0.3678 -0.0819  0.0302
  957loPI    C113949  14.129   5.609   5.616 -0.2148 -0.1610 -0.0374
  957loPI    C213950  14.220   5.351   5.325  0.0146  0.0024 -0.1139
  957loPI    C313951  14.244   5.744   5.258  0.0459  0.0415  0.1189
  957loPI   PO413952  14.219   5.549   5.858  0.0247  0.2957  0.0886
  957loPI   GL113953  14.303   5.575   6.225 -0.1550  0.1389 -0.0533
  957loPI   GL213954  14.513   5.515   6.297  0.2324 -0.0446  0.0282
  957loPI   C1A13955  14.141   5.625   6.531 -0.2432 -0.0954 -0.3211
  957loPI   C2A13956  14.039   5.681   6.918 -0.0330  0.0793 -0.0024
  957loPI   C3A13957  13.984   5.663   7.262 -0.1309 -0.1113 -0.2121
  957loPI   C4A13958  14.134   5.513   7.634 -0.0494  0.1716  0.0156
  957loPI   C5A13959  14.235   5.368   7.990  0.1406 -0.2243  0.1141
  957loPI   C6A13960  14.498   5.435   8.365 -0.2965  0.2009  0.1047
  957loPI   C1B13961  14.642   5.611   6.656  0.1937 -0.0547  0.0077
  957loPI   C2B13962  14.584   5.619   7.089 -0.1437 -0.0180  0.1139
  957loPI   C3B13963  14.666   5.509   7.465  0.0853  0.1412  0.0479
  957loPI   C4B13964  14.681   5.382   7.820  0.2731 -0.1250 -0.0874
  958loPI    C113965  11.020   2.843   5.404  0.4154  0.1695 -0.1539
  958loPI    C213966  10.898   3.047   5.083 -0.1254 -0.0677 -0.1093
  958loPI    C313967  11.217   2.808   5.058 -0.0328  0.0828 -0.4080
  958loPI   PO413968  10.874   3.033   5.596 -0.3250  0.4393 -0.2130
  958loPI   GL113969  10.766   3.076   6.020  0.0951  0.0396 -0.3480
  958loPI   GL213970  10.752   3.498   6.090  0.3637 -0.1517 -0.0323
  958loPI   C1A13971  10.478   3.198   6.402  0.1922 -0.2679 -0.0883
  958loPI   C2A13972  10.077   3.064   6.702 -0.1027 -0.0669  0.0183
  958loPI   C3A13973  10.150   3.069   7.127 -0.0547 -0.1055  0.0243
  958loPI   C4A13974  10.230   2.876   7.550  0.2882 -0.2564 -0.0412
  958loPI   C5A13975  10.470   3.118   7.925 -0.2485 -0.0408  0.3145
  958loPI   C6A13976  10.839   2.833   8.163  0.4431  0.0727 -0.0108
  958loPI   C1B13977  10.713   3.629   6.535  0.0298 -0.0907  0.0250
  958loPI   C2B13978  10.587   3.929   6.869  0.1348 -0.0519 -0.0428
  958loPI   C3B13979  10.472   3.842   7.283 -0.2333  0.2523  0.2918
  958loPI   C4B13980  10.342   3.953   7.709 -0.1885 -0.1314 -0.2692
  959loPI    C113981   6.266   3.916   5.772  0.1624  0.0172 -0.3775
  959loPI    C213982   6.277   3.532   5.663  0.0977 -0.0402 -0.1852
  959loPI    C313983   6.149   3.809   5.405  0.0246 -0.1632 -0.2823
  959loPI   PO413984   6.382   3.889   6.036  0.1283  0.0452  0.2020
  959loPI   GL113985   6.164   4.043   6.393 -0.2771 -0.4046 -0.1045
  959loPI   GL213986   6.104   4.338   6.299 -0.1070 -0.1754 -0.0656
  959loPI   C1A13987   6.236   4.038   6.743  0.0353  0.2317 -0.3499
  959loPI   C2A13988   6.267   3.894   7.227  0.0310  0.1957  0.1526
  959loPI   C3A13989   6.197   3.860   7.627 -0.0521  0.0139 -0.1987
  959loPI   C4A13990   6.299   3.874   8.057 -0.1654 -0.0343  0.0627
  959loPI   C5A13991   6.620   3.788   8.364 -0.1297  0.3290 -0.2442
  959loPI   C6A13992   7.015   3.628   8.490  0.0959 -0.4299  0.0814
  959loPI   C1B13993   6.170   4.491   6.702  0.0276 -0.0457 -0.0373
  959loPI   C2B13994   6.184   4.444   7.081  0.1709  0.1819  0.0758
  959loPI   C3B13995   6.181   4.393   7.478 -0.3436 -0.0871  0.2873
  959loPI   C4B13996   6.110   4.365   7.904 -0.1323 -0.0613 -0.0410
  960loPI    C113997   0.668   0.671   5.405  0.1221  0.1820 -0.0708
  960loPI    C213998   0.657   1.071   5.403  0.0346  0.1802 -0.0172
  960loPI    C313999   0.894   0.875   5.146 -0.0350  0.2629 -0.1450
  960loPI   PO414000   0.571   0.679   5.709 -0.0681  0.0527  0.2173
  960loPI   GL114001   0.662   0.354   6.118  0.0608  0.0650 -0.0635
  960loPI   GL214002   0.576   0.036   6.058  0.0210  0.2190  0.0419
  960loPI   C1A14003   0.394   0.486   6.561 -0.0019  0.0534 -0.0517
  960loPI   C2A14004   0.153   0.409   6.908 -0.0206 -0.0699  0.0998
  960loPI   C3A14005   0.169   0.434   7.367 -0.0283 -0.0339 -0.3542
  960loPI   C4A14006   0.036   0.438   7.785 -0.2189 -0.0153 -0.1058
  960loPI   C5A14007  -0.007   0.613   8.126 -0.0346 -0.2194  0.2689
  960loPI   C6A14008   0.074   0.981   8.342  0.3051 -0.2551  0.1695
  960loPI   C1B14009   0.637   0.084   6.541 -0.2031 -0.6297 -0.2393
  960loPI   C2B14010   0.731   0.248   6.902 -0.0959  0.3462  0.0129
  960loPI   C3B14011   0.803   0.231   7.285 -0.0335  0.1370  0.1137
  960loPI   C4B14012   1.101   0.013   7.522  0.0482  0.0815 -0.0381
  961loPI    C114013  11.849   5.744   5.601  0.3011  0.0511  0.1267
  961loPI    C214014  12.013   5.528   5.307 -0.1117 -0.0186 -0.0586
  961loPI    C314015  12.029   5.927   5.294  0.2068 -0.0266  0.0240
  961loPI   PO414016  11.912   5.672   5.772  0.2484 -0.2043  0.4808
  961loPI   GL114017  11.584   5.716   6.079  0.1341  0.1010 -0.0968
  961loPI   GL214018  11.297   5.814   6.165  0.0149  0.3473 -0.0730
  961loPI   C1A14019  11.818   5.512   6.447  0.1576 -0.1124  0.0966
  961loPI   C2A14020  11.861   5.449   6.862 -0.1550  0.1957 -0.2358
  961loPI   C3A14021  12.040   5.337   7.229  0.0941 -0.2188 -0.0152
  961loPI   C4A14022  12.233   5.181   7.462 -0.0739  0.1670  0.2124
  961loPI   C5A14023  12.423   5.282   7.752 -0.1039  0.0371  0.0919
  961loPI   C6A14024  12.582   5.274   8.142 -0.1217  0.0579 -0.3027
  961loPI   C1B14025  11.422   5.844   6.641 -0.1236  0.4949 -0.1759
  961loPI   C2B14026  11.498   5.739   7.010  0.1459  0.0809 -0.3068
  961loPI   C3B14027  11.686   5.806   7.452  0.1114  0.0905  0.3119
  961loPI   C4B14028  12.030   5.682   7.624  0.0085  0.2847 -0.1869
  962loPI    C114029  16.697   5.035   5.439 -0.0271 -0.0355  0.1410
  962loPI    C214030  16.793   4.660   5.537 -0.2846 -0.0995  0.1552
  962loPI    C314031  16.766   4.765   5.153 -0.1403 -0.0762  0.1512
  962loPI   PO414032  16.663   5.164   5.665 -0.0156 -0.0752  0.2719
  962loPI   GL114033  16.877   5.185   6.082  0.1712  0.0405 -0.0621
  962loPI   GL214034  16.537   5.046   6.195  0.1356 -0.2411  0.1134
  962loPI   C1A14035  16.966   5.438   6.360 -0.0235 -0.0418  0.1806
  962loPI   C2A14036  17.128   5.354   6.770 -0.2716  0.0997 -0.2007
  962loPI   C3A14037  17.093   5.453   7.154  0.2142 -0.1141 -0.0730
  962loPI   C4A14038  17.141   5.563   7.499  0.1012 -0.2752  0.0261
  962loPI   C5A14039  17.396   5.799   7.703 -0.0916  0.0763  0.1936
  962loPI   C6A14040  17.226   6.103   8.109  0.1871 -0.0484 -0.0854
  962loPI   C1B14041  16.701   5.042   6.590  0.1696  0.1135 -0.1043
  962loPI   C2B14042  16.697   5.159   6.951  0.2125  0.3882  0.0254
  962loPI   C3B14043  16.667   5.260   7.433  0.0455 -0.0027 -0.2191
  962loPI   C4B14044  16.724   5.523   7.857 -0.2034 -0.1592  0.2678
  963loPI    C114045  13.757  14.094   5.522 -0.0061 -0.2423 -0.2388
  963loPI    C214046  13.696  14.483   5.449  0.0446 -0.1784  0.0461
  963loPI    C314047  14.035  14.308   5.330 -0.0066 -0.1528 -0.1406
  963loPI   PO414048  13.678  14.107   5.779 -0.3516  0.1604  0.1129
  963loPI   GL114049  13.831  14.047   6.153  0.1607 -0.3241  0.3284
  963loPI   GL214050  13.891  14.309   6.381 -0.2102 -0.0509 -0.1927
  963loPI   C1A14051  14.244  13.953   6.249 -0.3145  0.1720 -0.3991
  963loPI   C2A14052  14.526  13.610   6.417  0.0704  0.1821 -0.1668
  963loPI   C3A14053  14.764  13.490   6.814  0.2487 -0.1096  0.0726
  963loPI   C4A14054  15.055  13.582   7.156  0.0625  0.2053  0.0611
  963loPI   C5A14055  15.319  13.761   7.496 -0.0736  0.1690  0.3295
  963loPI   C6A14056  15.532  14.159   7.482  0.2341 -0.1129 -0.0218
  963loPI   C1B14057  13.939  14.197   6.763 -0.0677  0.1460  0.0577
  963loPI   C2B14058  13.938  14.192   7.175  0.1231 -0.3130 -0.0141
  963loPI   C3B14059  13.818  14.147   7.649  0.0105 -0.2660 -0.1834
  963loPI   C4B14060  14.064  14.108   8.077 -0.1456 -0.1206  0.0949
  964loPI    C114061  17.126   8.704   5.233 -0.1398 -0.1241  0.0024
  964loPI    C214062  17.400   8.653   4.946  0.1600 -0.0022  0.2598
  964loPI    C314063  17.292   8.345   5.177  0.2154 -0.0086  0.2772
  964loPI   PO414064  17.272   8.939   5.359 -0.1741 -0.0592 -0.0435
  964loPI   GL114065  17.344   9.093   5.719 -0.0951  0.4555 -0.1447
  964loPI   GL214066  17.664   9.102   5.854 -0.2756 -0.0292 -0.0655
  964loPI   C1A14067  17.240   9.290   6.024 -0.1820  0.1834 -0.1216
  964loPI   C2A14068  17.337   9.417   6.468 -0.1013 -0.1148 -0.0085
  964loPI   C3A14069  17.351   9.459   6.887  0.0064  0.1022 -0.3222
  964loPI   C4A14070  17.474   9.492   7.450  0.1520  0.0736 -0.3048
  964loPI   C5A14071  17.732   9.710   7.783 -0.4681 -0.1327 -0.0814
  964loPI   C6A14072  18.127   9.671   8.139  0.1191 -0.2932 -0.3294
  964loPI   C1B14073  17.616   9.013   6.257  0.0835 -0.2145  0.1734
  964loPI   C2B14074  17.666   9.078   6.743  0.0596  0.0729  0.3595
  964loPI   C3B14075  17.616   9.091   7.094  0.1628  0.1421  0.4551
  964loPI   C4B14076  17.386   9.031   7.506 -0.3229 -0.1687  0.0871
  965loPI    C114077  17.862  16.286   5.561  0.3080 -0.2093 -0.0110
  965loPI    C214078  18.251  16.373   5.596  0.2909 -0.1463  0.0258
  965loPI    C314079  18.100  16.272   5.240  0.2797  0.1336 -0.0509
  965loPI   PO414080  17.632  16.465   5.726  0.1236  0.0837 -0.1543
  965loPI   GL114081  17.531  16.620   6.017  0.3572  0.1150 -0.1170
  965loPI   GL214082  17.329  16.502   6.130  0.0419 -0.2551  0.1416
  965loPI   C1A14083  17.697  16.812   6.347  0.1521  0.2951 -0.2063
  965loPI   C2A14084  17.934  16.811   6.803  0.3161 -0.0383  0.1535
  965loPI   C3A14085  18.001  17.002   7.252 -0.3693 -0.0262 -0.3009
  965loPI   C4A14086  18.077  17.144   7.561  0.2049  0.0704 -0.1345
  965loPI   C5A14087  17.892  17.302   7.873  0.5492  0.3281  0.1288
  965loPI   C6A14088  18.034  17.155   8.242 -0.0693  0.1145  0.0044
  965loPI   C1B14089  17.549  16.254   6.458 -0.2155 -0.0081  0.2372
  965loPI   C2B14090  17.969  16.301   6.590  0.1860 -0.5256  0.0306
  965loPI   C3B14091  18.165  16.417   7.091  0.0041 -0.0965 -0.1318
  965loPI   C4B14092  18.133  16.355   7.491  0.1072  0.1530  0.1954
  966loPI    C114093  17.158  12.523   5.019 -0.0408 -0.1945 -0.1106
  966loPI    C214094  16.974  12.499   4.665 -0.5031  0.3850  0.0725
  966loPI    C314095  17.226  12.801   4.739 -0.0950  0.0444  0.1086
  966loPI   PO414096  17.015  12.342   5.184 -0.2164  0.0342 -0.2192
  966loPI   GL114097  16.965  12.478   5.615 -0.0552  0.1475 -0.1672
  966loPI   GL214098  16.744  12.398   5.698 -0.3847 -0.1827 -0.0214
  966loPI   C1A14099  17.017  12.305   6.058 -0.0635  0.0802  0.1690
  966loPI   C2A14100  17.114  12.329   6.506 -0.0427 -0.1219  0.5159
  966loPI   C3A14101  17.108  12.163   6.988  0.5453 -0.1276 -0.1547
  966loPI   C4A14102  17.177  12.184   7.436  0.3844  0.0673  0.1191
  966loPI   C5A14103  16.881  12.254   7.804 -0.0514  0.2727 -0.1183
  966loPI   C6A14104  16.545  12.215   8.191  0.2733  0.2592  0.0737
  966loPI   C1B14105  16.622  12.631   6.035 -0.0486  0.5749 -0.1162
  966loPI   C2B14106  16.660  12.478   6.451 -0.1485  0.0139  0.1211
  966loPI   C3B14107  16.641  12.497   6.876  0.1904 -0.1941 -0.1488
  966loPI   C4B14108  16.689  12.461   7.328 -0.1064 -0.2260 -0.2155
  967loPI    C114109   5.295   5.564   5.559 -0.1390 -0.0393 -0.2585
  967loPI    C214110   5.509   5.717   5.258  0.1614 -0.1016 -0.0810
  967loPI    C314111   5.671   5.441   5.498 -0.1093 -0.1252  0.0784
  967loPI   PO414112   5.203   5.781   5.717  0.0853 -0.1594 -0.2504
  967loPI   GL114113   5.037   5.722   6.243  0.0167  0.2190  0.0203
  967loPI   GL214114   4.829   5.880   6.034  0.0703 -0.0499 -0.1458
  967loPI   C1A14115   4.870   5.656   6.645 -0.0362 -0.0592 -0.3331
  967loPI   C2A14116   4.929   5.814   7.134 -0.2296  0.2038  0.2828
  967loPI   C3A14117   4.837   5.830   7.632 -0.1451  0.1320  0.0343
  967loPI   C4A14118   4.553   5.689   7.952  0.2423 -0.0615 -0.0512
  967loPI   C5A14119   4.522   5.521   8.302  0.1348 -0.0567 -0.2378
  967loPI   C6A14120   4.497   5.253   8.617  0.0934 -0.3547 -0.2129
  967loPI   C1B14121   4.848   6.119   6.486  0.6301 -0.3171  0.0365
  967loPI   C2B14122   4.895   6.308   6.896 -0.0988 -0.0688 -0.1381
  967loPI   C3B14123   4.796   6.256   7.363 -0.1344 -0.0139  0.4192
  967loPI   C4B14124   4.765   6.437   7.697  0.0955 -0.0759 -0.0777
  968loPI    C114125   8.676   3.391   5.603 -0.0934 -0.1069  0.0751
  968loPI    C214126   8.423   3.559   5.342 -0.0363 -0.1598 -0.0148
  968loPI    C314127   8.742   3.357   5.210  0.0680 -0.0708  0.0984
  968loPI   PO414128   8.849   3.573   5.768  0.2778 -0.0938 -0.1921
  968loPI   GL114129   9.002   3.467   6.130  0.2704 -0.5226  0.0041
  968loPI   GL214130   9.189   3.743   6.208  0.0722  0.0284  0.0760
  968loPI   C1A14131   9.237   3.258   6.538 -0.3139 -0.2653  0.0203
  968loPI   C2A14132   9.331   2.979   6.845  0.0235  0.0682  0.0873
  968loPI   C3A14133   9.282   2.920   7.247  0.1974  0.1301  0.1481
  968loPI   C4A14134   9.223   2.836   7.605 -0.0739  0.6239 -0.1278
  968loPI   C5A14135   9.249   2.558   7.879  0.1432 -0.2688  0.1678
  968loPI   C6A14136   9.454   2.548   8.341 -0.0991 -0.1956  0.1404
  968loPI   C1B14137   8.929   3.938   6.575  0.1477  0.3548 -0.0152
  968loPI   C2B14138   9.149   4.115   6.894  0.1514 -0.0121 -0.0710
  968loPI   C3B14139   9.473   3.899   6.968  0.2322 -0.3141 -0.2403
  968loPI   C4B14140   9.539   3.787   7.318 -0.0175  0.1098  0.3416
  969loPI    C114141  12.785  11.986   5.811 -0.3654  0.0400 -0.1005
  969loPI    C214142  12.524  12.140   5.550 -0.3670  0.2129  0.0013
  969loPI    C314143  12.807  12.372   5.710 -0.2059  0.0474 -0.0400
  969loPI   PO414144  12.696  11.909   6.065  0.2217 -0.0780 -0.0362
  969loPI   GL114145  12.947  11.906   6.331 -0.0673 -0.0840  0.2452
  969loPI   GL214146  12.782  11.536   6.357  0.1059 -0.0726  0.3937
  969loPI   C1A14147  12.852  12.092   6.689  0.1674 -0.1160  0.5106
  969loPI   C2A14148  12.884  12.017   7.154  0.0503 -0.0816 -0.3857
  969loPI   C3A14149  12.774  12.156   7.561  0.0710 -0.1698  0.1774
  969loPI   C4A14150  12.499  12.333   7.867  0.3041 -0.1532  0.0794
  969loPI   C5A14151  12.279  12.446   8.268  0.4820 -0.3400  0.0855
  969loPI   C6A14152  11.890  12.417   8.507 -0.2402 -0.5208 -0.0061
  969loPI   C1B14153  12.801  11.547   6.767 -0.0680  0.2502 -0.3087
  969loPI   C2B14154  12.986  11.443   7.047  0.0013 -0.0348 -0.1354
  969loPI   C3B14155  12.778  11.631   7.446  0.0322  0.1775  0.1506
  969loPI   C4B14156  12.616  11.657   7.843  0.2044 -0.0678 -0.0344
  970loPI    C114157   3.063  16.810   5.659 -0.0221  0.1892  0.2416
  970loPI    C214158   3.347  16.594   5.839  0.2551  0.4207  0.0905
  970loPI    C314159   3.426  16.781   5.494 -0.2774 -0.0484 -0.3049
  970loPI   PO414160   3.012  16.934   5.934 -0.0478 -0.2402  0.2176
  970loPI   GL114161   2.695  16.959   6.300 -0.1906  0.0423 -0.2678
  970loPI   GL214162   3.013  16.718   6.418  0.2783 -0.1331 -0.2129
  970loPI   C1A14163   2.591  17.010   6.747  0.0219  0.2125  0.0091
  970loPI   C2A14164   2.493  16.855   7.179  0.0625  0.1938  0.0807
  970loPI   C3A14165   2.513  16.693   7.557  0.0321 -0.0624  0.2463
  970loPI   C4A14166   2.396  16.616   7.998  0.1616  0.2181  0.3628
  970loPI   C5A14167   2.459  16.405   8.394  0.0236  0.4202  0.0691
  970loPI   C6A14168   2.863  16.445   8.574 -0.1315  0.2389  0.2170
  970loPI   C1B14169   2.845  16.606   6.735 -0.0883  0.1998  0.1728
  970loPI   C2B14170   2.828  16.450   7.201 -0.0118 -0.1024  0.1099
  970loPI   C3B14171   2.973  16.345   7.540 -0.0801 -0.0155  0.0925
  970loPI   C4B14172   2.899  16.347   8.018  0.0532  0.0380 -0.2628
  971loPI    C114173  17.519  14.745   5.199  0.1342 -0.0083 -0.0600
  971loPI    C214174  17.588  14.497   4.893 -0.0936  0.0354 -0.1487
  971loPI    C314175  17.614  14.892   4.839 -0.0128  0.0397 -0.0797
  971loPI   PO414176  17.662  14.585   5.394 -0.3334  0.0921  0.3707
  971loPI   GL114177  17.720  14.488   5.830 -0.1545  0.0929  0.0297
  971loPI   GL214178  17.363  14.647   5.939 -0.1017  0.1205 -0.0959
  971loPI   C1A14179  17.845  14.567   6.126 -0.3012  0.1942 -0.1160
  971loPI   C2A14180  17.818  14.588   6.597  0.1664  0.1733  0.1035
  971loPI   C3A14181  17.772  14.630   7.008 -0.0686  0.0971 -0.1329
  971loPI   C4A14182  17.855  14.684   7.460  0.1218 -0.3159  0.0180
  971loPI   C5A14183  18.077  14.959   7.731 -0.3773  0.4062 -0.2178
  971loPI   C6A14184  18.279  14.919   8.057 -0.2851  0.2588  0.3899
  971loPI   C1B14185  17.383  14.702   6.327  0.1069  0.2020 -0.4102
  971loPI   C2B14186  17.230  14.571   6.778  0.1775  0.0756  0.0441
  971loPI   C3B14187  17.323  14.512   7.237  0.2453 -0.0429  0.0433
  971loPI   C4B14188  17.363  14.225   7.578  0.2342 -0.2658 -0.2055
  972loPI    C114189  15.549   1.020   5.560  0.1891 -0.1741 -0.1013
  972loPI    C214190  15.248   0.844   5.364 -0.0396 -0.0213  0.1069
  972loPI    C314191  15.297   1.240   5.342  0.1215 -0.0402  0.1092
  972loPI   PO414192  15.541   0.867   5.805  0.2413  0.2889 -0.0121
  972loPI   GL114193  15.664   1.007   6.259  0.2875 -0.2966 -0.0972
  972loPI   GL214194  15.903   0.992   6.451 -0.0452 -0.2585 -0.1338
  972loPI   C1A14195  15.457   0.974   6.602  0.0401 -0.0292  0.0096
  972loPI   C2A14196  15.450   1.078   6.966 -0.3536 -0.4396 -0.0984
  972loPI   C3A14197  15.312   1.060   7.374 -0.0419 -0.4483  0.2344
  972loPI   C4A14198  15.190   1.168   7.778  0.1919  0.3120  0.0147
  972loPI   C5A14199  14.904   0.986   8.040 -0.1083 -0.0241 -0.0079
  972loPI   C6A14200  14.880   0.915   8.443 -0.0301 -0.0941 -0.2408
  972loPI   C1B14201  15.945   1.003   6.887  0.0724 -0.1888 -0.1476
  972loPI   C2B14202  15.975   1.156   7.245 -0.0020  0.0544 -0.0568
  972loPI   C3B14203  16.005   1.113   7.648 -0.2012 -0.0093  0.0836
  972loPI   C4B14204  16.160   1.160   7.988  0.0086  0.1990  0.1417
  973loPI    C114205  16.661  11.485   5.266  0.0400  0.0048 -0.0918
  973loPI    C214206  16.498  11.705   4.975 -0.1046 -0.2735 -0.2247
  973loPI    C314207  16.843  11.512   4.911  0.0586 -0.0325 -0.0852
  973loPI   PO414208  16.675  11.591   5.438  0.1809 -0.0152  0.2881
  973loPI   GL114209  16.614  11.560   5.890 -0.0166 -0.2010 -0.0964
  973loPI   GL214210  16.714  11.921   5.775 -0.0404 -0.2936 -0.1196
  973loPI   C1A14211  16.553  11.504   6.385 -0.0586 -0.0186 -0.2890
  973loPI   C2A14212  16.672  11.466   6.831  0.1717  0.4400 -0.0188
  973loPI   C3A14213  16.683  11.433   7.282  0.1151 -0.0489 -0.0852
  973loPI   C4A14214  16.454  11.387   7.654  0.0814  0.1640 -0.3761
  973loPI   C5A14215  16.058  11.318   7.673  0.0493  0.0594  0.2039
  973loPI   C6A14216  15.829  11.482   8.077 -0.0625  0.0354 -0.1081
  973loPI   C1B14217  16.537  12.038   6.195 -0.4211 -0.1815 -0.1776
  973loPI   C2B14218  16.551  11.986   6.564 -0.0213 -0.0347 -0.2775
  973loPI   C3B14219  16.622  11.955   7.001 -0.3421 -0.3833  0.0721
  973loPI   C4B14220  16.761  11.872   7.426  0.0283 -0.1583  0.0117
  974loPI    C114221  13.133  14.098   5.986  0.1496 -0.4289 -0.1707
  974loPI    C214222  13.239  14.370   5.712 -0.0400 -0.2711 -0.0897
  974loPI    C314223  13.176  13.990   5.603 -0.0500 -0.2232 -0.2534
  974loPI   PO414224  13.335  14.134   6.195  0.0121  0.2069 -0.2375
  974loPI   GL114225  13.403  14.137   6.559 -0.0794  0.1295  0.3852
  974loPI   GL214226  13.174  14.285   6.749 -0.1731  0.0014  0.1067
  974loPI   C1A14227  13.495  13.964   6.844 -0.1662 -0.0501 -0.1408
  974loPI   C2A14228  13.520  13.934   7.350 -0.0692 -0.3794  0.1374
  974loPI   C3A14229  13.717  13.670   7.711  0.1820  0.1968 -0.2597
  974loPI   C4A14230  13.623  13.640   8.100  0.0380 -0.0396 -0.0519
  974loPI   C5A14231  13.562  13.408   8.441  0.0048  0.1465 -0.1056
  974loPI   C6A14232  13.676  13.037   8.691  0.2107  0.0973  0.0182
  974loPI   C1B14233  13.030  14.226   7.228  0.1681  0.0905 -0.1142
  974loPI   C2B14234  13.028  14.055   7.607 -0.0359  0.0711 -0.0637
  974loPI   C3B14235  13.366  14.040   7.827 -0.0166 -0.0023  0.1137
  974loPI   C4B14236  13.533  14.269   8.136 -0.0032 -0.1118  0.0914
  975loPI    C114237   0.591   7.231   5.567 -0.1429 -0.0409 -0.0825
  975loPI    C214238   0.309   7.323   5.299  0.0781  0.0914 -0.2739
  975loPI    C314239   0.435   6.945   5.335  0.0553  0.0749 -0.3646
  975loPI   PO414240   0.458   7.359   5.764  0.1957  0.2605 -0.0114
  975loPI   GL114241   0.590   7.365   6.200 -0.0617  0.1304 -0.3908
  975loPI   GL214242   0.673   7.079   6.326 -0.0308  0.0037 -0.0510
  975loPI   C1A14243   0.322   7.674   6.383  0.2160  0.2862  0.1970
  975loPI   C2A14244   0.088   7.830   6.560  0.1292 -0.0343 -0.0877
  975loPI   C3A14245  -0.080   7.897   6.922 -0.1182 -0.0006 -0.1163
  975loPI   C4A14246  -0.110   8.110   7.338 -0.3058  0.3196 -0.2060
  975loPI   C5A14247  -0.319   8.093   7.714 -0.3142  0.0527 -0.0137
  975loPI   C6A14248  -0.569   8.298   8.091  0.0745 -0.0255 -0.1325
  975loPI   C1B14249   0.602   7.408   6.707  0.0697 -0.3999 -0.0257
  975loPI   C2B14250   0.449   7.712   6.939 -0.3237 -0.2793  0.3146
  975loPI   C3B14251   0.320   7.886   7.219 -0.0116 -0.0065 -0.2928
  975loPI   C4B14252   0.230   7.931   7.621  0.0732  0.0682  0.0602
  976loPI    C114253  15.345  12.754   5.171  0.0705  0.3465  0.1768
  976loPI    C214254  15.416  12.920   4.815 -0.1659 -0.1329 -0.1037
  976loPI    C314255  15.597  12.579   4.916  0.0739  0.1154  0.3357
  976loPI   PO414256  15.430  12.968   5.355  0.1126 -0.0208 -0.1300
  976loPI   GL114257  15.669  12.995   5.763  0.0688  0.1245  0.1114
  976loPI   GL214258  15.483  13.156   5.952  0.3105  0.1718  0.0125
  976loPI   C1A14259  15.667  12.726   6.089 -0.1967  0.3085 -0.0104
  976loPI   C2A14260  15.611  12.542   6.464 -0.0594  0.1513 -0.4237
  976loPI   C3A14261  15.760  12.488   6.834  0.1903  0.1459  0.2795
  976loPI   C4A14262  15.825  12.471   7.277  0.0471 -0.0755 -0.0228
  976loPI   C5A14263  15.893  12.439   7.725  0.1031  0.1097 -0.0217
  976loPI   C6A14264  15.727  12.662   7.999  0.2182 -0.0521  0.3287
  976loPI   C1B14265  15.458  13.103   6.389  0.2102 -0.1658 -0.3425
  976loPI   C2B14266  15.751  12.991   6.645  0.0889 -0.1418  0.2655
  976loPI   C3B14267  15.823  13.052   6.980 -0.3088  0.0947  0.0244
  976loPI   C4B14268  15.881  13.098   7.390  0.0158  0.0938  0.1701
  977loPI    C114269   8.719  14.215   5.680  0.1000  0.0318  0.1464
  977loPI    C214270   8.925  13.932   5.874 -0.0182 -0.0371  0.1722
  977loPI    C314271   8.896  13.921   5.475  0.0094 -0.0400  0.1703
  977loPI   PO414272   8.769  14.444   5.817 -0.1878  0.1161  0.1759
  977loPI   GL114273   8.867  14.693   6.194  0.1651  0.1482  0.2229
  977loPI   GL214274   8.556  14.551   6.276  0.0043  0.0307  0.0533
  977loPI   C1A14275   9.011  14.377   6.413 -0.3741  0.2537  0.1114
  977loPI   C2A14276   9.265  14.357   6.713  0.0689 -0.0235 -0.1900
  977loPI   C3A14277   9.288  14.192   7.018  0.3354 -0.3061  0.0542
  977loPI   C4A14278   9.175  14.110   7.479 -0.1453 -0.3616 -0.0096
  977loPI   C5A14279   9.110  14.124   7.787  0.4475 -0.0033 -0.2377
  977loPI   C6A14280   9.321  14.039   8.232  0.0578  0.1901  0.1053
  977loPI   C1B14281   8.630  14.597   6.686  0.2461  0.3497  0.0060
  977loPI   C2B14282   8.366  14.639   7.136  0.0474  0.0820 -0.0401
  977loPI   C3B14283   8.293  14.570   7.609 -0.0373  0.0789  0.2025
  977loPI   C4B14284   8.306  14.743   8.079 -0.0588  0.0784 -0.2176
  978loPI    C114285   2.907   9.452   5.164 -0.1631 -0.0382  0.0085
  978loPI    C214286   3.189   9.219   5.002 -0.1049  0.1459 -0.1581
  978loPI    C314287   2.979   9.470   4.771  0.0045  0.4389  0.0547
  978loPI   PO414288   2.818   9.251   5.388 -0.1102  0.0609  0.0649
  978loPI   GL114289   2.786   9.460   5.823 -0.1615  0.2947  0.1140
  978loPI   GL214290   2.548   9.680   5.919 -0.0204 -0.2062 -0.1682
  978loPI   C1A14291   2.865   9.465   6.342  0.0196 -0.1703  0.1497
  978loPI   C2A14292   2.870   9.559   6.824  0.2420  0.1520  0.1851
  978loPI   C3A14293   2.744   9.599   7.260 -0.1713  0.2928  0.3359
  978loPI   C4A14294   2.810   9.619   7.749  0.1093  0.0195  0.2069
  978loPI   C5A14295   3.086   9.484   8.123 -0.0445 -0.0652 -0.3009
  978loPI   C6A14296   3.450   9.688   8.307  0.1556 -0.0130 -0.2534
  978loPI   C1B14297   2.268   9.683   6.310  0.1597 -0.0452 -0.5413
  978loPI   C2B14298   2.374   9.738   6.740  0.0567  0.1551 -0.0769
  978loPI   C3B14299   2.302   9.749   7.209 -0.0489  0.0989 -0.0157
  978loPI   C4B14300   2.337   9.752   7.659  0.1482 -0.0859  0.2148
  979loPI    C114301  15.041   6.963   5.365 -0.0188 -0.2051 -0.0927
  979loPI    C214302  15.258   7.153   5.088 -0.0770 -0.0092 -0.0053
  979loPI    C314303  14.874   7.068   5.017 -0.1196  0.1313  0.0537
  979loPI   PO414304  14.956   7.134   5.651  0.0379  0.2252  0.1508
  979loPI   GL114305  15.114   7.158   6.126  0.2864 -0.0294  0.2736
  979loPI   GL214306  15.083   6.805   6.211  0.1038 -0.1114  0.1602
  979loPI   C1A14307  14.984   7.335   6.479  0.1788  0.2267  0.1878
  979loPI   C2A14308  14.927   7.469   6.841  0.2006  0.3255  0.0991
  979loPI   C3A14309  14.929   7.410   7.321  0.1859 -0.0853  0.2694
  979loPI   C4A14310  14.799   7.609   7.750 -0.0928 -0.1608 -0.1243
  979loPI   C5A14311  14.551   7.929   8.055  0.0707 -0.0510 -0.1120
  979loPI   C6A14312  14.196   7.972   8.247  0.0159 -0.0871  0.1467
  979loPI   C1B14313  15.101   6.879   6.596  0.5328  0.1589  0.1550
  979loPI   C2B14314  15.025   7.027   6.976 -0.1229  0.2134 -0.2271
  979loPI   C3B14315  15.105   6.914   7.337  0.0296  0.3162  0.0593
  979loPI   C4B14316  15.023   6.939   7.684  0.3128 -0.2602 -0.1825
  980loPI    C114317  14.907   4.578   5.820 -0.1309  0.0402  0.1272
  980loPI    C214318  14.699   4.771   5.538  0.1264  0.2215  0.0572
  980loPI    C314319  14.768   4.378   5.503 -0.2035  0.1583  0.0840
  980loPI   PO414320  14.792   4.681   6.038 -0.2359  0.1253  0.0117
  980loPI   GL114321  14.755   4.592   6.428 -0.1791  0.0430  0.0823
  980loPI   GL214322  14.905   4.849   6.567  0.0007  0.3454 -0.3460
  980loPI   C1A14323  14.501   4.549   6.809  0.0111  0.0540  0.5826
  980loPI   C2A14324  14.444   4.508   7.271  0.1578  0.1201  0.0393
  980loPI   C3A14325  14.346   4.445   7.643 -0.0605  0.1550  0.1080
  980loPI   C4A14326  14.271   4.387   8.069  0.3092 -0.0980 -0.1974
  980loPI   C5A14327  14.363   3.924   8.353  0.1856 -0.1045 -0.1042
  980loPI   C6A14328  14.350   3.500   8.466  0.1984  0.0151  0.0927
  980loPI   C1B14329  14.793   4.823   7.047 -0.1737  0.1309  0.0054
  980loPI   C2B14330  14.802   4.964   7.443  0.2925  0.1517  0.1006
  980loPI   C3B14331  14.682   4.907   7.878 -0.1593  0.1061  0.0044
  980loPI   C4B14332  14.941   4.952   8.257  0.0597 -0.3868 -0.2755
  981loPI    C114333  14.295   1.700   5.573  0.1502 -0.0062  0.2814
  981loPI    C214334  13.979   1.456   5.581  0.1549 -0.0161  0.1816
  981loPI    C314335  14.335   1.318   5.463  0.1111  0.0903 -0.0809
  981loPI   PO414336  14.398   1.840   5.849 -0.0839 -0.3902 -0.1333
  981loPI   GL114337  14.414   2.117   6.161 -0.1310 -0.2117  0.4663
  981loPI   GL214338  14.474   1.874   6.404  0.1695 -0.1758 -0.1318
  981loPI   C1A14339  14.346   2.311   6.628  0.1746 -0.1470  0.0367
  981loPI   C2A14340  14.499   2.532   7.022  0.0684  0.2876 -0.1351
  981loPI   C3A14341  14.605   2.695   7.331 -0.2997 -0.0178 -0.0944
  981loPI   C4A14342  14.629   2.918   7.775 -0.2623 -0.0412 -0.1619
  981loPI   C5A14343  14.234   3.131   7.880  0.0751  0.0759  0.4127
  981loPI   C6A14344  14.122   3.576   7.998 -0.1429 -0.0754  0.3634
  981loPI   C1B14345  14.700   1.639   6.761 -0.0841 -0.3100  0.0295
  981loPI   C2B14346  14.662   1.709   7.229 -0.2823  0.1786  0.0969
  981loPI   C3B14347  14.612   1.870   7.596 -0.1922  0.0516  0.1229
  981loPI   C4B14348  14.666   1.928   8.016  0.0323  0.3168  0.2387
  982loPI    C114349  12.505  11.209   5.525 -0.0466  0.0387 -0.1766
  982loPI    C214350  12.106  11.238   5.523 -0.0600 -0.0880  0.1289
  982loPI    C314351  12.295  11.059   5.220 -0.2444 -0.1399  0.0438
  982loPI   PO414352  12.584  11.107   5.688  0.2111  0.1318  0.2286
  982loPI   GL114353  12.684  11.094   6.054 -0.0182  0.0247  0.0822
  982loPI   GL214354  12.385  11.303   6.151  0.4406 -0.1387  0.3157
  982loPI   C1A14355  12.807  11.067   6.514  0.0012  0.1852 -0.0977
  982loPI   C2A14356  12.665  11.081   6.956  0.2590  0.0636  0.3839
  982loPI   C3A14357  12.874  11.131   7.424 -0.1870 -0.1892  0.0925
  982loPI   C4A14358  13.095  11.122   7.824 -0.0562  0.0116  0.2798
  982loPI   C5A14359  13.084  11.193   8.207 -0.0627  0.0617 -0.1656
  982loPI   C6A14360  12.726  11.314   8.354  0.3092 -0.0384 -0.0142
  982loPI   C1B14361  12.356  11.380   6.607 -0.0874  0.0320  0.0425
  982loPI   C2B14362  12.318  11.451   7.032  0.2163  0.1428  0.2548
  982loPI   C3B14363  12.246  11.436   7.517 -0.2836  0.0242  0.0972
  982loPI   C4B14364  12.542  11.192   7.851 -0.2048 -0.3683 -0.2257
  983loPI    C114365   0.023   3.142   5.571  0.0659  0.0756  0.1618
  983loPI    C214366   0.072   3.017   5.194 -0.2225  0.1688  0.0904
  983loPI    C314367   0.029   3.407   5.272  0.2381  0.1913  0.2664
  983loPI   PO414368   0.131   2.895   5.690  0.2197  0.1682 -0.1044
  983loPI   GL114369   0.017   2.908   6.105 -0.2361  0.1100  0.2974
  983loPI   GL214370   0.248   2.719   6.223 -0.2404 -0.1144  0.2559
  983loPI   C1A14371  -0.169   2.745   6.547 -0.2834  0.1041 -0.0893
  983loPI   C2A14372  -0.096   2.710   6.955 -0.0067 -0.1824  0.3007
  983loPI   C3A14373  -0.103   2.719   7.355  0.1465  0.0507  0.1336
  983loPI   C4A14374  -0.072   2.726   7.796 -0.2221  0.0377 -0.3569
  983loPI   C5A14375  -0.128   2.640   8.288  0.0072  0.4056 -0.0458
  983loPI   C6A14376   0.023   2.522   8.701 -0.1937 -0.0750  0.1698
  983loPI   C1B14377   0.288   2.815   6.666 -0.2049 -0.1556 -0.0433
  983loPI   C2B14378   0.349   2.913   7.079 -0.1713 -0.1269 -0.0350
  983loPI   C3B14379   0.300   3.001   7.530 -0.0262 -0.2413 -0.3405
  983loPI   C4B14380   0.395   2.972   7.968  0.1547 -0.1992 -0.2739
  984loPI    C114381   4.469   3.428   5.575 -0.6853  0.0675 -0.0828
  984loPI    C214382   4.763   3.547   5.331 -0.3889 -0.2222  0.1233
  984loPI    C314383   4.430   3.385   5.179 -0.2771 -0.2514 -0.0949
  984loPI   PO414384   4.450   3.567   5.733  0.0177 -0.0023 -0.2933
  984loPI   GL114385   4.128   3.617   6.023  0.1317  0.0637  0.3448
  984loPI   GL214386   3.921   3.516   6.208  0.2772 -0.0461  0.1188
  984loPI   C1A14387   4.316   3.844   6.385  0.2029  0.5720 -0.2109
  984loPI   C2A14388   4.368   4.031   6.773  0.0279 -0.2885  0.0616
  984loPI   C3A14389   4.372   3.889   7.221 -0.0547 -0.1539  0.1295
  984loPI   C4A14390   4.373   3.852   7.706  0.3669  0.0782  0.0342
  984loPI   C5A14391   4.388   3.639   8.088 -0.1239 -0.0840 -0.0873
  984loPI   C6A14392   4.376   3.632   8.548 -0.1248 -0.0680 -0.1304
  984loPI   C1B14393   3.853   3.565   6.676 -0.0770  0.2866 -0.3239
  984loPI   C2B14394   3.882   3.760   7.060  0.0803 -0.4004 -0.2237
  984loPI   C3B14395   3.892   3.872   7.462  0.0617  0.0531 -0.0175
  984loPI   C4B14396   3.885   3.737   7.855 -0.0754  0.0379  0.1631
  985loPI    C114397   5.094  13.158   5.725  0.0948  0.1241  0.1705
  985loPI    C214398   5.341  13.363   5.486  0.1207  0.0787  0.1585
  985loPI    C314399   5.355  12.963   5.494 -0.0135  0.0718  0.0912
  985loPI   PO414400   5.015  13.274   5.976 -0.0647  0.3573 -0.2094
  985loPI   GL114401   5.143  13.525   6.274 -0.2445 -0.1585  0.0351
  985loPI   GL214402   5.065  13.724   6.370  0.0076 -0.1292  0.1357
  985loPI   C1A14403   5.067  13.404   6.722  0.1468 -0.3442 -0.0964
  985loPI   C2A14404   4.968  13.602   7.138  0.0626 -0.0177  0.0135
  985loPI   C3A14405   5.058  13.498   7.542  0.1417  0.0358 -0.2718
  985loPI   C4A14406   4.943  13.334   7.999  0.0613 -0.0301  0.1124
  985loPI   C5A14407   4.777  13.119   8.356  0.1082  0.2649  0.0325
  985loPI   C6A14408   4.871  12.811   8.642 -0.0765  0.2401 -0.0456
  985loPI   C1B14409   4.792  13.918   6.771 -0.0797  0.0604 -0.1882
  985loPI   C2B14410   4.958  14.135   7.113 -0.1324  0.5022 -0.0266
  985loPI   C3B14411   4.969  14.127   7.531  0.0033  0.1460  0.1971
  985loPI   C4B14412   4.865  13.916   7.993 -0.1123  0.2343  0.0486
  986loPI    C114413   6.419   0.129   5.861  0.0694  0.0302  0.0793
  986loPI    C214414   6.667   0.386   5.680  0.2403 -0.1594  0.0411
  986loPI    C314415   6.430   0.149   5.461  0.4151 -0.3577  0.0636
  986loPI   PO414416   6.596   0.026   6.014 -0.1264  0.0026  0.0800
  986loPI   GL114417   6.852   0.129   6.260  0.2800  0.0501  0.0779
  986loPI   GL214418   6.999  -0.186   6.308 -0.1299 -0.2652  0.1379
  986loPI   C1A14419   7.117   0.179   6.692  0.0139  0.1759  0.3195
  986loPI   C2A14420   7.180   0.078   7.193  0.0069  0.0923  0.1268
  986loPI   C3A14421   7.065  -0.091   7.608 -0.0765  0.1181 -0.0847
  986loPI   C4A14422   7.276  -0.189   8.037 -0.0096  0.1232 -0.1940
  986loPI   C5A14423   7.448  -0.589   8.225 -0.1203 -0.0674  0.0162
  986loPI   C6A14424   7.470  -0.615   8.608 -0.2158  0.1407 -0.1895
  986loPI   C1B14425   6.890  -0.327   6.750 -0.0772  0.4393  0.1250
  986loPI   C2B14426   6.745  -0.386   7.211 -0.1436 -0.0435  0.0913
  986loPI   C3B14427   6.677  -0.350   7.678  0.2522  0.2578 -0.2067
  986loPI   C4B14428   6.449  -0.386   8.088  0.1007  0.0981 -0.4333
  987loPI    C114429   9.755  12.541   5.869  0.1176  0.2178  0.1747
  987loPI    C214430   9.893  12.906   5.780 -0.0595  0.1920 -0.2278
  987loPI    C314431  10.079  12.582   5.638 -0.1440  0.1377 -0.2159
  987loPI   PO414432   9.458  12.586   5.874 -0.0394  0.0492  0.1982
  987loPI   GL114433   9.204  12.767   6.234  0.1404 -0.2837  0.1256
  987loPI   GL214434   9.576  12.812   6.387  0.2282  0.3051  0.1860
  987loPI   C1A14435   9.021  12.899   6.615 -0.1431  0.0515  0.0013
  987loPI   C2A14436   9.065  12.927   7.076 -0.1111 -0.0319 -0.0501
  987loPI   C3A14437   8.981  13.032   7.460 -0.0523 -0.0951  0.1055
  987loPI   C4A14438   8.698  12.954   7.836  0.0235 -0.2293  0.3895
  987loPI   C5A14439   8.262  13.077   8.015  0.1016  0.0255  0.0014
  987loPI   C6A14440   8.106  13.402   8.281  0.0708 -0.0728 -0.0080
  987loPI   C1B14441   9.473  12.840   6.872 -0.2309 -0.2044  0.1914
  987loPI   C2B14442   9.412  12.735   7.398 -0.0762  0.1100 -0.0163
  987loPI   C3B14443   9.248  12.873   7.827  0.0841 -0.0103  0.2131
  987loPI   C4B14444   9.034  13.021   8.227  0.0520  0.1080  0.0811
  988loPI    C114445  13.774   4.057   5.375  0.0362  0.2498  0.0108
  988loPI    C214446  13.475   4.184   5.142  0.0856 -0.0348 -0.2134
  988loPI    C314447  13.850   4.178   5.002  0.1071 -0.2667 -0.1506
  988loPI   PO414448  13.720   3.847   5.601  0.4413  0.0746 -0.2521
  988loPI   GL114449  13.772   3.783   6.020  0.1948  0.1330  0.1335
  988loPI   GL214450  13.754   4.132   6.057 -0.1792 -0.0239 -0.2055
  988loPI   C1A14451  13.650   3.744   6.401  0.2290  0.4281  0.1145
  988loPI   C2A14452  13.388   3.773   6.689 -0.0509 -0.0145  0.2734
  988loPI   C3A14453  13.275   3.752   7.102 -0.3205  0.0778  0.1196
  988loPI   C4A14454  13.217   3.858   7.493 -0.0864  0.0749 -0.3473
  988loPI   C5A14455  13.105   3.969   7.939  0.0793  0.0440  0.1481
  988loPI   C6A14456  12.946   4.080   8.283 -0.0187 -0.0887 -0.0805
  988loPI   C1B14457  13.659   4.315   6.450  0.0024 -0.1344  0.2753
  988loPI   C2B14458  13.461   4.241   6.806  0.1108  0.1722 -0.0548
  988loPI   C3B14459  13.529   4.211   7.190 -0.0038  0.2295 -0.3052
  988loPI   C4B14460  13.558   4.192   7.643 -0.1579  0.0698  0.0270
  989loPI    C114461   5.316  14.390   5.852 -0.0542  0.2310  0.1625
  989loPI    C214462   5.411  14.694   5.611  0.3849 -0.0533 -0.0370
  989loPI    C314463   5.300  14.343   5.455 -0.2452  0.0317  0.1917
  989loPI   PO414464   5.358  14.514   6.102 -0.1361 -0.1787 -0.0326
  989loPI   GL114465   5.361  14.755   6.382  0.2739  0.0868  0.0493
  989loPI   GL214466   5.415  15.085   6.438  0.0078 -0.1388  0.1482
  989loPI   C1A14467   5.459  14.483   6.811 -0.0001  0.1717  0.4905
  989loPI   C2A14468   5.348  14.436   7.194 -0.1037  0.2522 -0.0943
  989loPI   C3A14469   5.348  14.517   7.661  0.3855 -0.1462  0.2259
  989loPI   C4A14470   5.282  14.644   8.117 -0.0855  0.2739 -0.1095
  989loPI   C5A14471   4.879  14.833   8.332  0.0119 -0.1079 -0.0418
  989loPI   C6A14472   4.497  15.038   8.145  0.0686  0.0245 -0.0612
  989loPI   C1B14473   5.288  14.957   6.853 -0.0917 -0.1138 -0.1276
  989loPI   C2B14474   5.308  14.954   7.364  0.0726  0.1137 -0.0663
  989loPI   C3B14475   5.573  15.041   7.717  0.4716  0.1315 -0.0181
  989loPI   C4B14476   5.717  15.010   8.142  0.4143 -0.1401 -0.0655
  990loPI    C114477  15.339  12.184   5.148 -0.0317  0.1700 -0.0686
  990loPI    C214478  15.492  12.082   4.793 -0.1429  0.0523 -0.0837
  990loPI    C314479  15.181  12.332   4.812  0.0027  0.2343 -0.0566
  990loPI   PO414480  15.547  12.315   5.316 -0.0456  0.1641  0.0423
  990loPI   GL114481  15.732  12.230   5.626 -0.1302 -0.2227 -0.0080
  990loPI   GL214482  15.757  11.916   5.750 -0.1549 -0.0117  0.0456
  990loPI   C1A14483  15.546  12.235   6.043  0.3490 -0.1389  0.2612
  990loPI   C2A14484  15.630  12.038   6.520  0.0878  0.1680 -0.2323
  990loPI   C3A14485  15.695  11.932   6.844  0.2207  0.1704  0.1599
  990loPI   C4A14486  15.736  11.882   7.257  0.1990  0.2141 -0.1020
  990loPI   C5A14487  15.692  11.884   7.717 -0.0179  0.3060  0.2340
  990loPI   C6A14488  15.465  11.800   8.058  0.2070 -0.1113  0.3067
  990loPI   C1B14489  15.732  11.764   6.109 -0.3605 -0.1315  0.1636
  990loPI   C2B14490  15.650  11.472   6.384 -0.1230 -0.2286 -0.1396
  990loPI   C3B14491  15.632  11.421   6.822  0.0166  0.2430  0.0908
  990loPI   C4B14492  15.852  11.348   7.192  0.0453  0.1484 -0.2755
  991loPI    C114493   6.649  14.046   5.843  0.0365  0.0010  0.3412
  991loPI    C214494   6.670  14.330   5.562  0.1900 -0.0793  0.2704
  991loPI    C314495   6.953  14.048   5.583  0.0281 -0.2396  0.3274
  991loPI   PO414496   6.511  14.096   6.019 -0.0375 -0.0584  0.0761
  991loPI   GL114497   6.412  14.308   6.380  0.2609 -0.0218 -0.1927
  991loPI   GL214498   6.369  14.585   6.344 -0.1167 -0.1269 -0.1776
  991loPI   C1A14499   6.390  14.142   6.825  0.4657 -0.3286 -0.0757
  991loPI   C2A14500   6.417  14.270   7.274  0.3169 -0.1006  0.0734
  991loPI   C3A14501   6.618  14.488   7.735  0.1723 -0.0472  0.0024
  991loPI   C4A14502   6.435  14.665   7.995  0.0856 -0.1203  0.3554
  991loPI   C5A14503   6.227  14.764   8.341  0.0720  0.1002  0.0796
  991loPI   C6A14504   6.280  14.668   8.702 -0.1485 -0.1191  0.0532
  991loPI   C1B14505   6.319  14.769   6.781  0.4704  0.1979 -0.0175
  991loPI   C2B14506   6.260  14.730   7.162  0.2660 -0.0404  0.3726
  991loPI   C3B14507   6.138  14.657   7.566  0.3489 -0.1600  0.0369
  991loPI   C4B14508   5.829  14.591   7.924  0.1588 -0.1053  0.1646
  992loPI    C114509  15.362   4.220   5.819 -0.0178  0.2039  0.0963
  992loPI    C214510  15.362   4.531   5.568 -0.0402  0.1758  0.0614
  992loPI    C314511  15.212   4.180   5.451  0.3522  0.0381 -0.0418
  992loPI   PO414512  15.501   4.296   6.003 -0.1219  0.0830 -0.0928
  992loPI   GL114513  15.543   4.123   6.344 -0.0485 -0.1430 -0.2163
  992loPI   GL214514  15.451   3.908   6.529  0.2824  0.0466 -0.0318
  992loPI   C1A14515  15.672   4.371   6.677  0.0470  0.1481 -0.0605
  992loPI   C2A14516  15.687   4.369   7.082 -0.0122  0.0219  0.3390
  992loPI   C3A14517  15.928   4.446   7.420 -0.0872 -0.2856  0.3600
  992loPI   C4A14518  16.036   4.264   7.784 -0.0580  0.0454  0.1573
  992loPI   C5A14519  15.755   3.989   8.199  0.1736 -0.0977 -0.0622
  992loPI   C6A14520  15.412   4.084   8.489  0.0833  0.3926 -0.0770
  992loPI   C1B14521  15.432   3.969   6.952  0.0594  0.1895  0.0686
  992loPI   C2B14522  15.414   3.954   7.349  0.0207 -0.0760  0.3546
  992loPI   C3B14523  15.457   4.292   7.619 -0.0961 -0.0699 -0.1092
  992loPI   C4B14524  15.573   4.405   7.939 -0.2634  0.1010  0.0618
  993loPI    C114525  13.783   0.877   6.124  0.0337  0.0591 -0.1850
  993loPI    C214526  14.100   0.887   5.880 -0.0764  0.0369 -0.3302
  993loPI    C314527  13.730   0.910   5.729 -0.1540 -0.2173 -0.1852
  993loPI   PO414528  13.787   1.087   6.333 -0.2022  0.0482 -0.0678
  993loPI   GL114529  13.861   1.280   6.589  0.1052 -0.0342 -0.1431
  993loPI   GL214530  14.037   1.616   6.508  0.3243 -0.1772  0.0107
  993loPI   C1A14531  13.887   1.099   7.089 -0.2209 -0.1826 -0.0173
  993loPI   C2A14532  13.887   0.982   7.524  0.0278 -0.0850  0.2398
  993loPI   C3A14533  14.063   1.235   7.903 -0.1413  0.1562  0.0971
  993loPI   C4A14534  14.120   1.604   8.108 -0.1218 -0.2336 -0.1701
  993loPI   C5A14535  13.838   1.804   8.404 -0.4048  0.3252  0.2318
  993loPI   C6A14536  13.602   1.854   8.686  0.2559  0.4548 -0.2229
  993loPI   C1B14537  14.242   1.742   6.870 -0.1254 -0.2098  0.0064
  993loPI   C2B14538  14.320   2.018   7.022  0.0540  0.0971 -0.4472
  993loPI   C3B14539  14.324   2.211   7.394  0.4112  0.2382 -0.2323
  993loPI   C4B14540  14.598   2.374   7.756 -0.0515 -0.1576 -0.3098
  994loPI    C114541   1.017  15.007   5.422 -0.2385 -0.0265  0.0458
  994loPI    C214542   1.343  14.968   5.194 -0.0146  0.1489  0.3295
  994loPI    C314543   1.184  15.330   5.255 -0.2310  0.0708  0.2384
  994loPI   PO414544   1.148  14.771   5.616  0.1230  0.0207 -0.6591
  994loPI   GL114545   1.129  14.555   6.015 -0.0780 -0.0474 -0.1114
  994loPI   GL214546   1.201  14.256   5.980 -0.0456 -0.4512 -0.4838
  994loPI   C1A14547   1.461  14.613   6.308 -0.0979 -0.2994 -0.1849
  994loPI   C2A14548   1.625  14.596   6.786  0.0614 -0.1455  0.2606
  994loPI   C3A14549   1.482  14.536   7.141  0.3302 -0.1410 -0.0281
  994loPI   C4A14550   1.365  14.621   7.473  0.0861  0.0775  0.1694
  994loPI   C5A14551   1.491  14.766   7.826  0.0696 -0.1386 -0.1701
  994loPI   C6A14552   1.383  14.949   8.200 -0.1391  0.1883  0.1753
  994loPI   C1B14553   1.372  14.032   6.192 -0.0498  0.0632 -0.0623
  994loPI   C2B14554   1.609  14.090   6.535 -0.1268 -0.1289  0.0556
  994loPI   C3B14555   1.533  14.107   6.965 -0.0467  0.0826 -0.2427
  994loPI   C4B14556   1.430  14.060   7.348  0.3403 -0.1144 -0.0323
  995loPI    C114557   7.783   3.934   5.747 -0.1111  0.2336  0.3432
  995loPI    C214558   8.041   3.931   5.441 -0.1380 -0.2343  0.3172
  995loPI    C314559   7.983   4.267   5.651 -0.1175  0.0944 -0.1848
  995loPI   PO414560   7.871   3.736   5.864  0.0087 -0.2464  0.0847
  995loPI   GL114561   7.803   3.675   6.231  0.1308  0.2233 -0.4559
  995loPI   GL214562   8.127   3.775   6.333  0.0651 -0.3254  0.0505
  995loPI   C1A14563   7.632   3.977   6.541  0.1157 -0.1601  0.3285
  995loPI   C2A14564   7.655   4.035   6.963  0.1671  0.1605 -0.0609
  995loPI   C3A14565   7.561   3.985   7.395  0.1821 -0.0585  0.0406
  995loPI   C4A14566   7.657   3.772   7.715 -0.1271  0.1538 -0.2743
  995loPI   C5A14567   7.404   3.600   8.059 -0.0838 -0.0487  0.2999
  995loPI   C6A14568   7.508   3.656   8.453  0.2394 -0.1563  0.0548
  995loPI   C1B14569   8.427   3.838   6.531  0.0153  0.0120  0.4100
  995loPI   C2B14570   8.586   3.852   6.974  0.1009  0.2904 -0.0973
  995loPI   C3B14571   8.598   3.918   7.441  0.3260 -0.1868  0.0741
  995loPI   C4B14572   8.747   3.752   7.793  0.1320 -0.3191  0.1183
  996loPI    C114573   4.822  15.854   5.946 -0.2856  0.1833  0.1191
  996loPI    C214574   4.498  15.621   5.975 -0.1179 -0.1169 -0.3062
  996loPI    C314575   4.621  15.749   5.617  0.1519  0.1175 -0.1345
  996loPI   PO414576   4.759  15.978   6.170 -0.1149  0.1003 -0.2089
  996loPI   GL114577   4.644  15.823   6.522  0.1476 -0.0276 -0.0983
  996loPI   GL214578   4.799  15.621   6.620 -0.0688  0.1902  0.1882
  996loPI   C1A14579   4.460  15.920   6.840 -0.5306 -0.1504 -0.3981
  996loPI   C2A14580   4.357  16.120   7.214 -0.5156 -0.0985 -0.1253
  996loPI   C3A14581   4.451  16.040   7.700  0.1352  0.0008  0.5377
  996loPI   C4A14582   4.675  16.270   7.990 -0.0859 -0.1511 -0.0022
  996loPI   C5A14583   4.600  16.585   8.310  0.0134 -0.1125  0.1288
  996loPI   C6A14584   4.645  16.946   8.535  0.2381  0.1428 -0.1802
  996loPI   C1B14585   5.015  15.401   6.911 -0.0531  0.0392  0.0970
  996loPI   C2B14586   4.879  15.076   7.216  0.3668 -0.3771  0.0573
  996loPI   C3B14587   4.679  15.035   7.591 -0.0965 -0.2824  0.0393
  996loPI   C4B14588   5.082  15.003   7.851  0.0249  0.1372  0.0033
  997loPI    C114589  17.466  12.076   5.138  0.2237 -0.5177  0.0127
  997loPI    C214590  17.281  11.753   4.992 -0.1173 -0.2419 -0.1796
  997loPI    C314591  17.282  12.094   4.783 -0.0991 -0.0072  0.1952
  997loPI   PO414592  17.617  11.933   5.336 -0.2750  0.0958  0.2927
  997loPI   GL114593  17.659  11.641   5.691  0.0251  0.0071 -0.0820
  997loPI   GL214594  17.919  11.809   5.747 -0.1811 -0.0783 -0.3122
  997loPI   C1A14595  17.652  11.825   6.158 -0.2841 -0.0802 -0.0135
  997loPI   C2A14596  17.660  11.931   6.583  0.2128 -0.2137  0.1714
  997loPI   C3A14597  17.559  11.969   7.077  0.0484  0.2993  0.1050
  997loPI   C4A14598  17.561  11.863   7.488  0.2437 -0.3127  0.0723
  997loPI   C5A14599  17.797  11.985   7.944 -0.2817 -0.1452  0.0686
  997loPI   C6A14600  18.181  11.916   8.081  0.0327 -0.1553 -0.2850
  997loPI   C1B14601  18.037  11.582   6.080 -0.1784 -0.0976  0.2236
  997loPI   C2B14602  18.056  11.661   6.502 -0.0008 -0.0924 -0.1473
  997loPI   C3B14603  18.041  11.689   7.040  0.1559 -0.2077  0.1187
  997loPI   C4B14604  17.993  11.585   7.475  0.2562 -0.1555 -0.1702
  998loPI    C114605   4.302   8.789   5.864 -0.0965  0.2522 -0.2104
  998loPI    C214606   4.027   8.924   6.122 -0.1769 -0.2146 -0.0420
  998loPI    C314607   3.915   8.707   5.806 -0.0356 -0.0385 -0.2163
  998loPI   PO414608   4.482   8.690   6.035  0.1149 -0.0288  0.0094
  998loPI   GL114609   4.604   8.390   6.301  0.2807 -0.0426  0.0834
  998loPI   GL214610   4.928   8.346   6.300 -0.1098  0.3091 -0.2054
  998loPI   C1A14611   4.669   8.511   6.754  0.0754 -0.1421  0.2120
  998loPI   C2A14612   4.753   8.485   7.083 -0.3321 -0.2822 -0.1856
  998loPI   C3A14613   4.801   8.375   7.498  0.0240 -0.0165 -0.2714
  998loPI   C4A14614   4.928   8.282   7.978  0.1070 -0.2009  0.1589
  998loPI   C5A14615   4.536   8.437   8.137  0.2216 -0.0442 -0.0457
  998loPI   C6A14616   4.520   8.882   8.240 -0.0371 -0.0767 -0.0280
  998loPI   C1B14617   5.105   8.298   6.573  0.0180  0.4092 -0.0016
  998loPI   C2B14618   5.179   8.176   6.995  0.1509 -0.1610  0.1105
  998loPI   C3B14619   5.342   8.419   7.410 -0.2342  0.1338 -0.3133
  998loPI   C4B14620   5.234   8.626   7.800 -0.0612 -0.0352 -0.0977
  999loPI    C114621   2.313   9.253   5.164  0.0647 -0.1069  0.0426
  999loPI    C214622   2.224   9.238   4.775 -0.1301 -0.1207  0.0865
  999loPI    C314623   2.592   9.141   4.900 -0.0732 -0.1381 -0.0909
  999loPI   PO414624   2.160   9.217   5.254  0.1412  0.1069 -0.0548
  999loPI   GL114625   2.135   9.285   5.667  0.2070 -0.1543  0.1872
  999loPI   GL214626   2.449   9.101   5.722 -0.3679  0.0251 -0.0662
  999loPI   C1A14627   2.058   9.374   6.016 -0.3230  0.2351 -0.0137
  999loPI   C2A14628   1.811   9.452   6.381 -0.2470 -0.2033 -0.3179
  999loPI   C3A14629   1.901   9.501   6.831  0.0053 -0.1334 -0.1158
  999loPI   C4A14630   1.871   9.412   7.251  0.1864 -0.2531 -0.1594
  999loPI   C5A14631   1.888   9.139   7.650 -0.0582 -0.0901  0.0013
  999loPI   C6A14632   2.040   9.106   8.087  0.1402 -0.0119 -0.1592
  999loPI   C1B14633   2.519   9.151   6.131  0.4304 -0.0282  0.3196
  999loPI   C2B14634   2.425   9.153   6.483  0.0075  0.1334 -0.1113
  999loPI   C3B14635   2.414   9.186   6.935  0.2455  0.0552  0.0012
  999loPI   C4B14636   2.350   9.242   7.407  0.0021 -0.0226 -0.0584
 1000loPI    C114637  13.919  16.081   6.174  0.2643 -0.3224  0.0751
 1000loPI    C214638  13.902  15.857   5.844 -0.0529  0.1434 -0.2383
 1000loPI    C314639  14.092  16.209   5.836 -0.1261  0.1919  0.0575
 1000loPI   PO414640  13.666  15.962   6.288 -0.0282  0.1321 -0.0340
 1000loPI   GL114641  13.651  15.938   6.670  0.2055 -0.0305 -0.3848
 1000loPI   GL214642  13.996  16.080   6.656  0.0476 -0.0286 -0.3631
 1000loPI   C1A14643  13.451  16.200   7.033  0.1561 -0.1313 -0.0719
 1000loPI   C2A14644  13.508  16.342   7.492  0.2431 -0.0266 -0.0852
 1000loPI   C3A14645  13.196  16.342   7.819  0.0687 -0.1777 -0.2275
 1000loPI   C4A14646  12.851  16.408   8.045  0.0595  0.0699  0.0891
 1000loPI   C5A14647  12.401  16.273   8.066 -0.0999  0.1700  0.1181
 1000loPI   C6A14648  11.928  16.038   8.105  0.1484 -0.0077 -0.1138
 1000loPI   C1B14649  13.864  15.944   7.100 -0.2563 -0.1800 -0.1574
 1000loPI   C2B14650  13.815  15.860   7.508 -0.0304  0.0754  0.0752
 1000loPI   C3B14651  14.068  16.103   7.854  0.2870 -0.1809  0.0979
 1000loPI   C4B14652  14.132  16.132   8.321  0.3401 -0.2851 -0.2089
 1001loPI    C114653   2.734   6.590   5.647 -0.1093 -0.0904 -0.0062
 1001loPI    C214654   2.778   6.470   5.268  0.0233  0.0391 -0.0327
 1001loPI    C314655   2.412   6.541   5.414 -0.0259  0.0212 -0.1460
 1001loPI   PO414656   2.971   6.459   5.750  0.1805  0.2058  0.2670
 1001loPI   GL114657   3.106   6.257   6.112 -0.0983  0.0818  0.0042
 1001loPI   GL214658   3.177   6.020   6.204 -0.2537 -0.0715 -0.4172
 1001loPI   C1A14659   3.251   6.421   6.446  0.0731 -0.0121  0.2656
 1001loPI   C2A14660   3.361   6.608   6.833 -0.4238 -0.1150  0.0135
 1001loPI   C3A14661   3.294   6.537   7.310 -0.1107 -0.2917 -0.1110
 1001loPI   C4A14662   3.256   6.352   7.517 -0.0024 -0.3759  0.1515
 1001loPI   C5A14663   3.334   6.301   7.949 -0.1071  0.2058  0.1030
 1001loPI   C6A14664   3.432   6.518   8.372 -0.1285 -0.1439  0.4346
 1001loPI   C1B14665   3.255   5.991   6.653 -0.0418 -0.2290 -0.3776
 1001loPI   C2B14666   3.486   6.153   7.053 -0.1473 -0.2381 -0.1347
 1001loPI   C3B14667   3.640   5.999   7.538  0.1516 -0.0091 -0.1326
 1001loPI   C4B14668   3.794   6.086   7.896 -0.2694  0.0170  0.0454
 1002loPI    C114669  13.415  11.268   5.436 -0.1931  0.0901  0.1149
 1002loPI    C214670  13.019  11.276   5.380 -0.1647  0.0804 -0.0950
 1002loPI    C314671  13.251  11.059   5.138 -0.0225  0.1497 -0.0224
 1002loPI   PO414672  13.397  11.375   5.688 -0.0182 -0.0342  0.0358
 1002loPI   GL114673  13.685  11.255   6.006  0.1541  0.0993  0.2724
 1002loPI   GL214674  13.686  10.945   5.958  0.3278  0.0463 -0.1245
 1002loPI   C1A14675  13.788  11.509   6.363 -0.1075  0.0009  0.1029
 1002loPI   C2A14676  13.902  11.452   6.714 -0.0579 -0.1049  0.2760
 1002loPI   C3A14677  13.953  11.372   7.130  0.2250 -0.1892 -0.1823
 1002loPI   C4A14678  13.954  11.359   7.651 -0.3284  0.2376 -0.4711
 1002loPI   C5A14679  14.157  11.231   7.996 -0.2973  0.0141  0.0784
 1002loPI   C6A14680  14.604  11.376   7.964  0.1232  0.0774 -0.2394
 1002loPI   C1B14681  13.799  10.962   6.435  0.0280 -0.1110  0.0986
 1002loPI   C2B14682  13.971  10.934   6.851 -0.0573 -0.0746 -0.1460
 1002loPI   C3B14683  14.044  10.833   7.283 -0.0371  0.4763 -0.0242
 1002loPI   C4B14684  14.154  10.870   7.622  0.1619  0.1272 -0.0449
 1003loPI    C114685   5.101   6.702   5.535 -0.0789  0.2015  0.2133
 1003loPI    C214686   4.953   7.038   5.377 -0.0561  0.0839 -0.0624
 1003loPI    C314687   5.200   6.808   5.163  0.0183 -0.0512  0.1655
 1003loPI   PO414688   4.958   6.668   5.682 -0.1563  0.0021  0.2468
 1003loPI   GL114689   5.020   6.451   6.138 -0.1635 -0.1063 -0.0595
 1003loPI   GL214690   4.781   6.431   6.105 -0.1453  0.0689  0.4022
 1003loPI   C1A14691   5.294   6.363   6.460  0.1053 -0.0930 -0.3525
 1003loPI   C2A14692   5.341   6.065   6.725 -0.2146  0.1227  0.1239
 1003loPI   C3A14693   5.378   6.178   7.067  0.3737  0.2716 -0.2191
 1003loPI   C4A14694   5.232   6.155   7.535 -0.2859  0.1204  0.1586
 1003loPI   C5A14695   5.564   6.119   7.856 -0.0326  0.1326  0.0388
 1003loPI   C6A14696   5.545   6.012   8.268  0.1535 -0.0884  0.1049
 1003loPI   C1B14697   4.876   6.762   6.468 -0.1314  0.1963  0.2111
 1003loPI   C2B14698   4.809   6.810   6.899  0.1296 -0.1498  0.1436
 1003loPI   C3B14699   4.761   6.912   7.228 -0.0957  0.1823 -0.3533
 1003loPI   C4B14700   4.486   7.005   7.582 -0.2960  0.1716  0.2660
 1004loPI    C114701  13.449   8.627   5.588  0.3353 -0.0347  0.0332
 1004loPI    C214702  13.387   8.684   5.197 -0.1881 -0.2016  0.0838
 1004loPI    C314703  13.682   8.879   5.383  0.1222 -0.1847 -0.4074
 1004loPI   PO414704  13.175   8.597   5.645  0.2450  0.0297  0.0338
 1004loPI   GL114705  13.066   8.478   5.959  0.1430 -0.0126  0.1346
 1004loPI   GL214706  13.447   8.625   6.097  0.2037  0.1512  0.0400
 1004loPI   C1A14707  13.150   8.480   6.459 -0.0557  0.0924 -0.1586
 1004loPI   C2A14708  13.175   8.599   6.866  0.1155  0.1193 -0.1808
 1004loPI   C3A14709  13.192   8.656   7.385  0.3549 -0.0888  0.0778
 1004loPI   C4A14710  13.187   8.723   7.853 -0.4525  0.2269  0.3002
 1004loPI   C5A14711  13.196   9.034   8.157  0.2824  0.2321  0.0664
 1004loPI   C6A14712  13.099   9.420   8.332  0.1758 -0.3111  0.2637
 1004loPI   C1B14713  13.545   8.861   6.355  0.0829 -0.0255 -0.0897
 1004loPI   C2B14714  13.617   8.918   6.772 -0.2369  0.1822  0.0931
 1004loPI   C3B14715  13.575   8.902   7.170  0.1236 -0.1663 -0.0669
 1004loPI   C4B14716  13.636   9.104   7.664  0.1045  0.0575  0.1737
 1005loPI    C114717  11.833  17.957   5.548 -0.0004 -0.1183  0.0840
 1005loPI    C214718  11.638  18.029   5.890 -0.3537 -0.0955 -0.1174
 1005loPI    C314719  11.466  18.115   5.539  0.1211  0.1580 -0.2979
 1005loPI   PO414720  12.082  17.960   5.718  0.0955  0.0618 -0.0498
 1005loPI   GL114721  12.188  17.882   6.227 -0.0458 -0.0319 -0.0064
 1005loPI   GL214722  11.862  17.941   6.317  0.2197 -0.1294 -0.0565
 1005loPI   C1A14723  12.230  18.135   6.600 -0.1086 -0.1498 -0.1014
 1005loPI   C2A14724  12.179  18.333   6.981  0.0229 -0.3985  0.0481
 1005loPI   C3A14725  12.163  18.377   7.467 -0.0496  0.2083 -0.0083
 1005loPI   C4A14726  12.219  18.643   7.753  0.1282 -0.1089 -0.2109
 1005loPI   C5A14727  12.053  18.978   7.888 -0.1899 -0.2544  0.2015
 1005loPI   C6A14728  11.800  19.021   8.226 -0.1267  0.0591 -0.0460
 1005loPI   C1B14729  11.797  17.928   6.673 -0.0351  0.2634  0.0021
 1005loPI   C2B14730  11.774  18.112   7.093  0.1901 -0.3990 -0.1702
 1005loPI   C3B14731  11.840  18.007   7.516 -0.0874  0.0971  0.2481
 1005loPI   C4B14732  12.101  18.174   7.938  0.0118  0.1524 -0.2285
 1006loPI    C114733   1.660   2.243   5.457 -0.0656 -0.4564 -0.3037
 1006loPI    C214734   1.663   2.506   5.155  0.2526 -0.0777  0.0183
 1006loPI    C314735   1.947   2.225   5.179  0.0546 -0.3003 -0.1915
 1006loPI   PO414736   1.592   2.312   5.728  0.1462  0.0596  0.3058
 1006loPI   GL114737   1.502   2.184   6.144 -0.2510 -0.0492 -0.0189
 1006loPI   GL214738   1.787   2.215   6.263  0.2995  0.2317  0.0234
 1006loPI   C1A14739   1.407   2.305   6.611 -0.0353 -0.0577  0.0076
 1006loPI   C2A14740   1.251   2.329   7.082  0.1075 -0.0327  0.1099
 1006loPI   C3A14741   1.188   2.362   7.483  0.1233  0.0758 -0.4131
 1006loPI   C4A14742   1.373   2.325   7.928 -0.0118 -0.0318  0.1227
 1006loPI   C5A14743   1.253   2.118   8.228  0.3122  0.3521 -0.0115
 1006loPI   C6A14744   1.185   1.829   8.393 -0.3017  0.0954 -0.0230
 1006loPI   C1B14745   1.893   2.122   6.608 -0.0407  0.0960  0.1914
 1006loPI   C2B14746   1.793   2.144   7.021  0.1489 -0.0183 -0.4639
 1006loPI   C3B14747   1.754   2.281   7.394  0.1125 -0.0814 -0.0195
 1006loPI   C4B14748   1.701   2.638   7.688  0.3299  0.2284 -0.2526
 1007loPI    C114749   6.528   6.252   5.300  0.1407 -0.0043 -0.0676
 1007loPI    C214750   6.654   6.448   4.975  0.0548  0.0217 -0.0854
 1007loPI    C314751   6.781   6.076   5.044  0.0852  0.0216 -0.1407
 1007loPI   PO414752   6.567   6.458   5.582  0.1495 -0.1596 -0.0786
 1007loPI   GL114753   6.710   6.542   6.118 -0.0971  0.2573  0.2054
 1007loPI   GL214754   6.379   6.329   6.029 -0.0131  0.1356 -0.0452
 1007loPI   C1A14755   6.580   6.397   6.551 -0.0453  0.4682  0.2705
 1007loPI   C2A14756   6.277   6.445   6.888  0.1905  0.0420  0.0290
 1007loPI   C3A14757   6.362   6.385   7.226  0.3510  0.0567  0.0207
 1007loPI   C4A14758   6.216   6.394   7.602  0.0434 -0.0728  0.0923
 1007loPI   C5A14759   6.068   6.170   7.917  0.0569 -0.2069  0.0214
 1007loPI   C6A14760   6.328   6.305   8.270  0.1058  0.2758  0.0082
 1007loPI   C1B14761   6.175   6.598   6.406  0.0759 -0.0102 -0.1694
 1007loPI   C2B14762   6.072   6.967   6.714 -0.2412  0.2919 -0.0478
 1007loPI   C3B14763   6.124   6.882   7.044  0.0670  0.2004 -0.1428
 1007loPI   C4B14764   6.137   6.919   7.530  0.2949  0.0151  0.2426
 1008loPI    C114765   4.340   4.910   5.566 -0.0895  0.2208 -0.0635
 1008loPI    C214766   4.343   4.515   5.503  0.1628  0.2156 -0.0279
 1008loPI    C314767   4.567   4.757   5.275  0.1502  0.3189  0.0684
 1008loPI   PO414768   4.067   4.957   5.608 -0.2597  0.1058  0.1236
 1008loPI   GL114769   3.871   4.643   5.856  0.1712 -0.2416 -0.0170
 1008loPI   GL214770   4.139   4.530   5.954 -0.3230  0.0382 -0.1637
 1008loPI   C1A14771   3.779   4.807   6.323  0.0064  0.3017  0.0938
 1008loPI   C2A14772   3.686   5.026   6.804 -0.1485 -0.0217 -0.0588
 1008loPI   C3A14773   3.680   5.338   7.096 -0.0221 -0.0661  0.1398
 1008loPI   C4A14774   3.563   5.503   7.494 -0.1744 -0.0690 -0.0959
 1008loPI   C5A14775   3.474   5.657   7.935  0.1565 -0.3102 -0.0859
 1008loPI   C6A14776   3.331   5.554   8.364  0.1025 -0.2446  0.3429
 1008loPI   C1B14777   4.170   4.410   6.319  0.0394  0.2841  0.1506
 1008loPI   C2B14778   4.185   4.607   6.643  0.1786  0.0681 -0.1232
 1008loPI   C3B14779   4.093   4.811   6.990 -0.0458 -0.3144  0.0586
 1008loPI   C4B14780   4.115   5.136   7.227 -0.0024  0.2221  0.1061
 1009loPI    C114781  15.891  13.682   4.898 -0.2828 -0.2926  0.1375
 1009loPI    C214782  15.625  13.972   4.831 -0.0109 -0.0576  0.0547
 1009loPI    C314783  15.571  13.610   4.669 -0.1480  0.0611 -0.1714
 1009loPI   PO414784  15.974  13.675   5.166  0.0576 -0.0379  0.0106
 1009loPI   GL114785  16.239  13.499   5.463  0.1118  0.0733  0.0486
 1009loPI   GL214786  16.088  13.166   5.504 -0.1533  0.1864  0.0372
 1009loPI   C1A14787  16.277  13.715   5.922 -0.0573 -0.1211  0.0379
 1009loPI   C2A14788  16.199  13.740   6.427  0.0399  0.0421  0.0149
 1009loPI   C3A14789  16.190  13.800   6.814 -0.0228 -0.1164 -0.1527
 1009loPI   C4A14790  16.426  13.868   7.159 -0.0764 -0.0814 -0.1016
 1009loPI   C5A14791  16.324  13.809   7.536 -0.2896 -0.1119  0.0204
 1009loPI   C6A14792  16.423  13.612   7.921 -0.0964 -0.0187 -0.2080
 1009loPI   C1B14793  16.122  13.138   5.879 -0.0406 -0.1306  0.1278
 1009loPI   C2B14794  16.195  13.286   6.182 -0.0503 -0.0734 -0.0438
 1009loPI   C3B14795  16.191  13.261   6.579 -0.1364 -0.0483 -0.1519
 1009loPI   C4B14796  16.310  13.253   7.075 -0.1505 -0.0008 -0.1493
 1010loPI    C114797   3.248   8.954   5.471 -0.0177 -0.1730  0.2050
 1010loPI    C214798   3.023   9.034   5.791 -0.1147  0.1020  0.0719
 1010loPI    C314799   2.946   8.710   5.569 -0.2047  0.0460  0.1832
 1010loPI   PO414800   3.536   9.017   5.574  0.0831 -0.3269  0.0750
 1010loPI   GL114801   3.650   9.189   6.027  0.0993 -0.0563 -0.1992
 1010loPI   GL214802   3.318   9.257   6.221 -0.0613  0.1428  0.0950
 1010loPI   C1A14803   3.717   9.043   6.471  0.2353 -0.0264 -0.2186
 1010loPI   C2A14804   3.700   9.052   6.855  0.3299  0.4640  0.1308
 1010loPI   C3A14805   3.785   9.094   7.282  0.2713  0.1402  0.0019
 1010loPI   C4A14806   3.706   8.930   7.641 -0.4160 -0.2235  0.2640
 1010loPI   C5A14807   3.448   8.873   7.924  0.2471  0.3375  0.0056
 1010loPI   C6A14808   3.492   8.699   8.370  0.1466 -0.2858 -0.0785
 1010loPI   C1B14809   3.269   9.315   6.695 -0.2065  0.2350 -0.2474
 1010loPI   C2B14810   3.311   9.292   7.133 -0.3315 -0.1793  0.0618
 1010loPI   C3B14811   3.242   9.259   7.625  0.4428 -0.4634  0.0980
 1010loPI   C4B14812   3.559   9.351   7.952 -0.1444 -0.0163  0.0759
 1011loPI    C114813  10.003   0.183   5.776  0.0855 -0.1297 -0.0518
 1011loPI    C214814  10.183   0.324   5.448 -0.1433 -0.0871 -0.1607
 1011loPI    C314815  10.027  -0.045   5.448  0.0611 -0.1751 -0.0222
 1011loPI   PO414816   9.862   0.434   5.871  0.0976 -0.2270  0.0196
 1011loPI   GL114817   9.982   0.475   6.229  0.3048 -0.1868  0.1870
 1011loPI   GL214818   9.807   0.313   6.402 -0.1246  0.0084 -0.1914
 1011loPI   C1A14819  10.129   0.881   6.495 -0.2850  0.1082 -0.1735
 1011loPI   C2A14820   9.985   1.042   6.871  0.2177 -0.1060 -0.0919
 1011loPI   C3A14821   9.626   0.945   7.088 -0.1714  0.1335 -0.2695
 1011loPI   C4A14822   9.318   0.871   6.956 -0.0974  0.1320 -0.0341
 1011loPI   C5A14823   9.220   0.853   7.447 -0.3331  0.1645  0.0243
 1011loPI   C6A14824   8.971   0.966   7.849  0.0954  0.2098  0.3805
 1011loPI   C1B14825   9.751   0.437   6.870  0.4174 -0.2977 -0.1700
 1011loPI   C2B14826   9.703   0.528   7.374  0.3782  0.0777 -0.0123
 1011loPI   C3B14827   9.551   0.462   7.759 -0.1385 -0.0898 -0.1201
 1011loPI   C4B14828   9.233   0.569   8.039  0.0008 -0.1680 -0.2836
 1012loPI    C114829  11.872  10.388   5.600  0.0098  0.0484 -0.0221
 1012loPI    C214830  11.614  10.468   5.305 -0.0576 -0.1012 -0.0047
 1012loPI    C314831  11.963  10.290   5.223  0.0207  0.0588 -0.0221
 1012loPI   PO414832  11.939  10.478   5.868 -0.3143 -0.0433 -0.1876
 1012loPI   GL114833  11.997  10.494   6.323  0.1808  0.0313 -0.0434
 1012loPI   GL214834  11.672  10.637   6.488  0.0413 -0.1757 -0.1340
 1012loPI   C1A14835  12.205  10.156   6.525 -0.1098 -0.0094 -0.1359
 1012loPI   C2A14836  12.227  10.091   6.939 -0.0688  0.1711  0.0027
 1012loPI   C3A14837  12.249  10.265   7.364 -0.0869  0.0374 -0.0035
 1012loPI   C4A14838  12.298  10.425   7.756  0.1133 -0.0265 -0.2507
 1012loPI   C5A14839  12.245  10.725   8.118  0.3168  0.1092 -0.2391
 1012loPI   C6A14840  12.261  11.110   8.323 -0.2994  0.2289 -0.0576
 1012loPI   C1B14841  11.661  10.894   6.982  0.2038  0.2025 -0.0822
 1012loPI   C2B14842  11.755  11.152   7.318  0.2056  0.0367  0.0841
 1012loPI   C3B14843  11.792  11.283   7.683  0.1041 -0.0303 -0.0492
 1012loPI   C4B14844  11.943  11.597   7.914 -0.0264 -0.0093  0.1656
 1013loPI    C114845  14.369   2.860   5.588  0.2933  0.2068  0.1073
 1013loPI    C214846  14.561   3.015   5.274 -0.0301  0.1520 -0.1226
 1013loPI    C314847  14.594   2.625   5.356 -0.0468  0.1418 -0.1642
 1013loPI   PO414848  14.368   3.101   5.797 -0.1826  0.2059  0.1753
 1013loPI   GL114849  14.066   3.230   6.107 -0.0189  0.2731 -0.0264
 1013loPI   GL214850  14.190   3.020   6.295  0.0993  0.1100  0.1371
 1013loPI   C1A14851  13.976   3.356   6.593 -0.1828  0.1714 -0.1076
 1013loPI   C2A14852  13.928   3.228   7.002  0.4847 -0.1130 -0.0690
 1013loPI   C3A14853  13.922   3.202   7.493 -0.0945 -0.0110 -0.1651
 1013loPI   C4A14854  13.667   3.285   7.839 -0.0543 -0.1244 -0.2513
 1013loPI   C5A14855  13.902   3.209   8.281  0.0699  0.0955 -0.2368
 1013loPI   C6A14856  14.068   3.195   8.786  0.1038 -0.0182  0.0833
 1013loPI   C1B14857  14.119   2.874   6.700 -0.4443  0.3457  0.1213
 1013loPI   C2B14858  14.069   2.751   7.181  0.2819  0.1135  0.2209
 1013loPI   C3B14859  14.065   2.771   7.564  0.0179  0.1308  0.2354
 1013loPI   C4B14860  13.850   2.849   7.932 -0.3270 -0.2349  0.0479
 1014loPI    C114861   3.106  15.223   5.669 -0.2386 -0.0225  0.0404
 1014loPI    C214862   3.321  15.089   5.360 -0.0332  0.0060  0.1685
 1014loPI    C314863   2.973  15.276   5.296 -0.0583 -0.1079 -0.0371
 1014loPI   PO414864   3.322  15.170   5.892  0.1010  0.1712 -0.1429
 1014loPI   GL114865   3.359  14.916   6.240 -0.2576 -0.1266 -0.0804
 1014loPI   GL214866   3.101  14.801   6.322  0.0554  0.1278 -0.1315
 1014loPI   C1A14867   3.509  14.973   6.718 -0.1066 -0.2246 -0.2667
 1014loPI   C2A14868   3.468  15.119   7.145  0.1058 -0.2390  0.0006
 1014loPI   C3A14869   3.327  15.069   7.550 -0.1749  0.3068 -0.0313
 1014loPI   C4A14870   3.304  15.207   8.034  0.0473  0.2565 -0.2444
 1014loPI   C5A14871   3.447  14.910   8.336 -0.0132 -0.0557 -0.1835
 1014loPI   C6A14872   3.809  14.733   8.591 -0.2627  0.2416 -0.2469
 1014loPI   C1B14873   3.006  14.881   6.785 -0.1196 -0.0283 -0.0774
 1014loPI   C2B14874   3.001  14.866   7.176  0.2897 -0.1275 -0.0388
 1014loPI   C3B14875   2.748  14.760   7.529  0.0514  0.0926  0.1598
 1014loPI   C4B14876   2.737  14.746   8.008  0.0952  0.1257 -0.0847
 1015loPI    C114877  11.256   5.015   5.830  0.0531 -0.0833 -0.0278
 1015loPI    C214878  11.245   5.414   5.855 -0.2399 -0.1032  0.2123
 1015loPI    C314879  11.521   5.208   6.059 -0.1377 -0.0292  0.1500
 1015loPI   PO414880  11.026   4.955   5.929  0.2678  0.4468 -0.2339
 1015loPI   GL114881  10.962   5.278   6.210 -0.0326 -0.0057  0.1063
 1015loPI   GL214882  10.723   5.090   6.493  0.2313 -0.1206  0.0616
 1015loPI   C1A14883  11.355   5.384   6.461  0.0064  0.1019  0.1970
 1015loPI   C2A14884  11.411   5.240   6.860  0.1315 -0.1248  0.2722
 1015loPI   C3A14885  11.512   5.314   7.329  0.0946  0.2829  0.1427
 1015loPI   C4A14886  11.734   5.288   7.658 -0.1943 -0.1944  0.0517
 1015loPI   C5A14887  12.083   5.379   8.048  0.3925  0.1098 -0.0892
 1015loPI   C6A14888  12.138   5.151   8.458 -0.0965 -0.0428  0.0521
 1015loPI   C1B14889  10.588   5.002   6.818  0.0229 -0.1647  0.4012
 1015loPI   C2B14890  10.563   4.875   7.178 -0.3071 -0.2101  0.0984
 1015loPI   C3B14891  10.762   4.668   7.510  0.0469  0.1597 -0.1397
 1015loPI   C4B14892  11.106   4.505   7.620  0.1290 -0.2963 -0.2827
 1016loPI    C114893   0.039  11.487   5.372 -0.0155 -0.1556 -0.0386
 1016loPI    C214894   0.102  11.766   5.092 -0.3266  0.2467  0.2796
 1016loPI    C314895  -0.199  11.505   5.051 -0.0506 -0.0360 -0.0064
 1016loPI   PO414896   0.310  11.375   5.512  0.1341  0.0321  0.1339
 1016loPI   GL114897   0.545  11.517   5.915 -0.1952  0.1669 -0.2010
 1016loPI   GL214898   0.486  11.805   6.003  0.1741 -0.2550 -0.2065
 1016loPI   C1A14899   0.499  11.445   6.348 -0.1140  0.0526 -0.3167
 1016loPI   C2A14900   0.534  11.490   6.788 -0.2058 -0.0922 -0.0194
 1016loPI   C3A14901   0.515  11.323   7.179  0.2633 -0.2001 -0.1006
 1016loPI   C4A14902   0.458  11.088   7.524  0.4438 -0.1724 -0.1470
 1016loPI   C5A14903   0.445  10.927   7.970  0.1352  0.0082 -0.1376
 1016loPI   C6A14904   0.385  11.182   8.314 -0.0118 -0.0702 -0.1821
 1016loPI   C1B14905   0.504  11.971   6.358  0.1611 -0.4036  0.4565
 1016loPI   C2B14906   0.535  11.985   6.891 -0.0991 -0.0134 -0.1792
 1016loPI   C3B14907   0.564  11.865   7.289 -0.2979 -0.0410 -0.0035
 1016loPI   C4B14908   0.577  11.711   7.699  0.0360  0.2374 -0.0737
 1017loPI    C114909   6.089  13.172   5.813 -0.2305  0.0263 -0.0225
 1017loPI    C214910   6.164  12.872   5.560 -0.4452 -0.1360  0.1040
 1017loPI    C314911   5.796  12.920   5.710 -0.3004 -0.0974  0.4561
 1017loPI   PO414912   6.253  13.120   6.029 -0.1575 -0.1661 -0.1921
 1017loPI   GL114913   6.313  13.233   6.373  0.3180  0.0933  0.1382
 1017loPI   GL214914   6.363  12.924   6.613 -0.1946 -0.3152 -0.1571
 1017loPI   C1A14915   6.027  13.314   6.815 -0.0343 -0.1490 -0.0760
 1017loPI   C2A14916   6.098  13.222   7.184 -0.0703 -0.1086  0.0918
 1017loPI   C3A14917   5.866  13.067   7.527 -0.0822 -0.0742  0.0858
 1017loPI   C4A14918   6.063  13.242   7.967 -0.1041  0.0678 -0.0708
 1017loPI   C5A14919   6.332  13.185   8.455 -0.0784  0.2052 -0.1080
 1017loPI   C6A14920   6.184  13.286   8.788 -0.2798 -0.2318 -0.1689
 1017loPI   C1B14921   6.211  12.791   6.964 -0.1356  0.1455  0.4529
 1017loPI   C2B14922   6.058  12.634   7.407 -0.1860  0.1307  0.2406
 1017loPI   C3B14923   5.926  12.726   7.855 -0.1228  0.0615 -0.1872
 1017loPI   C4B14924   5.731  12.522   8.210  0.0493 -0.0783  0.0006
 1018loPI    C114925  10.679   3.954   5.811  0.2497  0.0516  0.0180
 1018loPI    C214926  10.770   3.924   5.422 -0.1651 -0.2090 -0.0660
 1018loPI    C314927  10.395   4.008   5.534 -0.0386 -0.0853  0.2799
 1018loPI   PO414928  10.996   3.966   5.894 -0.1704  0.3783 -0.4611
 1018loPI   GL114929  11.141   4.036   6.239  0.0745  0.1182 -0.0254
 1018loPI   GL214930  11.109   4.372   6.360 -0.0060  0.1182  0.2413
 1018loPI   C1A14931  11.007   4.057   6.699  0.0137  0.0760  0.0528
 1018loPI   C2A14932  11.059   4.236   7.110  0.1316  0.3185 -0.1524
 1018loPI   C3A14933  11.283   4.078   7.421  0.0089  0.0069  0.0099
 1018loPI   C4A14934  11.286   3.851   7.827  0.2411  0.1034 -0.2354
 1018loPI   C5A14935  11.120   3.568   8.038  0.0419 -0.3826 -0.1643
 1018loPI   C6A14936  11.288   3.260   8.138  0.2632  0.1988  0.0621
 1018loPI   C1B14937  11.373   4.412   6.720  0.2186  0.1780  0.1590
 1018loPI   C2B14938  11.494   4.500   7.189 -0.3198  0.1592  0.2820
 1018loPI   C3B14939  11.657   4.458   7.615  0.3408  0.1480 -0.1110
 1018loPI   C4B14940  11.513   4.514   8.022  0.0578 -0.0267 -0.0044
 1019loPI    C114941  12.211   3.170   5.475 -0.0692  0.0271  0.0439
 1019loPI    C214942  12.355   3.337   5.142  0.0354  0.0992  0.1248
 1019loPI    C314943  12.230   2.957   5.137  0.0789  0.0861  0.0147
 1019loPI   PO414944  12.397   3.378   5.709  0.1153  0.1211 -0.1333
 1019loPI   GL114945  12.579   3.447   6.152  0.0917 -0.5105  0.2257
 1019loPI   GL214946  12.870   3.561   6.048  0.2482  0.2029 -0.1990
 1019loPI   C1A14947  12.576   3.431   6.599 -0.2328  0.1013  0.2352
 1019loPI   C2A14948  12.435   3.366   7.076  0.0605 -0.2012 -0.1672
 1019loPI   C3A14949  12.353   3.374   7.490  0.0085 -0.0135  0.0420
 1019loPI   C4A14950  11.961   3.442   7.758 -0.1131  0.0152 -0.0916
 1019loPI   C5A14951  11.728   3.495   8.101  0.1108 -0.1658 -0.1785
 1019loPI   C6A14952  11.725   3.653   8.456  0.0309 -0.0053 -0.2757
 1019loPI   C1B14953  13.062   3.312   6.454  0.5044  0.1686  0.1242
 1019loPI   C2B14954  13.054   3.290   6.778 -0.3402 -0.0422 -0.0564
 1019loPI   C3B14955  12.883   3.309   7.165 -0.0758  0.1518  0.0631
 1019loPI   C4B14956  12.856   3.135   7.620  0.0118 -0.2300 -0.0877
 1020loPI    C114957  16.058   9.565   4.989 -0.0268  0.0599 -0.0144
 1020loPI    C214958  16.438   9.600   4.869 -0.0218  0.0672  0.0033
 1020loPI    C314959  16.151   9.512   4.604 -0.0168  0.1233 -0.0208
 1020loPI   PO414960  16.031   9.840   5.186 -0.1101 -0.2124  0.1712
 1020loPI   GL114961  16.160   9.892   5.625 -0.0207 -0.3742  0.1114
 1020loPI   GL214962  15.817   9.872   5.654  0.0836  0.0315  0.4546
 1020loPI   C1A14963  16.278  10.084   6.036  0.2399 -0.2019 -0.1266
 1020loPI   C2A14964  16.231  10.147   6.550  0.1602  0.1216  0.3306
 1020loPI   C3A14965  16.303  10.170   7.034 -0.2530 -0.3677  0.1422
 1020loPI   C4A14966  16.306  10.108   7.501 -0.1569  0.1354  0.2217
 1020loPI   C5A14967  15.967  10.161   7.966  0.0005  0.1972 -0.1248
 1020loPI   C6A14968  15.780  10.111   8.400  0.0153  0.1523  0.0084
 1020loPI   C1B14969  15.735   9.937   5.994 -0.0734 -0.3082  0.1393
 1020loPI   C2B14970  15.799   9.873   6.369  0.1090 -0.1515  0.1038
 1020loPI   C3B14971  15.842   9.947   6.856 -0.1826 -0.1209 -0.2700
 1020loPI   C4B14972  15.943   9.845   7.335  0.1268  0.0794  0.2044
 1021loPI    C114973   7.876   5.842   5.543 -0.0060  0.1436 -0.0459
 1021loPI    C214974   7.521   5.812   5.362 -0.0212 -0.2734  0.0433
 1021loPI    C314975   7.823   5.999   5.179 -0.1989 -0.1827 -0.1622
 1021loPI   PO414976   7.779   5.978   5.797  0.0644 -0.1301 -0.5149
 1021loPI   GL114977   7.830   5.904   6.290  0.3629 -0.0905 -0.3125
 1021loPI   GL214978   7.798   5.588   6.407 -0.0467 -0.0880  0.2272
 1021loPI   C1A14979   7.983   6.041   6.737  0.2021  0.1502 -0.3082
 1021loPI   C2A14980   8.035   6.078   7.114 -0.0004  0.0725  0.0543
 1021loPI   C3A14981   7.961   6.099   7.494 -0.6264  0.1190 -0.1374
 1021loPI   C4A14982   8.027   6.195   7.866 -0.0883  0.0889 -0.3403
 1021loPI   C5A14983   8.190   6.467   8.182  0.1025 -0.0416  0.3888
 1021loPI   C6A14984   8.497   6.601   8.500  0.2648  0.2081 -0.1479
 1021loPI   C1B14985   7.749   5.624   6.894 -0.0901 -0.3491  0.0645
 1021loPI   C2B14986   8.097   5.613   7.264  0.0440 -0.1170 -0.2608
 1021loPI   C3B14987   8.015   5.645   7.734  0.2877  0.1355  0.0540
 1021loPI   C4B14988   7.974   5.735   8.158 -0.0592  0.0200 -0.3089
 1022loPI    C114989   4.953  10.850   5.617  0.0143 -0.0299 -0.0142
 1022loPI    C214990   5.237  10.574   5.676  0.0135 -0.0500 -0.1024
 1022loPI    C314991   4.971  10.527   5.381  0.0894  0.1060 -0.1973
 1022loPI   PO414992   4.942  10.872   5.884  0.0255 -0.0681 -0.2976
 1022loPI   GL114993   5.225  10.744   6.181 -0.1795 -0.2060  0.2427
 1022loPI   GL214994   5.538  10.738   6.334 -0.0006  0.0548 -0.0755
 1022loPI   C1A14995   5.244  11.123   6.396 -0.0965 -0.1271  0.1863
 1022loPI   C2A14996   5.124  11.437   6.517 -0.2010 -0.0095 -0.1447
 1022loPI   C3A14997   5.024  11.625   6.968 -0.0718 -0.1872 -0.0578
 1022loPI   C4A14998   4.867  11.589   7.416 -0.0549  0.1289 -0.0303
 1022loPI   C5A14999   4.830  11.804   7.753 -0.2794 -0.1265 -0.0179
 1022loPI   C6A15000   4.983  12.006   8.066 -0.0048  0.1022 -0.1889
 1022loPI   C1B15001   5.602  10.706   6.895  0.0793  0.1020 -0.0295
 1022loPI   C2B15002   5.570  10.946   7.321  0.1658  0.1083  0.0929
 1022loPI   C3B15003   5.641  10.954   7.790 -0.0984  0.1378  0.0318
 1022loPI   C4B15004   5.550  11.214   8.135 -0.2266 -0.1546 -0.0182
 1023loPI    C115005  17.383   1.625   5.611  0.0160  0.0900  0.0948
 1023loPI    C215006  16.989   1.648   5.542  0.0300  0.1262  0.0286
 1023loPI    C315007  17.249   1.687   5.239  0.0823  0.0289  0.0605
 1023loPI   PO415008  17.431   1.395   5.784 -0.0991  0.0226 -0.2209
 1023loPI   GL115009  17.438   1.284   6.127 -0.7510  0.5478  0.1463
 1023loPI   GL215010  17.428   1.540   6.264  0.0333 -0.2945 -0.1897
 1023loPI   C1A15011  17.521   1.053   6.510  0.2284 -0.0864 -0.0599
 1023loPI   C2A15012  17.527   0.997   6.997 -0.1967  0.0344  0.0675
 1023loPI   C3A15013  17.373   0.870   7.418 -0.0421  0.0573  0.2274
 1023loPI   C4A15014  17.232   0.728   7.853 -0.1067  0.3608  0.3558
 1023loPI   C5A15015  17.037   0.524   8.224 -0.0511 -0.0337  0.0049
 1023loPI   C6A15016  17.112   0.527   8.604  0.1238  0.2410 -0.0827
 1023loPI   C1B15017  17.397   1.532   6.656 -0.2412 -0.1674  0.1841
 1023loPI   C2B15018  17.462   1.503   6.979  0.2603  0.1636  0.1437
 1023loPI   C3B15019  17.407   1.440   7.478  0.2398 -0.1208 -0.1000
 1023loPI   C4B15020  17.392   1.185   7.836 -0.1105  0.2700 -0.0552
 1024loPI    C115021  17.364   0.864   5.937  0.1428  0.0781 -0.1223
 1024loPI    C215022  17.145   0.755   5.621  0.2532 -0.1182 -0.1323
 1024loPI    C315023  17.052   1.087   5.823 -0.0887 -0.2294 -0.1017
 1024loPI   PO415024  17.592   0.841   5.929 -0.2001 -0.2793  0.1394
 1024loPI   GL115025  17.865   0.833   6.152  0.2093  0.2698 -0.0424
 1024loPI   GL215026  17.740   0.463   6.163  0.0471 -0.0592  0.0713
 1024loPI   C1A15027  18.076   0.896   6.487  0.1911 -0.1100 -0.0736
 1024loPI   C2A15028  18.118   0.885   6.967  0.0394 -0.0735 -0.1454
 1024loPI   C3A15029  17.897   0.910   7.393  0.0072 -0.1116  0.5766
 1024loPI   C4A15030  17.732   0.879   7.778 -0.3417  0.5240  0.1852
 1024loPI   C5A15031  17.569   0.876   8.215  0.0368  0.0723 -0.1280
 1024loPI   C6A15032  17.319   0.992   8.636  0.0578 -0.2291  0.1039
 1024loPI   C1B15033  17.684   0.578   6.679 -0.0181 -0.1837 -0.0396
 1024loPI   C2B15034  17.590   0.478   7.148  0.1466  0.0857 -0.0373
 1024loPI   C3B15035  17.530   0.415   7.624 -0.2777 -0.0753  0.0284
 1024loPI   C4B15036  17.545   0.338   8.136  0.0369 -0.0288 -0.2007
 1025loPI    C115037  12.243   1.287   5.259 -0.0224  0.0942 -0.1303
 1025loPI    C215038  11.995   1.025   5.086 -0.0675  0.0665 -0.0249
 1025loPI    C315039  12.063   1.380   4.914  0.0311 -0.0322 -0.1928
 1025loPI   PO415040  12.119   1.275   5.514  0.0529 -0.1852 -0.2015
 1025loPI   GL115041  11.958   1.039   5.918  0.0599 -0.1266 -0.0910
 1025loPI   GL215042  11.860   0.896   6.170  0.0686 -0.0643 -0.1565
 1025loPI   C1A15043  12.160   1.411   6.206  0.2026  0.0599 -0.0309
 1025loPI   C2A15044  12.110   1.562   6.628 -0.2377 -0.0272 -0.1801
 1025loPI   C3A15045  12.032   1.658   7.076 -0.0879  0.2070  0.2259
 1025loPI   C4A15046  11.994   1.710   7.546 -0.1392  0.2458  0.2473
 1025loPI   C5A15047  11.753   1.517   7.866  0.1437 -0.0278  0.0523
 1025loPI   C6A15048  11.439   1.380   8.106 -0.0813  0.3731 -0.1346
 1025loPI   C1B15049  11.802   1.207   6.480  0.0225 -0.1090  0.0616
 1025loPI   C2B15050  11.661   1.230   6.937 -0.1253 -0.0831 -0.0755
 1025loPI   C3B15051  11.679   1.323   7.372  0.0385 -0.2419 -0.0862
 1025loPI   C4B15052  11.593   1.050   7.701 -0.1156  0.2739  0.3599
 1026loPI    C115053  11.404  11.095   5.969  0.3220 -0.1429  0.0880
 1026loPI    C215054  11.513  11.312   5.652  0.0054 -0.1615 -0.0370
 1026loPI    C315055  11.252  11.461   5.916  0.1808 -0.1911  0.1556
 1026loPI   PO415056  11.681  11.009   6.082 -0.1093 -0.1402 -0.1055
 1026loPI   GL115057  11.965  11.135   6.384  0.1216  0.0837 -0.0610
 1026loPI   GL215058  11.919  11.395   6.357 -0.2245  0.3906 -0.4524
 1026loPI   C1A15059  12.141  10.983   6.836  0.1073  0.1020  0.2070
 1026loPI   C2A15060  12.223  10.884   7.283  0.0026  0.0260  0.0260
 1026loPI   C3A15061  12.006  10.808   7.685 -0.0420  0.2397  0.1015
 1026loPI   C4A15062  11.762  10.744   7.970  0.3080  0.5151  0.3178
 1026loPI   C5A15063  11.351  10.634   8.140 -0.0626 -0.0928  0.0862
 1026loPI   C6A15064  10.930  10.612   8.360 -0.5218 -0.1580 -0.0067
 1026loPI   C1B15065  11.622  11.299   6.663 -0.1314 -0.0433  0.0831
 1026loPI   C2B15066  11.417  11.454   7.111 -0.2013 -0.0245  0.0452
 1026loPI   C3B15067  11.292  11.494   7.551  0.1596 -0.1536  0.0077
 1026loPI   C4B15068  11.352  11.209   7.917 -0.0053 -0.3484 -0.1078
 1027loPI    C115069   1.710  16.480   5.346 -0.0893  0.0457 -0.0256
 1027loPI    C215070   1.813  16.839   5.203  0.1181  0.0144  0.0418
 1027loPI    C315071   1.985  16.508   5.057 -0.0349 -0.0542  0.0156
 1027loPI   PO415072   1.461  16.427   5.392 -0.1262 -0.0824  0.0001
 1027loPI   GL115073   1.250  16.431   5.671  0.1167  0.1203 -0.0085
 1027loPI   GL215074   0.906  16.486   5.984  0.2164 -0.0446  0.2505
 1027loPI   C1A15075   1.384  16.276   6.145  0.1548  0.1640 -0.2575
 1027loPI   C2A15076   1.176  16.089   6.537 -0.0017  0.3101  0.0670
 1027loPI   C3A15077   1.002  16.004   6.951 -0.0881  0.4653  0.0248
 1027loPI   C4A15078   1.121  16.013   7.264  0.2683 -0.0737 -0.0592
 1027loPI   C5A15079   0.943  16.066   7.665  0.2274  0.1283  0.5579
 1027loPI   C6A15080   0.817  16.046   8.028 -0.3059 -0.2567  0.3622
 1027loPI   C1B15081   0.759  16.355   6.381 -0.0097  0.1448  0.0198
 1027loPI   C2B15082   0.623  16.298   6.833 -0.1173 -0.0557 -0.0345
 1027loPI   C3B15083   0.634  16.248   7.340  0.5561 -0.0367 -0.0465
 1027loPI   C4B15084   0.484  15.903   7.687  0.2899  0.2818  0.2962
 1028loPI    C115085  17.546  13.740   5.362 -0.2631  0.1358  0.3141
 1028loPI    C215086  17.791  14.029   5.491 -0.0047  0.0088  0.1172
 1028loPI    C315087  17.596  14.071   5.144 -0.0051 -0.0314  0.1124
 1028loPI   PO415088  17.365  13.722   5.624  0.2584 -0.0413  0.3650
 1028loPI   GL115089  17.120  13.402   5.950  0.0821  0.0255  0.1534
 1028loPI   GL215090  17.446  13.598   6.096  0.2112 -0.0366 -0.0757
 1028loPI   C1A15091  17.053  13.256   6.398 -0.2786 -0.1027  0.3403
 1028loPI   C2A15092  17.128  13.186   6.842  0.1207  0.0150  0.2105
 1028loPI   C3A15093  17.180  13.179   7.275 -0.2629 -0.1679  0.0773
 1028loPI   C4A15094  17.228  13.179   7.665 -0.1195  0.1709  0.2271
 1028loPI   C5A15095  17.225  13.535   8.064 -0.0532  0.0166 -0.4098
 1028loPI   C6A15096  17.266  13.907   8.128 -0.1329  0.1505 -0.0513
 1028loPI   C1B15097  17.518  13.465   6.451  0.0165 -0.0598  0.0686
 1028loPI   C2B15098  17.624  13.433   6.938 -0.0028 -0.1905  0.1261
 1028loPI   C3B15099  17.659  13.414   7.369 -0.0191  0.3116 -0.1670
 1028loPI   C4B15100  17.628  13.502   7.784  0.3313  0.0379 -0.1112
 1029loPI    C115101   6.548   5.326   5.617 -0.0794 -0.0811 -0.0749
 1029loPI    C215102   6.171   5.330   5.485 -0.0861  0.0709 -0.0526
 1029loPI    C315103   6.466   5.211   5.243 -0.1550 -0.1106 -0.0495
 1029loPI   PO415104   6.531   5.238   5.834 -0.0098 -0.0863  0.4254
 1029loPI   GL115105   6.370   5.333   6.203 -0.1866  0.1083  0.0628
 1029loPI   GL215106   6.034   5.438   6.258 -0.1124  0.0227 -0.2276
 1029loPI   C1A15107   6.365   5.297   6.729 -0.0133  0.1078  0.1791
 1029loPI   C2A15108   6.461   5.282   7.207  0.1993 -0.1417 -0.0647
 1029loPI   C3A15109   6.192   5.230   7.583  0.0155 -0.4093  0.2914
 1029loPI   C4A15110   6.293   5.332   7.973  0.0850 -0.1013 -0.3242
 1029loPI   C5A15111   6.165   5.357   8.319  0.1298  0.0314 -0.2244
 1029loPI   C6A15112   5.788   5.245   8.579  0.2430  0.0356  0.0853
 1029loPI   C1B15113   5.857   5.313   6.609 -0.1170  0.1994  0.1564
 1029loPI   C2B15114   5.849   5.393   7.050 -0.0852  0.0884 -0.2246
 1029loPI   C3B15115   5.840   5.545   7.494 -0.0195 -0.1105  0.3300
 1029loPI   C4B15116   5.888   5.640   7.811 -0.3090 -0.0329 -0.0961
 1030loPI    C115117  12.274   6.862   5.412 -0.1112  0.2844 -0.1718
 1030loPI    C215118  12.057   6.855   5.076 -0.1585  0.0933 -0.1380
 1030loPI    C315119  12.446   6.763   5.065 -0.1505  0.1285 -0.1472
 1030loPI   PO415120  12.138   6.811   5.570  0.0803  0.1482 -0.0233
 1030loPI   GL115121  12.126   6.629   5.886 -0.1030 -0.2005  0.4622
 1030loPI   GL215122  12.011   6.490   6.139 -0.2593  0.1981 -0.1804
 1030loPI   C1A15123  12.425   6.649   6.163  0.2002 -0.1508  0.0747
 1030loPI   C2A15124  12.444   6.379   6.576  0.0180 -0.0807  0.2437
 1030loPI   C3A15125  12.509   6.456   7.086  0.0207  0.0313  0.0887
 1030loPI   C4A15126  12.640   6.682   7.367  0.0118  0.2854  0.0478
 1030loPI   C5A15127  12.684   6.679   7.783  0.4508  0.0618  0.2057
 1030loPI   C6A15128  12.532   6.693   8.158 -0.3553 -0.3846 -0.0487
 1030loPI   C1B15129  11.930   6.549   6.537  0.1633  0.0038  0.0501
 1030loPI   C2B15130  12.056   6.616   6.893 -0.3364  0.0659  0.2250
 1030loPI   C3B15131  12.106   6.548   7.364 -0.1675 -0.0647 -0.1495
 1030loPI   C4B15132  12.077   6.686   7.789 -0.0286 -0.0533  0.1165
 1031loPI    C115133   5.389   2.816   5.654  0.4340 -0.0498 -0.0063
 1031loPI    C215134   5.504   2.457   5.520  0.0412 -0.1150 -0.1815
 1031loPI    C315135   5.165   2.622   5.385  0.1137  0.2329  0.0497
 1031loPI   PO415136   5.396   2.822   5.919  0.1191 -0.3328 -0.0759
 1031loPI   GL115137   5.221   3.060   6.311 -0.0136  0.0475  0.0088
 1031loPI   GL215138   4.929   3.002   6.438 -0.0202 -0.3064 -0.1074
 1031loPI   C1A15139   5.484   3.021   6.594 -0.1927 -0.0451  0.1204
 1031loPI   C2A15140   5.815   3.036   6.881 -0.1470  0.0386  0.0585
 1031loPI   C3A15141   5.897   3.064   7.297  0.0877 -0.0554 -0.1981
 1031loPI   C4A15142   5.769   2.952   7.676  0.1637  0.1161  0.3994
 1031loPI   C5A15143   5.980   2.953   8.053 -0.1854 -0.0939  0.0301
 1031loPI   C6A15144   6.189   2.707   8.366  0.0495 -0.0467  0.0291
 1031loPI   C1B15145   4.624   3.043   6.845 -0.2024 -0.0524 -0.0046
 1031loPI   C2B15146   4.398   2.906   7.191 -0.1678  0.0760 -0.1863
 1031loPI   C3B15147   4.165   2.824   7.502 -0.0564 -0.2973  0.0148
 1031loPI   C4B15148   4.162   2.766   7.953 -0.1644  0.1689  0.4425
 1032loPI    C115149   4.989  16.322   5.800 -0.1078 -0.1333 -0.2132
 1032loPI    C215150   5.260  16.292   5.507  0.0164 -0.2860 -0.0846
 1032loPI    C315151   4.909  16.104   5.474 -0.0819 -0.0766 -0.2578
 1032loPI   PO415152   5.049  16.405   5.964 -0.1522  0.1174  0.2422
 1032loPI   GL115153   4.783  16.442   6.329 -0.1666 -0.1008 -0.0952
 1032loPI   GL215154   4.496  16.337   6.511  0.0170  0.0651 -0.1641
 1032loPI   C1A15155   4.818  16.610   6.750 -0.1342  0.2242  0.0424
 1032loPI   C2A15156   4.879  16.532   7.197  0.3486 -0.0619  0.1622
 1032loPI   C3A15157   4.826  16.479   7.550  0.1677  0.1338 -0.0683
 1032loPI   C4A15158   4.829  16.748   7.911  0.3425 -0.0550 -0.0731
 1032loPI   C5A15159   5.055  16.803   8.293 -0.0282 -0.1559 -0.2118
 1032loPI   C6A15160   5.187  17.067   8.334 -0.0597 -0.2306  0.0975
 1032loPI   C1B15161   4.299  16.560   6.929  0.2386 -0.0933  0.2587
 1032loPI   C2B15162   4.293  16.648   7.390 -0.0333 -0.1624 -0.1084
 1032loPI   C3B15163   4.267  16.600   7.903  0.0698 -0.1542 -0.1273
 1032loPI   C4B15164   4.243  16.224   8.188 -0.5059  0.0697 -0.1945
 1033loPI    C115165   5.828   7.058   5.888 -0.0901  0.0052 -0.2479
 1033loPI    C215166   6.179   7.251   5.879 -0.0372 -0.0655  0.1330
 1033loPI    C315167   5.848   7.433   5.748  0.1027  0.0826 -0.0204
 1033loPI   PO415168   5.788   7.020   6.147  0.2084  0.0925 -0.0638
 1033loPI   GL115169   5.673   6.936   6.479 -0.0490 -0.0281 -0.2400
 1033loPI   GL215170   5.346   6.887   6.461  0.2943  0.1180  0.0807
 1033loPI   C1A15171   5.647   6.950   6.933 -0.1313 -0.1272 -0.2035
 1033loPI   C2A15172   5.648   6.908   7.313  0.2493 -0.0503 -0.1377
 1033loPI   C3A15173   5.523   7.093   7.740  0.2197 -0.0469  0.4081
 1033loPI   C4A15174   5.280   6.920   8.180  0.0247  0.4112  0.0646
 1033loPI   C5A15175   5.161   7.058   8.583 -0.0262 -0.0634 -0.3050
 1033loPI   C6A15176   5.061   6.998   9.008 -0.1479  0.3414  0.1505
 1033loPI   C1B15177   5.300   6.649   6.877  0.0252  0.1788  0.1202
 1033loPI   C2B15178   5.219   6.695   7.319 -0.0191  0.3508  0.4566
 1033loPI   C3B15179   5.057   6.800   7.660 -0.0553 -0.0163 -0.0362
 1033loPI   C4B15180   4.845   6.664   8.100  0.1141 -0.0001  0.0860
 1034loPI    C115181   6.825   1.102   5.911 -0.1300 -0.0428 -0.0032
 1034loPI    C215182   6.481   1.123   6.113 -0.0692 -0.0339  0.1002
 1034loPI    C315183   6.491   1.220   5.725 -0.1987 -0.1089  0.0774
 1034loPI   PO415184   7.017   1.232   6.061  0.1274  0.1876  0.1588
 1034loPI   GL115185   7.246   0.931   6.258  0.2143  0.3024  0.1113
 1034loPI   GL215186   7.339   0.607   6.401  0.0531  0.1250  0.0368
 1034loPI   C1A15187   7.470   1.143   6.610  0.1460 -0.0516  0.0433
 1034loPI   C2A15188   7.354   1.434   6.801 -0.2868 -0.2292 -0.1072
 1034loPI   C3A15189   7.397   1.495   7.178 -0.2870 -0.0981 -0.0240
 1034loPI   C4A15190   7.862   1.392   7.321 -0.0079  0.1682 -0.3110
 1034loPI   C5A15191   8.130   1.414   7.696  0.0823  0.1195  0.0951
 1034loPI   C6A15192   8.293   1.112   8.110 -0.2647 -0.1001  0.0188
 1034loPI   C1B15193   7.333   0.628   6.888  0.0900  0.1395  0.1502
 1034loPI   C2B15194   7.402   0.517   7.281 -0.2576  0.0508  0.0736
 1034loPI   C3B15195   7.293   0.430   7.622 -0.0025 -0.0749  0.0537
 1034loPI   C4B15196   7.126   0.380   8.054  0.3358  0.0315 -0.1076
 1035loPI    C115197   9.780  16.640   5.626  0.1415 -0.0991 -0.1427
 1035loPI    C215198   9.565  16.338   5.477 -0.2154  0.1181 -0.0781
 1035loPI    C315199   9.654  16.653   5.247 -0.1132  0.1073 -0.0539
 1035loPI   PO415200   9.600  16.723   5.855 -0.1935  0.0655  0.4109
 1035loPI   GL115201   9.602  16.441   6.238  0.0859 -0.0697 -0.1105
 1035loPI   GL215202   9.817  16.718   6.340 -0.1560 -0.0631  0.0981
 1035loPI   C1A15203   9.882  16.357   6.649 -0.2711 -0.0960 -0.3050
 1035loPI   C2A15204  10.003  16.419   7.165  0.1029  0.0239  0.3126
 1035loPI   C3A15205  10.046  16.516   7.519 -0.0506 -0.0667  0.1813
 1035loPI   C4A15206  10.040  16.568   7.900 -0.1624  0.1416 -0.2047
 1035loPI   C5A15207  10.224  16.382   8.178  0.1173  0.1251  0.1464
 1035loPI   C6A15208  10.097  16.214   8.594 -0.0386  0.0518 -0.3693
 1035loPI   C1B15209   9.947  16.847   6.811 -0.0678  0.2857  0.1982
 1035loPI   C2B15210  10.042  16.976   7.235 -0.2205 -0.0498  0.1846
 1035loPI   C3B15211  10.046  17.110   7.706 -0.1913  0.1001 -0.2797
 1035loPI   C4B15212  10.184  17.579   7.959 -0.0109 -0.0472 -0.3602
 1036loPI    C115213   0.090   5.683   5.371 -0.0841  0.0865  0.0385
 1036loPI    C215214   0.307   6.016   5.418 -0.0208  0.0275  0.1697
 1036loPI    C315215  -0.031   6.026   5.204  0.0659  0.1389  0.0361
 1036loPI   PO415216   0.019   5.584   5.626  0.0533  0.2756  0.1137
 1036loPI   GL115217  -0.038   5.599   5.927  0.0932  0.1456 -0.2396
 1036loPI   GL215218  -0.383   5.567   5.969 -0.2275 -0.1713  0.3017
 1036loPI   C1A15219  -0.050   5.769   6.325  0.0441  0.0305  0.0574
 1036loPI   C2A15220   0.107   5.851   6.810  0.2914  0.1142 -0.1145
 1036loPI   C3A15221   0.181   5.948   7.232  0.2799 -0.2484  0.0241
 1036loPI   C4A15222  -0.097   5.953   7.480 -0.1955 -0.0661  0.1099
 1036loPI   C5A15223  -0.221   6.156   7.872 -0.0670 -0.0941  0.2892
 1036loPI   C6A15224  -0.052   6.198   8.254 -0.0218 -0.1433 -0.1778
 1036loPI   C1B15225  -0.505   5.539   6.326  0.1268  0.1702  0.1260
 1036loPI   C2B15226  -0.382   5.701   6.654  0.0544 -0.4129 -0.1131
 1036loPI   C3B15227  -0.309   6.094   6.902 -0.0482 -0.2205  0.2183
 1036loPI   C4B15228  -0.294   6.326   7.217  0.0710 -0.0744 -0.1851
 1037loPI    C115229   3.635   7.360   5.904  0.1417  0.1422 -0.0514
 1037loPI    C215230   3.498   7.489   5.552  0.1754 -0.0082 -0.1206
 1037loPI    C315231   3.552   7.098   5.614  0.1109  0.0124  0.0731
 1037loPI   PO415232   3.780   7.552   5.966  0.0394 -0.3480 -0.1446
 1037loPI   GL115233   4.036   7.477   6.229 -0.1925 -0.0572  0.0944
 1037loPI   GL215234   4.216   7.618   6.403  0.2079  0.3719  0.0074
 1037loPI   C1A15235   3.821   7.355   6.572 -0.1600 -0.2726  0.0470
 1037loPI   C2A15236   3.701   7.096   6.952 -0.0545  0.0050 -0.0810
 1037loPI   C3A15237   3.471   7.044   7.355  0.1477 -0.0483 -0.5328
 1037loPI   C4A15238   3.254   6.824   7.730  0.0601 -0.0748 -0.2999
 1037loPI   C5A15239   3.122   6.925   8.135  0.1101  0.3473 -0.0350
 1037loPI   C6A15240   3.093   7.209   8.371  0.0050 -0.0487 -0.2341
 1037loPI   C1B15241   4.243   7.619   6.768 -0.1808 -0.0283  0.0278
 1037loPI   C2B15242   4.139   7.515   7.103  0.0913 -0.1781  0.0829
 1037loPI   C3B15243   3.855   7.404   7.434 -0.1214 -0.1505 -0.1005
 1037loPI   C4B15244   3.597   7.299   7.733 -0.1733 -0.3410  0.2521
 1038loPI    C115245   4.846   8.208   5.600  0.0878 -0.0628 -0.1109
 1038loPI    C215246   4.562   8.157   5.323  0.1673  0.2112 -0.2468
 1038loPI    C315247   4.858   8.418   5.260  0.2315  0.2170  0.0634
 1038loPI   PO415248   4.743   8.216   5.814 -0.0984 -0.2165 -0.0982
 1038loPI   GL115249   4.724   7.966   6.047 -0.4590 -0.0941 -0.3199
 1038loPI   GL215250   4.621   7.570   6.085 -0.0389  0.3179  0.0352
 1038loPI   C1A15251   4.657   7.979   6.544 -0.1675  0.0784  0.0712
 1038loPI   C2A15252   4.734   7.973   6.920 -0.4611  0.4291 -0.1428
 1038loPI   C3A15253   4.621   7.964   7.351 -0.2637  0.0737  0.0077
 1038loPI   C4A15254   4.488   7.992   7.801 -0.1476 -0.0121 -0.1287
 1038loPI   C5A15255   4.528   7.855   8.220 -0.2185 -0.2128 -0.1479
 1038loPI   C6A15256   4.877   7.966   8.531 -0.1242  0.2523 -0.0332
 1038loPI   C1B15257   4.688   7.484   6.397 -0.0361 -0.3395 -0.3455
 1038loPI   C2B15258   4.730   7.477   6.767  0.2414 -0.0320 -0.0791
 1038loPI   C3B15259   4.728   7.384   7.177  0.2955 -0.4350  0.3806
 1038loPI   C4B15260   4.442   7.488   7.486 -0.2103 -0.1170  0.1678
 1039loPI    C115261  12.116  14.859   6.222 -0.2791 -0.0483  0.0039
 1039loPI    C215262  12.318  14.580   6.019  0.1393  0.0296  0.3006
 1039loPI    C315263  12.362  14.967   5.926 -0.4060  0.0125 -0.0807
 1039loPI   PO415264  12.121  14.840   6.464 -0.2149  0.6136 -0.1506
 1039loPI   GL115265  12.222  15.087   6.821  0.1953 -0.2346  0.1063
 1039loPI   GL215266  12.075  15.352   6.813  0.1793  0.0845  0.1538
 1039loPI   C1A15267  12.546  15.397   7.056  0.2306 -0.1041  0.0403
 1039loPI   C2A15268  12.595  15.630   7.432 -0.2483 -0.1412 -0.4023
 1039loPI   C3A15269  12.320  15.801   7.867  0.0252 -0.0377 -0.1373
 1039loPI   C4A15270  11.841  15.742   7.713  0.0239 -0.1247 -0.3386
 1039loPI   C5A15271  11.441  15.710   7.863 -0.0281 -0.3009  0.1774
 1039loPI   C6A15272  11.131  15.463   7.829  0.0666  0.0927 -0.0156
 1039loPI   C1B15273  12.135  15.306   7.279  0.0315  0.1864 -0.3859
 1039loPI   C2B15274  12.203  15.308   7.648  0.2589 -0.1129  0.0137
 1039loPI   C3B15275  12.206  15.124   8.037 -0.0932  0.0604 -0.0587
 1039loPI   C4B15276  12.545  15.008   8.313 -0.2983  0.0236 -0.1703
 1040loPI    C115277  11.403   8.433   5.426  0.0850 -0.0901  0.1367
 1040loPI    C215278  11.600   8.720   5.230 -0.1303  0.0626  0.1405
 1040loPI    C315279  11.503   8.380   5.043  0.2308 -0.0602  0.1703
 1040loPI   PO415280  11.429   8.474   5.718 -0.1523  0.0593  0.0923
 1040loPI   GL115281  11.660   8.580   6.027  0.0786  0.0794 -0.1083
 1040loPI   GL215282  11.559   8.857   6.156 -0.0793  0.1029 -0.1864
 1040loPI   C1A15283  11.769   8.293   6.385  0.1465  0.2311 -0.2894
 1040loPI   C2A15284  11.912   8.374   6.762 -0.0946 -0.2762 -0.0320
 1040loPI   C3A15285  11.819   8.332   7.166 -0.1526 -0.1102 -0.1300
 1040loPI   C4A15286  11.848   8.346   7.650  0.0747  0.2715 -0.1373
 1040loPI   C5A15287  11.626   8.367   8.025  0.1178  0.2372  0.1035
 1040loPI   C6A15288  11.659   8.242   8.458 -0.1674  0.0033  0.3265
 1040loPI   C1B15289  11.702   8.786   6.542 -0.1431 -0.0881 -0.0639
 1040loPI   C2B15290  11.709   8.802   6.961  0.3603 -0.0570 -0.1414
 1040loPI   C3B15291  11.817   8.881   7.357 -0.0413  0.0522  0.0814
 1040loPI   C4B15292  11.970   9.000   7.673 -0.0624  0.1634  0.2204
 1041loPI    C115293   9.815  17.488   5.590 -0.0488  0.3488 -0.0958
 1041loPI    C215294   9.566  17.508   5.278 -0.1577  0.0689 -0.0296
 1041loPI    C315295   9.739  17.160   5.374  0.1798  0.2374 -0.0107
 1041loPI   PO415296   9.686  17.620   5.801 -0.0933 -0.1714 -0.2617
 1041loPI   GL115297   9.764  17.512   6.121 -0.0756 -0.2591 -0.0978
 1041loPI   GL215298   9.975  17.392   6.341  0.0389 -0.1316  0.0926
 1041loPI   C1A15299   9.844  17.817   6.507  0.2660 -0.1172  0.0292
 1041loPI   C2A15300   9.798  17.932   6.814 -0.2926  0.1118  0.3017
 1041loPI   C3A15301   9.686  17.945   7.274 -0.5114 -0.0569 -0.0208
 1041loPI   C4A15302   9.509  18.009   7.623  0.3007 -0.0172 -0.1413
 1041loPI   C5A15303   9.300  17.966   7.964  0.1522  0.2424 -0.0312
 1041loPI   C6A15304   8.841  18.218   7.986  0.0807  0.2330  0.2388
 1041loPI   C1B15305   9.751  17.298   6.630 -0.1754 -0.1577  0.0319
 1041loPI   C2B15306   9.611  17.102   7.012  0.0259 -0.0568  0.0868
 1041loPI   C3B15307   9.610  17.043   7.497  0.2831 -0.4118 -0.3151
 1041loPI   C4B15308   9.648  16.959   7.951  0.1782 -0.0395  0.0276
 1042loPI    C115309   3.741   8.023   5.841 -0.2250  0.0002 -0.1371
 1042loPI    C215310   3.593   7.988   5.471  0.0688 -0.0790 -0.2497
 1042loPI    C315311   3.928   7.794   5.572 -0.1296 -0.2366  0.1259
 1042loPI   PO415312   3.625   8.290   5.965  0.2596  0.1494  0.1954
 1042loPI   GL115313   3.656   8.547   6.263 -0.1001 -0.1123 -0.0480
 1042loPI   GL215314   4.055   8.424   6.229 -0.1225 -0.0342 -0.0041
 1042loPI   C1A15315   3.760   8.468   6.648 -0.2059  0.1698 -0.2478
 1042loPI   C2A15316   3.699   8.422   7.007  0.1743  0.2787  0.1014
 1042loPI   C3A15317   3.666   8.460   7.468  0.6886  0.2859  0.1424
 1042loPI   C4A15318   3.616   8.356   7.938 -0.0582  0.1781 -0.0987
 1042loPI   C5A15319   3.635   7.906   8.180 -0.2119 -0.2879  0.0875
 1042loPI   C6A15320   3.476   7.465   8.190 -0.1476  0.0746  0.0543
 1042loPI   C1B15321   4.215   8.141   6.607 -0.0955  0.1406  0.1193
 1042loPI   C2B15322   4.275   8.035   7.032  0.0577 -0.0797 -0.0796
 1042loPI   C3B15323   4.068   7.929   7.410 -0.1318 -0.2603  0.0751
 1042loPI   C4B15324   3.657   7.884   7.636  0.1218  0.1544  0.1535
 1043loPI    C115325   4.160  12.019   5.274  0.0942  0.0916 -0.0523
 1043loPI    C215326   4.490  12.095   5.062 -0.0538  0.3551 -0.1935
 1043loPI    C315327   4.197  11.872   4.904  0.2081 -0.1962  0.0702
 1043loPI   PO415328   4.188  11.939   5.486 -0.1854 -0.0951 -0.1691
 1043loPI   GL115329   4.150  11.783   5.880  0.1088 -0.1467 -0.3625
 1043loPI   GL215330   4.471  11.847   5.990  0.0537 -0.0541  0.2939
 1043loPI   C1A15331   3.804  11.531   6.163  0.0117 -0.1544  0.0341
 1043loPI   C2A15332   3.698  11.506   6.586  0.0310  0.0234 -0.0886
 1043loPI   C3A15333   3.692  11.518   7.028 -0.0033 -0.4831  0.1486
 1043loPI   C4A15334   3.789  11.562   7.596 -0.0286  0.2090 -0.1490
 1043loPI   C5A15335   3.819  11.385   7.929  0.2689  0.1092 -0.1534
 1043loPI   C6A15336   3.512  11.069   8.035 -0.3168  0.1522 -0.0047
 1043loPI   C1B15337   4.245  11.741   6.389 -0.0646 -0.0037  0.0561
 1043loPI   C2B15338   4.188  11.890   6.771  0.0781 -0.1912 -0.1093
 1043loPI   C3B15339   4.084  11.922   7.132  0.2831 -0.1840 -0.2866
 1043loPI   C4B15340   4.009  11.989   7.610 -0.0444 -0.0663  0.1974
 1044loPI    C115341   8.381   7.418   5.604 -0.1809 -0.3061 -0.1784
 1044loPI    C215342   8.593   7.343   5.273 -0.0007  0.0618 -0.1516
 1044loPI    C315343   8.326   7.641   5.277 -0.0235  0.0403  0.0261
 1044loPI   PO415344   8.529   7.410   5.834  0.1338  0.1341 -0.2924
 1044loPI   GL115345   8.637   7.623   6.265 -0.2051  0.1570 -0.1244
 1044loPI   GL215346   8.746   7.260   6.255 -0.1349  0.0236  0.0761
 1044loPI   C1A15347   8.813   7.819   6.638  0.0839 -0.4841 -0.0895
 1044loPI   C2A15348   9.173   7.919   6.922 -0.0758  0.0712  0.2018
 1044loPI   C3A15349   9.296   7.927   7.346 -0.1306 -0.0620 -0.0743
 1044loPI   C4A15350   9.583   7.826   7.681 -0.1916  0.2127  0.1620
 1044loPI   C5A15351   9.606   7.665   8.180 -0.0962 -0.2848  0.0771
 1044loPI   C6A15352   9.479   7.424   8.464 -0.0497  0.2295  0.0382
 1044loPI   C1B15353   8.724   7.326   6.743 -0.0336  0.4643 -0.0730
 1044loPI   C2B15354   8.790   7.574   7.076  0.1553  0.0574 -0.1408
 1044loPI   C3B15355   8.881   7.490   7.482  0.1104 -0.1038 -0.2394
 1044loPI   C4B15356   9.096   7.549   7.856  0.1958  0.0739 -0.1593
 1045loPI    C115357   0.848   5.022   5.629  0.0487 -0.0221 -0.1696
 1045loPI    C215358   0.576   4.744   5.723  0.0579  0.0823  0.1816
 1045loPI    C315359   0.570   4.917   5.362 -0.1901 -0.0896  0.1009
 1045loPI   PO415360   0.884   5.180   5.809 -0.1841  0.1780 -0.0067
 1045loPI   GL115361   0.599   5.187   6.121 -0.0481  0.2451  0.2281
 1045loPI   GL215362   0.453   5.416   6.116  0.1599  0.1397 -0.0832
 1045loPI   C1A15363   0.484   5.038   6.441  0.0653 -0.4257 -0.0165
 1045loPI   C2A15364   0.499   4.993   6.853  0.0970  0.0162  0.2043
 1045loPI   C3A15365   0.502   5.119   7.217 -0.0424 -0.1172 -0.0917
 1045loPI   C4A15366   0.558   5.253   7.687 -0.2637  0.0255  0.2520
 1045loPI   C5A15367   0.601   5.509   8.021  0.2349 -0.1642  0.0921
 1045loPI   C6A15368   0.687   5.815   8.323 -0.1749  0.1507  0.0904
 1045loPI   C1B15369   0.418   5.535   6.538  0.3307 -0.0713  0.0828
 1045loPI   C2B15370   0.491   5.528   6.842  0.1106 -0.3928 -0.2341
 1045loPI   C3B15371   0.551   5.605   7.162  0.0074  0.2447 -0.0306
 1045loPI   C4B15372   0.574   5.751   7.553 -0.0456  0.3989 -0.1675
 1046loPI    C115373  11.297  17.159   5.541  0.0017  0.4507 -0.0393
 1046loPI    C215374  11.538  17.237   5.231  0.0958  0.0653 -0.0687
 1046loPI    C315375  11.206  17.022   5.176  0.0768  0.0536  0.0863
 1046loPI   PO415376  11.488  17.150   5.814 -0.6358 -0.2925  0.0520
 1046loPI   GL115377  11.397  17.381   6.216  0.3096  0.1246 -0.0720
 1046loPI   GL215378  11.733  17.449   6.435 -0.1510 -0.0437 -0.1323
 1046loPI   C1A15379  11.301  17.720   6.528 -0.4663  0.1971  0.2045
 1046loPI   C2A15380  11.204  17.854   6.857  0.0060 -0.2328  0.3630
 1046loPI   C3A15381  11.043  18.027   7.055  0.3006  0.2138 -0.2685
 1046loPI   C4A15382  10.904  17.989   7.459  0.0554  0.1337 -0.0764
 1046loPI   C5A15383  10.902  18.162   7.893 -0.3676  0.1676  0.0163
 1046loPI   C6A15384  11.008  18.002   8.287  0.1242 -0.4039 -0.1557
 1046loPI   C1B15385  11.547  17.333   6.855 -0.0848 -0.0238  0.2950
 1046loPI   C2B15386  11.144  17.342   7.141 -0.1651 -0.2045 -0.0146
 1046loPI   C3B15387  10.925  17.522   7.494  0.0472 -0.0671  0.1126
 1046loPI   C4B15388  11.244  17.744   7.780 -0.0160  0.0872 -0.4600
 1047loPI    C115389   7.523   6.865   5.498 -0.0181  0.0721  0.0773
 1047loPI    C215390   7.603   6.659   5.164  0.0598 -0.0062  0.1436
 1047loPI    C315391   7.656   7.056   5.172 -0.3670  0.0618 -0.0752
 1047loPI   PO415392   7.389   6.648   5.649  0.2102 -0.1218  0.2926
 1047loPI   GL115393   7.187   6.547   6.053  0.0015 -0.1576  0.2840
 1047loPI   GL215394   7.474   6.327   6.108  0.1399  0.1427 -0.0002
 1047loPI   C1A15395   6.995   6.266   6.353 -0.0000 -0.1677 -0.2551
 1047loPI   C2A15396   6.927   6.062   6.728  0.1237  0.1090  0.1715
 1047loPI   C3A15397   6.724   6.101   7.150  0.2926  0.0289 -0.1340
 1047loPI   C4A15398   6.683   6.148   7.623  0.0120 -0.0619 -0.3773
 1047loPI   C5A15399   6.832   6.421   7.993 -0.0940 -0.2078  0.1497
 1047loPI   C6A15400   6.785   6.618   8.358  0.0169 -0.1102 -0.0453
 1047loPI   C1B15401   7.504   6.153   6.576  0.2167  0.0404 -0.2941
 1047loPI   C2B15402   7.385   5.983   7.014  0.0246 -0.1652 -0.0298
 1047loPI   C3B15403   7.620   5.810   7.316 -0.0265  0.0312 -0.0699
 1047loPI   C4B15404   7.634   5.930   7.796 -0.0444 -0.0134 -0.0046
 1048loPI    C115405  17.751   4.044   5.740  0.0500 -0.0775  0.0918
 1048loPI    C215406  17.891   3.869   5.409  0.0937 -0.1745  0.1611
 1048loPI    C315407  17.501   3.851   5.495  0.0558 -0.0075  0.0301
 1048loPI   PO415408  17.914   4.071   5.971 -0.2460 -0.1570  0.1167
 1048loPI   GL115409  17.930   4.178   6.323 -0.2283 -0.1356  0.0236
 1048loPI   GL215410  18.293   4.111   6.358 -0.2100 -0.1685  0.0151
 1048loPI   C1A15411  17.885   4.238   6.752  0.0084 -0.0019  0.0320
 1048loPI   C2A15412  17.975   4.272   7.201  0.0870  0.2168  0.1546
 1048loPI   C3A15413  17.995   4.371   7.534 -0.2422 -0.0678  0.0309
 1048loPI   C4A15414  18.018   4.549   7.937  0.1708 -0.0339 -0.2336
 1048loPI   C5A15415  18.292   4.702   8.255 -0.3451  0.1397  0.4431
 1048loPI   C6A15416  18.759   4.761   8.478 -0.2647  0.0140 -0.0592
 1048loPI   C1B15417  18.269   3.911   6.722  0.0606  0.0718  0.0948
 1048loPI   C2B15418  18.441   4.018   7.045  0.2095  0.1584  0.0294
 1048loPI   C3B15419  18.424   3.958   7.404  0.0502  0.1796  0.1324
 1048loPI   C4B15420  18.400   3.942   7.802  0.2145  0.0549 -0.3731
 1049loPI    C115421   1.210  12.079   5.366  0.1871  0.4355  0.1399
 1049loPI    C215422   1.186  11.881   5.019  0.0092  0.1454  0.3132
 1049loPI    C315423   1.368  12.237   5.034  0.0955  0.1215 -0.0581
 1049loPI   PO415424   1.361  11.869   5.503 -0.0188  0.1744 -0.2370
 1049loPI   GL115425   1.513  11.659   5.844 -0.1732 -0.1069  0.0008
 1049loPI   GL215426   1.488  11.395   5.900  0.0433 -0.0921  0.1600
 1049loPI   C1A15427   1.447  11.777   6.301  0.0204  0.3330 -0.2942
 1049loPI   C2A15428   1.432  11.984   6.728 -0.0896 -0.3091  0.2160
 1049loPI   C3A15429   1.446  11.801   7.106 -0.0639 -0.2168  0.0211
 1049loPI   C4A15430   1.508  11.797   7.546  0.4652 -0.1286  0.1172
 1049loPI   C5A15431   1.510  11.830   7.934 -0.2606 -0.0834 -0.0886
 1049loPI   C6A15432   1.768  11.972   8.270 -0.0126 -0.0429 -0.2053
 1049loPI   C1B15433   1.498  11.236   6.205 -0.0139 -0.1047  0.0415
 1049loPI   C2B15434   1.463  11.288   6.555  0.3441  0.3494  0.0229
 1049loPI   C3B15435   1.417  11.292   7.030 -0.0545 -0.2748 -0.1115
 1049loPI   C4B15436   1.410  11.300   7.442  0.0053 -0.0437  0.1484
 1050loPI    C115437   7.088  11.575   5.480  0.0161 -0.0704 -0.2096
 1050loPI    C215438   6.743  11.426   5.343 -0.0295  0.1083 -0.2921
 1050loPI    C315439   7.041  11.179   5.446 -0.2363 -0.0544 -0.0734
 1050loPI   PO415440   7.046  11.835   5.679 -0.1486  0.0624 -0.1618
 1050loPI   GL115441   7.177  12.025   6.053  0.0695  0.3843  0.0443
 1050loPI   GL215442   7.392  12.181   6.184 -0.2133  0.0361 -0.0870
 1050loPI   C1A15443   7.219  12.009   6.556  0.1857  0.0533 -0.2438
 1050loPI   C2A15444   7.333  11.922   6.947 -0.1166  0.0703 -0.0028
 1050loPI   C3A15445   7.282  11.861   7.341  0.0029  0.0940 -0.2466
 1050loPI   C4A15446   6.973  11.725   7.692 -0.1463 -0.0588 -0.0034
 1050loPI   C5A15447   6.774  11.735   8.153  0.1566  0.2762  0.3561
 1050loPI   C6A15448   6.493  11.890   8.402 -0.0285 -0.0127  0.1559
 1050loPI   C1B15449   7.516  12.310   6.717 -0.0760  0.1195  0.0202
 1050loPI   C2B15450   7.775  12.306   7.167  0.0964 -0.1884  0.0062
 1050loPI   C3B15451   7.857  12.213   7.531 -0.0207  0.0153 -0.0358
 1050loPI   C4B15452   7.684  11.994   7.767  0.0659 -0.0156 -0.0055
 1051loPI    C115453   9.601  14.926   5.784  0.2074  0.0141 -0.0691
 1051loPI    C215454   9.218  14.826   5.836  0.1735  0.0690 -0.2064
 1051loPI    C315455   9.350  14.926   5.473  0.3476 -0.0722 -0.1836
 1051loPI   PO415456   9.648  15.011   6.035  0.2502  0.0465  0.2881
 1051loPI   GL115457   9.684  15.152   6.505 -0.1036 -0.0240  0.3536
 1051loPI   GL215458   9.525  15.413   6.285 -0.1753  0.0571  0.0724
 1051loPI   C1A15459   9.545  15.122   6.955 -0.2265 -0.1978 -0.0105
 1051loPI   C2A15460   9.516  15.019   7.483 -0.0734 -0.1052  0.3095
 1051loPI   C3A15461   9.569  15.019   7.974  0.3475  0.2690  0.0249
 1051loPI   C4A15462   9.644  14.730   8.271  0.0262 -0.0317 -0.1208
 1051loPI   C5A15463   9.919  14.262   8.300  0.0825  0.2417  0.1479
 1051loPI   C6A15464  10.332  13.901   8.512  0.4092 -0.2656 -0.3313
 1051loPI   C1B15465   9.459  15.569   6.785  0.3188 -0.3683  0.0123
 1051loPI   C2B15466   9.395  15.643   7.240  0.1286  0.0815 -0.2226
 1051loPI   C3B15467   9.073  15.701   7.591  0.0249  0.0290  0.1224
 1051loPI   C4B15468   8.991  15.842   8.022 -0.1463  0.0627 -0.1836
 1052loPI    C115469   4.690   0.033   5.561 -0.1718  0.1507  0.0974
 1052loPI    C215470   4.949   0.198   5.306 -0.0079 -0.1439  0.0684
 1052loPI    C315471   4.567   0.151   5.200 -0.0260  0.0850  0.0255
 1052loPI   PO415472   4.738   0.228   5.826  0.0265 -0.2700 -0.2499
 1052loPI   GL115473   4.616   0.218   6.286  0.0714 -0.0633 -0.2380
 1052loPI   GL215474   4.318   0.405   6.372  0.0324 -0.0504  0.0024
 1052loPI   C1A15475   4.856   0.071   6.487  0.0022  0.0709  0.2213
 1052loPI   C2A15476   5.096  -0.047   6.829  0.0620  0.3083  0.0053
 1052loPI   C3A15477   5.185  -0.001   7.322  0.1849 -0.0291 -0.0650
 1052loPI   C4A15478   5.382   0.131   7.735  0.0623 -0.0048 -0.1324
 1052loPI   C5A15479   5.383  -0.055   8.194 -0.0778  0.1374 -0.1592
 1052loPI   C6A15480   5.387  -0.405   8.476 -0.0938  0.1185 -0.2324
 1052loPI   C1B15481   4.231   0.383   6.822 -0.1902  0.1736 -0.2468
 1052loPI   C2B15482   4.184   0.109   7.251  0.0753 -0.1657  0.0827
 1052loPI   C3B15483   4.061  -0.197   7.502 -0.0998 -0.1235 -0.1408
 1052loPI   C4B15484   3.949  -0.155   8.003  0.2580  0.1806 -0.0608
 1053loPI    C115485   4.671   9.272   5.503  0.1090 -0.0729  0.2398
 1053loPI    C215486   4.355   9.078   5.353  0.1158 -0.1000  0.2604
 1053loPI    C315487   4.501   9.399   5.164  0.0729 -0.0845  0.2535
 1053loPI   PO415488   4.617   9.204   5.778  0.0494 -0.1779  0.1090
 1053loPI   GL115489   4.489   9.455   6.111  0.1713  0.0525 -0.0964
 1053loPI   GL215490   4.685   9.578   6.315 -0.0309 -0.0728 -0.0346
 1053loPI   C1A15491   4.230   9.273   6.358 -0.0652 -0.0439  0.0337
 1053loPI   C2A15492   4.120   9.243   6.726  0.1717  0.0015  0.2998
 1053loPI   C3A15493   4.241   9.361   7.141  0.1038  0.0202 -0.1588
 1053loPI   C4A15494   4.214   9.211   7.635 -0.1176  0.0828  0.0947
 1053loPI   C5A15495   4.173   9.179   8.015  0.0717 -0.0287  0.1209
 1053loPI   C6A15496   4.030   8.887   8.396  0.0209 -0.2443 -0.0718
 1053loPI   C1B15497   4.604   9.470   6.701 -0.0699 -0.0696  0.2216
 1053loPI   C2B15498   4.614   9.629   7.127  0.0328 -0.2231  0.0327
 1053loPI   C3B15499   4.722   9.423   7.423 -0.2142  0.0804 -0.0388
 1053loPI   C4B15500   4.661   9.328   7.846  0.1070 -0.1296  0.0362
 1054loPI    C115501   2.401   8.806   5.321  0.2081 -0.2464  0.0175
 1054loPI    C215502   2.008   8.731   5.329  0.0885  0.3251 -0.0479
 1054loPI    C315503   2.189   8.809   4.981  0.2754  0.0119 -0.0243
 1054loPI   PO415504   2.461   8.597   5.508  0.2448  0.0668  0.0437
 1054loPI   GL115505   2.449   8.670   5.969 -0.1752 -0.0868  0.1371
 1054loPI   GL215506   2.785   8.621   5.979 -0.0214 -0.1051 -0.1291
 1054loPI   C1A15507   2.489   8.693   6.364  0.0301 -0.0789  0.1135
 1054loPI   C2A15508   2.448   8.738   6.752 -0.1979  0.1246  0.1846
 1054loPI   C3A15509   2.417   8.695   7.213  0.1473  0.0566  0.0432
 1054loPI   C4A15510   2.313   8.770   7.669 -0.1467 -0.2060  0.1311
 1054loPI   C5A15511   2.330   8.526   8.041  0.2117 -0.0465  0.3036
 1054loPI   C6A15512   2.571   8.604   8.524  0.2495  0.1174 -0.4017
 1054loPI   C1B15513   2.930   8.975   6.313 -0.2627  0.1037  0.1476
 1054loPI   C2B15514   2.828   9.056   6.701 -0.0314 -0.1124 -0.1286
 1054loPI   C3B15515   2.850   8.988   7.227  0.0120  0.1808  0.0888
 1054loPI   C4B15516   2.850   8.977   7.702  0.4211 -0.2972 -0.0686
 1055loPI    C115517   4.471  14.668   5.948  0.1217 -0.2458 -0.2055
 1055loPI    C215518   4.742  14.946   5.853 -0.0786 -0.0265 -0.1444
 1055loPI    C315519   4.505  14.792   5.570 -0.0590 -0.0367 -0.1553
 1055loPI   PO415520   4.271  14.777   6.112 -0.1123 -0.1153 -0.2132
 1055loPI   GL115521   4.014  14.614   6.348 -0.3509  0.0684  0.0973
 1055loPI   GL215522   4.079  14.916   6.598 -0.1174  0.2228  0.1613
 1055loPI   C1A15523   3.894  14.209   6.516 -0.2319  0.2053  0.1934
 1055loPI   C2A15524   3.841  14.193   6.890  0.0746 -0.3968  0.0813
 1055loPI   C3A15525   3.750  14.269   7.327  0.3994 -0.2429  0.1247
 1055loPI   C4A15526   3.748  14.292   7.802 -0.0732 -0.1386 -0.0058
 1055loPI   C5A15527   3.725  14.453   8.170 -0.0208  0.0639  0.1569
 1055loPI   C6A15528   3.350  14.465   8.478  0.3269  0.0313  0.3790
 1055loPI   C1B15529   3.948  14.721   6.976  0.2452  0.0041  0.2463
 1055loPI   C2B15530   3.752  14.791   7.357 -0.0030  0.2776 -0.0422
 1055loPI   C3B15531   3.668  14.756   7.747  0.1484  0.1361  0.0610
 1055loPI   C4B15532   3.945  14.912   8.066  0.4975  0.1940  0.0395
 1056loPI    C115533   0.273  13.193   5.445 -0.1725 -0.1227 -0.3122
 1056loPI    C215534   0.125  13.534   5.300  0.2300  0.2036  0.0180
 1056loPI    C315535   0.456  13.377   5.141  0.0029 -0.0809 -0.1833
 1056loPI   PO415536   0.274  13.232   5.734 -0.2745  0.0221  0.2011
 1056loPI   GL115537   0.096  13.157   6.018 -0.2297  0.0945 -0.1070
 1056loPI   GL215538   0.128  12.765   5.996  0.0652 -0.0991  0.0073
 1056loPI   C1A15539   0.120  13.222   6.468 -0.3684 -0.0988  0.4124
 1056loPI   C2A15540   0.108  13.203   6.936  0.1079 -0.0619 -0.1373
 1056loPI   C3A15541   0.174  13.154   7.409  0.0750  0.2377  0.1302
 1056loPI   C4A15542   0.341  12.951   7.789 -0.2453 -0.1485 -0.0164
 1056loPI   C5A15543   0.529  12.682   7.892 -0.2876  0.1027  0.1154
 1056loPI   C6A15544   0.597  12.230   7.905 -0.1363 -0.0696  0.1071
 1056loPI   C1B15545  -0.026  12.682   6.350  0.3125 -0.2198  0.0900
 1056loPI   C2B15546   0.111  12.678   6.825  0.0333  0.0978 -0.3932
 1056loPI   C3B15547   0.248  12.687   7.371 -0.1357 -0.0487  0.1179
 1056loPI   C4B15548   0.071  12.575   7.710 -0.0349 -0.1241  0.0930
 1057loPI    C115549  10.598  14.031   5.705  0.0109 -0.1575 -0.0565
 1057loPI    C215550  10.450  13.745   5.469  0.1532 -0.1428 -0.1649
 1057loPI    C315551  10.624  14.067   5.308 -0.2316  0.1292 -0.0495
 1057loPI   PO415552  10.720  13.939   5.898 -0.3673  0.3468 -0.1222
 1057loPI   GL115553  10.648  13.703   6.259  0.0005  0.1669  0.0109
 1057loPI   GL215554  10.762  13.316   6.342  0.1634 -0.0902  0.0663
 1057loPI   C1A15555  10.502  13.901   6.619  0.2107 -0.0667 -0.0264
 1057loPI   C2A15556  10.680  14.102   7.021  0.4017 -0.1146 -0.2250
 1057loPI   C3A15557  10.520  14.296   7.377  0.0807  0.1256 -0.1080
 1057loPI   C4A15558  10.651  14.102   7.811  0.2295 -0.0933 -0.2943
 1057loPI   C5A15559  10.731  14.259   8.185  0.1357  0.2264  0.1154
 1057loPI   C6A15560  10.395  14.409   8.433  0.2373  0.2633 -0.1067
 1057loPI   C1B15561  10.913  13.061   6.802 -0.0908  0.0414 -0.2897
 1057loPI   C2B15562  10.733  13.225   7.203 -0.1810  0.0668  0.2609
 1057loPI   C3B15563  10.592  13.165   7.590  0.0883  0.3183  0.0004
 1057loPI   C4B15564  10.387  12.824   7.841  0.0869  0.1412 -0.1386
 1058loPI    C115565   7.814   2.638   5.816  0.2034 -0.1182 -0.0489
 1058loPI    C215566   7.620   2.698   5.471 -0.0935 -0.0076  0.1342
 1058loPI    C315567   8.003   2.585   5.467 -0.1841 -0.3225 -0.2342
 1058loPI   PO415568   7.629   2.487   5.946 -0.1466 -0.1405  0.0254
 1058loPI   GL115569   7.579   2.817   6.317  0.0933  0.2419  0.1558
 1058loPI   GL215570   7.317   3.037   6.411 -0.1556  0.0203 -0.2839
 1058loPI   C1A15571   7.719   2.487   6.571 -0.2193 -0.2558  0.2230
 1058loPI   C2A15572   7.705   2.532   7.022  0.0983  0.0642  0.0126
 1058loPI   C3A15573   7.783   2.387   7.446  0.0560  0.0398 -0.2195
 1058loPI   C4A15574   7.724   2.322   7.917 -0.2574 -0.0704 -0.2500
 1058loPI   C5A15575   7.479   2.076   8.206 -0.2299  0.1093  0.1593
 1058loPI   C6A15576   7.433   1.855   8.514  0.2252 -0.3213  0.1384
 1058loPI   C1B15577   7.819   3.262   6.497  0.0820  0.1176  0.0584
 1058loPI   C2B15578   7.922   3.656   6.797 -0.2905 -0.2177  0.1706
 1058loPI   C3B15579   7.954   3.660   7.239 -0.0608  0.4593  0.0585
 1058loPI   C4B15580   7.908   3.313   7.600  0.1517  0.0733  0.1387
 1059loPI    C115581  17.710   9.247   5.362 -0.1090  0.0877  0.2046
 1059loPI    C215582  17.480   9.258   5.035  0.0923  0.3654  0.0678
 1059loPI    C315583  17.795   9.012   5.049 -0.3391 -0.1964  0.3501
 1059loPI   PO415584  17.634   9.592   5.435  0.1294  0.1131  0.2309
 1059loPI   GL115585  17.264   9.707   5.708 -0.2675  0.0027  0.1034
 1059loPI   GL215586  16.911   9.700   5.690  0.2936 -0.0759 -0.0458
 1059loPI   C1A15587  17.200   9.828   6.114 -0.0487  0.0395  0.0429
 1059loPI   C2A15588  17.287  10.012   6.415 -0.2253  0.0845  0.1726
 1059loPI   C3A15589  17.210   9.902   6.778 -0.1446 -0.0831 -0.1594
 1059loPI   C4A15590  17.282   9.902   7.111 -0.2184  0.0073 -0.2931
 1059loPI   C5A15591  17.206   9.953   7.611  0.1172 -0.1121 -0.1384
 1059loPI   C6A15592  17.425  10.173   7.950  0.1539  0.2005 -0.1060
 1059loPI   C1B15593  16.741   9.497   6.038 -0.2970  0.0524  0.1541
 1059loPI   C2B15594  16.815   9.489   6.514  0.1927 -0.0710 -0.0789
 1059loPI   C3B15595  16.883   9.562   6.918  0.0898 -0.4087  0.1215
 1059loPI   C4B15596  16.976   9.565   7.263 -0.3072  0.1159  0.0014
 1060loPI    C115597   3.877   2.424   5.833 -0.0331 -0.0983 -0.1993
 1060loPI    C215598   3.611   2.471   5.538 -0.0067  0.1074 -0.1912
 1060loPI    C315599   3.880   2.758   5.613 -0.0030  0.0495  0.0229
 1060loPI   PO415600   3.798   2.326   5.965  0.0829 -0.1501 -0.1044
 1060loPI   GL115601   3.700   2.413   6.418  0.0164 -0.0611  0.0668
 1060loPI   GL215602   3.607   2.251   6.838 -0.0444  0.2469 -0.0776
 1060loPI   C1A15603   3.663   2.778   6.660 -0.3972  0.0826  0.2380
 1060loPI   C2A15604   3.569   3.093   6.921 -0.1403 -0.2662 -0.2317
 1060loPI   C3A15605   3.543   3.092   7.338  0.4723  0.0884  0.0644
 1060loPI   C4A15606   3.777   3.212   7.726 -0.1555  0.2677  0.1177
 1060loPI   C5A15607   3.914   3.175   8.172 -0.0349  0.2416 -0.1168
 1060loPI   C6A15608   4.072   2.922   8.471  0.1104  0.4058  0.2723
 1060loPI   C1B15609   3.583   2.151   7.307  0.2867 -0.1308  0.0355
 1060loPI   C2B15610   3.602   2.028   7.722 -0.1171  0.1618 -0.1244
 1060loPI   C3B15611   3.311   1.816   8.061 -0.0352  0.2104 -0.2584
 1060loPI   C4B15612   3.196   1.366   8.354  0.0819 -0.1192 -0.1225
 1061loPI    C115613   8.982   9.007   5.511 -0.2493 -0.1799 -0.1505
 1061loPI    C215614   9.238   9.063   5.208 -0.0346  0.2312  0.0975
 1061loPI    C315615   8.875   8.910   5.137  0.2109 -0.2041 -0.2828
 1061loPI   PO415616   9.148   8.936   5.677  0.0770 -0.3009 -0.0013
 1061loPI   GL115617   9.351   8.788   6.027 -0.0984  0.4240  0.1775
 1061loPI   GL215618   9.447   8.587   6.306  0.2475 -0.3571 -0.0933
 1061loPI   C1A15619   9.327   9.157   6.434 -0.0511  0.1300 -0.2520
 1061loPI   C2A15620   9.329   9.275   6.873  0.0734  0.1200  0.1515
 1061loPI   C3A15621   9.363   9.210   7.294  0.3318  0.2947  0.1429
 1061loPI   C4A15622   9.631   9.252   7.567 -0.4854 -0.0256 -0.0775
 1061loPI   C5A15623   9.984   9.391   7.783 -0.1759 -0.3586 -0.1343
 1061loPI   C6A15624  10.058   9.891   7.879  0.3130 -0.0881 -0.1374
 1061loPI   C1B15625   9.438   8.320   6.661  0.1870 -0.0421  0.1108
 1061loPI   C2B15626   9.368   8.380   7.153  0.1355  0.2089  0.2676
 1061loPI   C3B15627   9.007   8.456   7.488 -0.0726 -0.0442 -0.4970
 1061loPI   C4B15628   8.687   8.557   7.841 -0.0233  0.0322  0.2716
 1062loPI    C115629   5.144   9.034   5.402 -0.1585 -0.1415 -0.0530
 1062loPI    C215630   5.066   9.334   5.149 -0.1128 -0.0117  0.0854
 1062loPI    C315631   5.435   9.181   5.171 -0.1103 -0.0045  0.0934
 1062loPI   PO415632   5.128   9.087   5.677 -0.0560 -0.1625  0.1460
 1062loPI   GL115633   5.034   9.285   6.083 -0.0120 -0.0939  0.0488
 1062loPI   GL215634   4.821   9.095   6.213  0.0440 -0.0101  0.0780
 1062loPI   C1A15635   5.098   9.344   6.614  0.0680  0.2571  0.0083
 1062loPI   C2A15636   5.013   9.358   6.991 -0.1302  0.2601 -0.0101
 1062loPI   C3A15637   5.204   9.385   7.267  0.2583  0.0995  0.2299
 1062loPI   C4A15638   5.627   9.272   7.425  0.3132  0.0489  0.2580
 1062loPI   C5A15639   5.851   9.522   7.736  0.0345  0.3161  0.1164
 1062loPI   C6A15640   6.146   9.332   8.041  0.1474  0.0124  0.3152
 1062loPI   C1B15641   4.710   8.996   6.544  0.1009 -0.3131  0.2095
 1062loPI   C2B15642   4.599   8.999   6.904  0.1816 -0.1526  0.0172
 1062loPI   C3B15643   4.568   8.910   7.369 -0.3759  0.0615 -0.2291
 1062loPI   C4B15644   4.655   8.803   7.747  0.0029 -0.0699  0.4844
 1063loPI    C115645   2.036   7.337   5.777 -0.0934 -0.0327 -0.1712
 1063loPI    C215646   1.971   7.690   5.601  0.1514  0.0591 -0.0825
 1063loPI    C315647   2.063   7.370   5.379  0.0985  0.0902 -0.1497
 1063loPI   PO415648   2.157   7.281   6.037  0.2061  0.0488  0.0478
 1063loPI   GL115649   2.177   7.138   6.367  0.3668 -0.0829 -0.2368
 1063loPI   GL215650   2.077   7.378   6.564 -0.1312  0.1343  0.0883
 1063loPI   C1A15651   2.004   6.912   6.669 -0.0268 -0.1126  0.1370
 1063loPI   C2A15652   2.031   6.843   7.097 -0.0446 -0.2155  0.0107
 1063loPI   C3A15653   2.019   6.828   7.536  0.0557 -0.0054  0.1508
 1063loPI   C4A15654   2.130   6.780   8.005 -0.1655 -0.3516  0.2621
 1063loPI   C5A15655   2.049   7.165   8.354  0.1843  0.2017 -0.0456
 1063loPI   C6A15656   2.187   7.264   8.733  0.2126  0.3986  0.2490
 1063loPI   C1B15657   2.054   7.356   6.924  0.1010 -0.3143 -0.1778
 1063loPI   C2B15658   2.033   7.424   7.429  0.0278  0.0321  0.1684
 1063loPI   C3B15659   2.141   7.382   7.854  0.0533  0.2884  0.0079
 1063loPI   C4B15660   2.224   7.623   8.255 -0.0034 -0.0867  0.3068
 1064loPI    C115661   0.649  14.724   5.150  0.2196  0.2249  0.0792
 1064loPI    C215662   0.623  14.972   4.837  0.1363  0.3212  0.1618
 1064loPI    C315663   0.557  14.580   4.788  0.0741  0.3430  0.0685
 1064loPI   PO415664   0.490  14.939   5.326 -0.1926  0.1615 -0.0691
 1064loPI   GL115665   0.448  14.944   5.681 -0.0536  0.0205  0.1943
 1064loPI   GL215666   0.683  14.874   5.815 -0.1525  0.1662 -0.1141
 1064loPI   C1A15667   0.442  15.088   6.199  0.0812 -0.1467 -0.2089
 1064loPI   C2A15668   0.575  15.167   6.613 -0.2191  0.1582 -0.0657
 1064loPI   C3A15669   0.676  15.133   6.949 -0.0625  0.0389  0.2762
 1064loPI   C4A15670   0.630  15.161   7.374 -0.0546 -0.2197  0.2217
 1064loPI   C5A15671   0.696  15.155   7.790  0.4619  0.2548 -0.2910
 1064loPI   C6A15672   0.781  15.477   8.088  0.0283  0.2080  0.1350
 1064loPI   C1B15673   0.868  14.833   6.343  0.2101  0.0556  0.1089
 1064loPI   C2B15674   1.167  14.810   6.727 -0.0425 -0.0437  0.1565
 1064loPI   C3B15675   1.067  14.860   7.148  0.1632  0.3424 -0.1766
 1064loPI   C4B15676   0.969  14.806   7.607 -0.1740  0.1067 -0.3289
 1065loPI    C115677   1.746   6.126   5.727  0.0530  0.2123  0.0868
 1065loPI    C215678   1.656   6.104   5.337  0.0293  0.0138  0.1024
 1065loPI    C315679   1.592   5.789   5.576  0.1927  0.0799  0.2356
 1065loPI   PO415680   1.675   6.354   5.849 -0.3208  0.2601  0.1986
 1065loPI   GL115681   1.550   6.378   6.298 -0.1699 -0.1588 -0.0918
 1065loPI   GL215682   1.595   6.720   6.281 -0.1025  0.1555  0.0059
 1065loPI   C1A15683   1.819   6.287   6.543  0.1473  0.1999  0.4335
 1065loPI   C2A15684   1.916   6.329   6.944 -0.0309 -0.0806 -0.0504
 1065loPI   C3A15685   1.948   6.337   7.441 -0.3961 -0.0908 -0.1706
 1065loPI   C4A15686   1.810   6.347   7.953  0.2105  0.1944 -0.1312
 1065loPI   C5A15687   1.814   6.016   8.296  0.1932 -0.1080 -0.1060
 1065loPI   C6A15688   1.462   5.744   8.607 -0.1965 -0.0804  0.1133
 1065loPI   C1B15689   1.603   6.697   6.724  0.5224  0.1292  0.0169
 1065loPI   C2B15690   1.559   6.646   7.163 -0.3398  0.3874  0.1570
 1065loPI   C3B15691   1.535   6.620   7.569  0.0566  0.2267 -0.0653
 1065loPI   C4B15692   1.622   6.801   8.030  0.0775 -0.1048 -0.0620
 1066loPI    C115693   3.504   3.412   5.624 -0.0395  0.0103 -0.0856
 1066loPI    C215694   3.596   3.691   5.895 -0.1929 -0.0891  0.0712
 1066loPI    C315695   3.405   3.794   5.559  0.2422  0.0773 -0.1331
 1066loPI   PO415696   3.622   3.222   5.842 -0.1908  0.2299  0.0698
 1066loPI   GL115697   3.591   3.161   6.315  0.1996 -0.1326 -0.2596
 1066loPI   GL215698   3.285   3.302   6.242  0.1718  0.3883 -0.0879
 1066loPI   C1A15699   4.002   3.122   6.540 -0.1169 -0.5857 -0.2596
 1066loPI   C2A15700   4.024   3.193   6.997 -0.3097  0.0166 -0.1146
 1066loPI   C3A15701   4.055   3.366   7.389 -0.0722 -0.3583 -0.2525
 1066loPI   C4A15702   4.255   3.236   7.775  0.0480  0.1738  0.0940
 1066loPI   C5A15703   4.580   3.167   8.063 -0.0267 -0.2161 -0.3416
 1066loPI   C6A15704   4.892   3.243   8.273 -0.0600  0.1549 -0.2375
 1066loPI   C1B15705   3.386   3.498   6.637 -0.1698  0.1088 -0.0927
 1066loPI   C2B15706   3.368   3.616   7.115  0.1062  0.0973  0.2346
 1066loPI   C3B15707   3.303   3.698   7.514 -0.1866 -0.4983  0.1938
 1066loPI   C4B15708   3.472   3.999   7.828  0.1138 -0.3865  0.0033
 1067loPI    C115709  11.462   1.893   5.357 -0.0018 -0.1855 -0.1233
 1067loPI    C215710  11.357   1.985   4.982  0.0716 -0.3195 -0.1774
 1067loPI    C315711  11.093   1.811   5.228 -0.0965  0.1089 -0.0466
 1067loPI   PO415712  11.610   2.086   5.406 -0.1272 -0.3472 -0.3728
 1067loPI   GL115713  11.518   2.340   5.872  0.0759 -0.1427 -0.4258
 1067loPI   GL215714  11.570   1.964   5.946  0.1444  0.2473 -0.0712
 1067loPI   C1A15715  11.725   2.433   6.097  0.1076  0.2289 -0.0974
 1067loPI   C2A15716  11.753   2.301   6.540 -0.2210  0.1243  0.0716
 1067loPI   C3A15717  11.967   2.115   6.887  0.2311 -0.0014  0.0225
 1067loPI   C4A15718  11.893   2.141   7.267  0.2223  0.2184  0.2078
 1067loPI   C5A15719  11.850   2.187   7.734  0.0795 -0.0044 -0.1418
 1067loPI   C6A15720  11.852   2.241   8.216  0.1014  0.0551  0.2810
 1067loPI   C1B15721  11.998   2.005   6.131 -0.0642 -0.3654 -0.0598
 1067loPI   C2B15722  12.286   2.004   6.471 -0.3974  0.1440 -0.1275
 1067loPI   C3B15723  12.445   2.022   6.866  0.1337 -0.2029  0.0344
 1067loPI   C4B15724  12.360   1.918   7.329  0.0573 -0.1344 -0.0251
 1068loPI    C115725  12.688  10.208   5.416  0.2771 -0.2283  0.0354
 1068loPI    C215726  12.347  10.154   5.617  0.2660 -0.0803  0.0576
 1068loPI    C315727  12.377  10.028   5.239  0.0420  0.2774 -0.0843
 1068loPI   PO415728  12.759  10.468   5.491 -0.0064  0.2054 -0.1280
 1068loPI   GL115729  12.625  10.585   5.912  0.0947 -0.0574  0.0723
 1068loPI   GL215730  12.423  10.501   6.084 -0.2088  0.2544 -0.1698
 1068loPI   C1A15731  12.974  10.660   6.213 -0.2115 -0.0949 -0.1285
 1068loPI   C2A15732  13.024  10.562   6.582 -0.1378 -0.2609 -0.0046
 1068loPI   C3A15733  13.073  10.670   7.082  0.1972  0.0860  0.2508
 1068loPI   C4A15734  13.213  10.716   7.504  0.0228  0.1880  0.2417
 1068loPI   C5A15735  13.365  10.687   7.919 -0.1356 -0.0530  0.0285
 1068loPI   C6A15736  13.438  10.884   8.287 -0.1581 -0.1093  0.4556
 1068loPI   C1B15737  12.493  10.608   6.500 -0.2500 -0.1231 -0.1681
 1068loPI   C2B15738  12.516  10.587   7.003 -0.0816  0.0116  0.0102
 1068loPI   C3B15739  12.720  10.530   7.410  0.1166  0.1146  0.1690
 1068loPI   C4B15740  12.701  10.743   7.676  0.0891 -0.0845  0.2306
 1069loPI    C115741   3.771   9.581   5.301  0.1611 -0.0315  0.2037
 1069loPI    C215742   3.632   9.239   5.148 -0.1037  0.1600  0.0051
 1069loPI    C315743   4.025   9.315   5.144 -0.0220 -0.2194  0.2214
 1069loPI   PO415744   3.748   9.609   5.486 -0.4491 -0.1962  0.1071
 1069loPI   GL115745   3.680   9.627   5.852  0.1150 -0.2001  0.1407
 1069loPI   GL215746   3.935   9.649   6.066 -0.0615  0.0292 -0.1499
 1069loPI   C1A15747   3.691  10.011   6.212 -0.1352  0.2858 -0.2384
 1069loPI   C2A15748   3.711  10.033   6.711  0.1176 -0.0592  0.0643
 1069loPI   C3A15749   3.655   9.996   7.141 -0.1343  0.1310  0.3774
 1069loPI   C4A15750   3.695  10.050   7.526  0.3432 -0.0539  0.2230
 1069loPI   C5A15751   3.685  10.044   8.005 -0.1642  0.2726  0.0768
 1069loPI   C6A15752   3.861   9.913   8.371 -0.0594 -0.3029  0.0834
 1069loPI   C1B15753   3.737   9.554   6.524 -0.1036 -0.3228 -0.0034
 1069loPI   C2B15754   3.715   9.536   7.001  0.0253 -0.2943 -0.1776
 1069loPI   C3B15755   3.709   9.548   7.446  0.0522 -0.4472  0.1296
 1069loPI   C4B15756   3.979   9.628   7.841 -0.0385 -0.1604 -0.0543
 1070loPI    C115757   3.030  16.023   5.886 -0.2351  0.2273  0.1705
 1070loPI    C215758   2.995  16.271   5.574 -0.0051  0.1310  0.0660
 1070loPI    C315759   3.120  15.895   5.518 -0.0614  0.0819  0.2620
 1070loPI   PO415760   3.097  16.199   6.091 -0.1639 -0.2639 -0.0284
 1070loPI   GL115761   2.908  16.164   6.402 -0.1705  0.1260 -0.0528
 1070loPI   GL215762   3.081  15.860   6.545  0.0035  0.1417  0.1422
 1070loPI   C1A15763   2.571  16.125   6.683 -0.2711  0.0295 -0.1393
 1070loPI   C2A15764   2.520  16.082   7.111 -0.1620 -0.2094  0.3724
 1070loPI   C3A15765   2.439  16.202   7.391 -0.2839 -0.1361  0.0615
 1070loPI   C4A15766   2.420  16.164   7.822 -0.0355 -0.0223  0.2033
 1070loPI   C5A15767   2.257  15.952   8.124 -0.4051 -0.0773  0.2700
 1070loPI   C6A15768   1.836  15.935   8.081  0.0398 -0.1570 -0.2107
 1070loPI   C1B15769   2.938  15.837   6.954  0.2941 -0.0531 -0.0029
 1070loPI   C2B15770   2.877  15.819   7.355 -0.3284 -0.0653  0.2622
 1070loPI   C3B15771   2.958  15.922   7.736  0.1099  0.0716 -0.0883
 1070loPI   C4B15772   2.949  15.657   8.201  0.2265  0.0753 -0.2656
 1071loPI    C115773  17.793   4.631   5.340  0.1961 -0.0916  0.2499
 1071loPI    C215774  17.626   4.926   5.128 -0.2272 -0.2593  0.3380
 1071loPI    C315775  17.813   4.626   4.940 -0.0693 -0.0987  0.2348
 1071loPI   PO415776  18.026   4.718   5.566  0.0623 -0.0117  0.1474
 1071loPI   GL115777  18.135   4.823   6.020 -0.2790 -0.1863 -0.2291
 1071loPI   GL215778  18.001   5.036   6.110 -0.0351  0.2048  0.8318
 1071loPI   C1A15779  18.254   4.555   6.456  0.3510  0.3064  0.3341
 1071loPI   C2A15780  18.427   4.504   6.884  0.3909 -0.1444  0.2539
 1071loPI   C3A15781  18.463   4.553   7.282  0.1177 -0.1532  0.1147
 1071loPI   C4A15782  18.445   4.456   7.717 -0.0946  0.1666  0.1240
 1071loPI   C5A15783  18.698   4.407   8.094  0.0934 -0.1717 -0.2690
 1071loPI   C6A15784  19.092   4.341   8.255  0.0408  0.2515  0.0705
 1071loPI   C1B15785  17.965   5.290   6.347  0.0297 -0.1046  0.0341
 1071loPI   C2B15786  17.946   5.385   6.753  0.3426  0.1359 -0.1564
 1071loPI   C3B15787  18.062   5.388   7.164 -0.0682  0.3597  0.2124
 1071loPI   C4B15788  18.085   5.520   7.603  0.0744  0.0597  0.0386
 1072loPI    C115789  11.059   2.237   5.535 -0.0298 -0.0830 -0.0168
 1072loPI    C215790  10.754   2.118   5.305 -0.0543  0.1435 -0.1048
 1072loPI    C315791  11.051   2.333   5.147  0.0957  0.0199  0.0054
 1072loPI   PO415792  10.906   2.433   5.653  0.1872  0.3986 -0.4963
 1072loPI   GL115793  11.020   2.657   5.947 -0.2401 -0.0196  0.1409
 1072loPI   GL215794  10.769   2.444   6.154 -0.0031  0.1113 -0.0104
 1072loPI   C1A15795  11.315   2.574   6.248  0.0501  0.0018  0.1628
 1072loPI   C2A15796  11.438   2.670   6.687  0.0661  0.0880 -0.2825
 1072loPI   C3A15797  11.660   2.550   7.050 -0.0750 -0.0812 -0.2150
 1072loPI   C4A15798  11.769   2.618   7.429 -0.0706 -0.1270 -0.0132
 1072loPI   C5A15799  11.759   2.624   7.964  0.0104 -0.2312  0.2090
 1072loPI   C6A15800  11.836   2.931   8.216  0.3571  0.2596 -0.2736
 1072loPI   C1B15801  10.890   2.724   6.486 -0.2604  0.1266 -0.3195
 1072loPI   C2B15802  10.975   2.687   6.904  0.2692 -0.2852  0.0690
 1072loPI   C3B15803  11.140   2.809   7.258  0.2159  0.1297  0.1718
 1072loPI   C4B15804  11.123   3.260   7.173 -0.0918  0.3262 -0.0507
 1073loPI    C115805  14.703  10.655   5.405  0.1270  0.2138  0.0117
 1073loPI    C215806  14.738  10.803   5.035  0.3140 -0.5157 -0.2804
 1073loPI    C315807  14.862  10.431   5.114  0.0078 -0.4785  0.4554
 1073loPI   PO415808  14.802  10.804   5.543 -0.0388 -0.4605 -0.0236
 1073loPI   GL115809  14.796  10.825   5.989  0.3164 -0.0403 -0.0898
 1073loPI   GL215810  14.950  10.533   5.989 -0.0136 -0.0212  0.0467
 1073loPI   C1A15811  14.729  10.894   6.433  0.2932 -0.3496 -0.0305
 1073loPI   C2A15812  14.785  10.998   6.848 -0.1047  0.2008 -0.2785
 1073loPI   C3A15813  14.844  10.980   7.205 -0.0465 -0.0015 -0.4055
 1073loPI   C4A15814  15.127  10.960   7.653 -0.1324  0.0644 -0.0068
 1073loPI   C5A15815  15.097  11.220   7.976  0.0685 -0.1379 -0.0191
 1073loPI   C6A15816  14.957  11.771   8.046 -0.0961  0.2483 -0.1446
 1073loPI   C1B15817  15.139  10.536   6.357  0.2122 -0.0441  0.2092
 1073loPI   C2B15818  15.251  10.683   6.779  0.0202  0.2040 -0.0655
 1073loPI   C3B15819  15.318  10.626   7.233  0.0412  0.1858  0.1415
 1073loPI   C4B15820  15.320  10.476   7.691 -0.0717 -0.0233 -0.1420
 1074loPI    C115821   0.812  13.318   5.528  0.1726  0.0368 -0.0671
 1074loPI    C215822   0.964  13.202   5.177  0.3008  0.0444 -0.0147
 1074loPI    C315823   0.761  12.942   5.403 -0.1567  0.1509 -0.2898
 1074loPI   PO415824   0.975  13.421   5.604 -0.1013  0.1977 -0.1300
 1074loPI   GL115825   0.926  13.603   5.973  0.1279 -0.1469  0.3270
 1074loPI   GL215826   0.692  13.327   6.026  0.1817  0.0756 -0.0484
 1074loPI   C1A15827   0.965  13.744   6.401 -0.0910  0.1920 -0.1538
 1074loPI   C2A15828   1.040  13.809   6.867 -0.0434  0.1376 -0.0608
 1074loPI   C3A15829   1.006  13.799   7.315 -0.2419  0.2413 -0.4695
 1074loPI   C4A15830   1.161  13.965   7.789 -0.0427  0.2335 -0.2287
 1074loPI   C5A15831   1.503  14.245   8.001 -0.1724 -0.2330  0.0713
 1074loPI   C6A15832   1.849  14.439   8.224 -0.0757  0.0830  0.1035
 1074loPI   C1B15833   0.547  13.481   6.481 -0.0195  0.3420  0.0760
 1074loPI   C2B15834   0.503  13.540   6.915  0.0107  0.0876 -0.0153
 1074loPI   C3B15835   0.623  13.510   7.312  0.1487 -0.0532  0.1660
 1074loPI   C4B15836   0.522  13.375   7.682 -0.2772  0.0747  0.0274
 1075loPI    C115837   3.448  17.613   5.792  0.1002 -0.0137 -0.1400
 1075loPI    C215838   3.536  17.315   5.540  0.4943  0.0881 -0.1283
 1075loPI    C315839   3.416  17.669   5.397  0.3433  0.0263 -0.1557
 1075loPI   PO415840   3.303  17.480   5.994  0.1517 -0.0574 -0.0510
 1075loPI   GL115841   3.193  17.268   6.300 -0.0981 -0.4427  0.1275
 1075loPI   GL215842   3.001  17.492   6.394 -0.2837  0.0809 -0.2972
 1075loPI   C1A15843   3.080  17.135   6.794 -0.0914  0.1743  0.0763
 1075loPI   C2A15844   2.975  16.939   7.105  0.0625  0.1387 -0.0239
 1075loPI   C3A15845   2.936  16.927   7.499  0.2084  0.0798  0.3385
 1075loPI   C4A15846   2.848  16.882   7.965 -0.2250 -0.1977 -0.1619
 1075loPI   C5A15847   2.718  16.832   8.293  0.3243 -0.2547 -0.1384
 1075loPI   C6A15848   2.215  16.861   8.402 -0.2774  0.3817 -0.1363
 1075loPI   C1B15849   2.686  17.494   6.653 -0.0521 -0.1402  0.1360
 1075loPI   C2B15850   2.543  17.404   7.100 -0.1586  0.1388  0.1195
 1075loPI   C3B15851   2.508  17.332   7.514  0.0153  0.2382 -0.3452
 1075loPI   C4B15852   2.684  17.321   7.875  0.0327 -0.0584  0.5049
 1076loPI    C115853  16.269   4.811   5.854  0.0838  0.0280  0.1176
 1076loPI    C215854  16.265   4.724   5.464  0.2175  0.2109  0.0741
 1076loPI    C315855  16.030   5.014   5.606 -0.1063 -0.1022  0.1919
 1076loPI   PO415856  16.295   4.581   5.975 -0.1655  0.1890  0.2237
 1076loPI   GL115857  16.420   4.272   6.350  0.1816 -0.1690 -0.0189
 1076loPI   GL215858  16.502   4.580   6.469 -0.1981 -0.2232  0.1942
 1076loPI   C1A15859  16.532   4.161   6.812 -0.1909  0.0472 -0.0998
 1076loPI   C2A15860  16.580   3.921   7.151 -0.0928  0.4688  0.2620
 1076loPI   C3A15861  16.551   4.011   7.635  0.4190  0.2750 -0.1352
 1076loPI   C4A15862  16.567   4.030   8.079 -0.0466  0.1361  0.1350
 1076loPI   C5A15863  16.229   4.145   8.206  0.0134  0.1650 -0.0372
 1076loPI   C6A15864  15.974   4.477   8.305  0.1103  0.0731 -0.2649
 1076loPI   C1B15865  16.710   4.653   6.874  0.0253  0.0101  0.1382
 1076loPI   C2B15866  16.701   4.789   7.356 -0.0738 -0.3095  0.0897
 1076loPI   C3B15867  16.840   4.836   7.628 -0.1399 -0.0013 -0.1957
 1076loPI   C4B15868  17.033   4.769   8.045 -0.0493  0.0176  0.0243
 1077loPI    C115869   4.661  13.022   5.509 -0.0033 -0.0269 -0.1464
 1077loPI    C215870   4.526  12.679   5.664 -0.2670  0.1455  0.0144
 1077loPI    C315871   4.907  12.709   5.546 -0.2009 -0.1525  0.1431
 1077loPI   PO415872   4.528  13.189   5.744 -0.3873  0.0169 -0.1853
 1077loPI   GL115873   4.516  13.226   6.123 -0.1859 -0.0501  0.0041
 1077loPI   GL215874   4.637  13.336   6.384 -0.1636 -0.0305 -0.1655
 1077loPI   C1A15875   4.138  13.244   6.460 -0.3879  0.2166 -0.0184
 1077loPI   C2A15876   3.768  13.116   6.656  0.2728 -0.2012 -0.3019
 1077loPI   C3A15877   3.638  13.159   7.085 -0.0297 -0.1890  0.0396
 1077loPI   C4A15878   3.558  13.267   7.493  0.1114 -0.2528  0.3242
 1077loPI   C5A15879   3.572  13.349   7.911 -0.0403  0.2222  0.1032
 1077loPI   C6A15880   3.995  13.483   7.913  0.0009 -0.0188 -0.0492
 1077loPI   C1B15881   4.479  13.488   6.812  0.0969  0.1410  0.1369
 1077loPI   C2B15882   4.191  13.373   7.054  0.0803 -0.4353 -0.0454
 1077loPI   C3B15883   4.157  13.479   7.402 -0.2532  0.1737 -0.3629
 1077loPI   C4B15884   4.115  13.947   7.600 -0.1111  0.5137  0.1380
 1078loPI    C115885  10.505  17.240   5.805  0.1049  0.0330  0.0039
 1078loPI    C215886  10.400  16.906   5.610 -0.1317 -0.0276  0.2302
 1078loPI    C315887  10.272  17.262   5.480  0.2981  0.0008 -0.1387
 1078loPI   PO415888  10.407  17.216   6.049  0.3251 -0.0567  0.0568
 1078loPI   GL115889  10.291  16.869   6.382  0.0554 -0.0612  0.1324
 1078loPI   GL215890  10.347  17.118   6.641  0.0380  0.2134 -0.4491
 1078loPI   C1A15891  10.337  16.511   6.769 -0.2194  0.0946  0.0712
 1078loPI   C2A15892  10.459  16.529   7.115  0.0525 -0.0693  0.1687
 1078loPI   C3A15893  10.495  16.672   7.504 -0.1550 -0.1531 -0.2276
 1078loPI   C4A15894  10.470  16.813   7.940  0.0009  0.1829 -0.3220
 1078loPI   C5A15895  10.132  17.005   8.240 -0.4066 -0.4855  0.3465
 1078loPI   C6A15896   9.839  17.262   8.373 -0.2865 -0.0129 -0.2630
 1078loPI   C1B15897  10.552  17.165   6.978  0.0136  0.0960  0.3597
 1078loPI   C2B15898  10.498  17.137   7.323 -0.0956  0.0413 -0.1540
 1078loPI   C3B15899  10.572  17.267   7.731 -0.0002  0.2295  0.0424
 1078loPI   C4B15900  10.763  17.642   7.962  0.0715 -0.0924 -0.0460
 1079loPI    C115901   0.046  17.894   5.533 -0.0970  0.1912 -0.0906
 1079loPI    C215902   0.204  17.966   5.172 -0.3699  0.2730 -0.1960
 1079loPI    C315903  -0.035  17.650   5.227  0.2981 -0.2036  0.1078
 1079loPI   PO415904   0.033  18.009   5.657  0.3989  0.0879 -0.0293
 1079loPI   GL115905   0.068  17.950   6.078 -0.0602  0.1363  0.2601
 1079loPI   GL215906   0.203  17.685   6.329  0.2698 -0.1645  0.2114
 1079loPI   C1A15907  -0.014  18.079   6.489 -0.0714 -0.2460 -0.0093
 1079loPI   C2A15908  -0.187  18.082   6.854 -0.2738  0.0191 -0.0573
 1079loPI   C3A15909  -0.162  18.013   7.292 -0.0582 -0.0722 -0.1743
 1079loPI   C4A15910  -0.149  17.950   7.773  0.0123  0.1960 -0.0151
 1079loPI   C5A15911  -0.100  17.684   8.209  0.1275 -0.0661  0.0029
 1079loPI   C6A15912  -0.310  17.352   8.496  0.1348 -0.0111  0.1546
 1079loPI   C1B15913   0.219  17.799   6.810 -0.3903 -0.1713  0.0567
 1079loPI   C2B15914   0.336  17.981   7.236  0.0599  0.0628 -0.1376
 1079loPI   C3B15915   0.455  18.105   7.728 -0.0218  0.1310  0.0176
 1079loPI   C4B15916   0.228  18.050   8.081 -0.0333 -0.3644  0.1902
 1080POPI    C115917   3.428   0.654   5.709 -0.2177  0.0393 -0.0514
 1080POPI    C215918   3.504   0.650   5.316 -0.0506  0.0889 -0.0206
 1080POPI    C315919   3.492   0.998   5.513 -0.2696  0.0746 -0.0065
 1080POPI   PO415920   3.661   0.506   5.824 -0.0393 -0.2851 -0.1748
 1080POPI   GL115921   3.561   0.405   6.180  0.1465  0.1094  0.0147
 1080POPI   GL215922   3.789   0.258   6.472  0.0130 -0.5745  0.1808
 1080POPI   C1A15923   3.323   0.357   6.528  0.0606 -0.1162  0.1778
 1080POPI   D2A15924   3.195   0.667   6.741 -0.0932 -0.0380 -0.0253
 1080POPI   C3A15925   2.874   0.700   7.081 -0.2022 -0.2258  0.1793
 1080POPI   C4A15926   2.804   0.369   7.358 -0.0480 -0.4115  0.0789
 1080POPI   C1B15927   3.843   0.132   6.775  0.1585 -0.2381 -0.1985
 1080POPI   C2B15928   3.681   0.043   7.069  0.2238  0.0205  0.1653
 1080POPI   C3B15929   3.435  -0.083   7.505  0.3048  0.0350  0.3407
 1080POPI   C4B15930   3.382   0.018   7.902 -0.1198  0.0210 -0.0324
 1081POPI    C115931  15.356   7.442   5.790  0.1859  0.0793  0.0862
 1081POPI    C215932  15.072   7.711   5.706  0.2978  0.1716 -0.0005
 1081POPI    C315933  15.274   7.534   5.410 -0.0126 -0.2698  0.0408
 1081POPI   PO415934  15.463   7.633   5.992  0.4120 -0.0138  0.0806
 1081POPI   GL115935  15.262   7.740   6.259  0.1707  0.2657  0.2458
 1081POPI   GL215936  15.007   7.911   6.381 -0.0789 -0.1393  0.1124
 1081POPI   C1A15937  15.377   7.613   6.623  0.0381  0.0869 -0.2985
 1081POPI   D2A15938  15.536   7.757   6.928  0.1530 -0.2090 -0.0236
 1081POPI   C3A15939  15.416   7.789   7.322 -0.2088  0.1502 -0.1267
 1081POPI   C4A15940  15.321   7.864   7.785 -0.1673  0.0626  0.1562
 1081POPI   C1B15941  14.946   7.943   6.821 -0.0236 -0.2211 -0.1104
 1081POPI   C2B15942  14.985   7.894   7.297  0.2243  0.1782 -0.0970
 1081POPI   C3B15943  14.890   8.174   7.655 -0.1606 -0.1052  0.2637
 1081POPI   C4B15944  14.678   8.431   7.974  0.1797  0.1345 -0.1287
 1082POPI    C115945   4.295   1.717   6.173 -0.0886  0.2323 -0.1061
 1082POPI    C215946   4.191   1.971   5.882 -0.1858 -0.0525 -0.3239
 1082POPI    C315947   4.436   1.665   5.803  0.1288  0.1112 -0.0083
 1082POPI   PO415948   4.295   1.878   6.335  0.2509 -0.1914  0.1037
 1082POPI   GL115949   4.113   1.788   6.736 -0.0047  0.2113  0.0494
 1082POPI   GL215950   4.075   2.177   6.661 -0.3896 -0.0877 -0.1970
 1082POPI   C1A15951   3.990   1.811   7.032 -0.1058 -0.0269 -0.0490
 1082POPI   D2A15952   3.950   1.724   7.389  0.0260  0.3915 -0.0366
 1082POPI   C3A15953   3.763   1.538   7.767  0.0129 -0.2753 -0.1481
 1082POPI   C4A15954   3.727   1.530   8.225 -0.1730 -0.1305 -0.1581
 1082POPI   C1B15955   4.158   2.272   7.095 -0.3167  0.0242  0.0842
 1082POPI   C2B15956   4.124   2.276   7.583  0.3464  0.2405  0.1116
 1082POPI   C3B15957   4.491   2.231   7.870  0.0424 -0.1239 -0.0653
 1082POPI   C4B15958   4.512   2.313   8.326 -0.2203 -0.2693  0.0178
 1083POPI    C115959   2.239   5.808   5.595  0.1493  0.0136 -0.0609
 1083POPI    C215960   2.004   5.703   5.288  0.1847  0.0527 -0.1016
 1083POPI    C315961   2.186   6.059   5.288 -0.0788  0.1919  0.1198
 1083POPI   PO415962   2.084   5.772   5.819 -0.3967 -0.1514  0.0288
 1083POPI   GL115963   2.101   5.564   6.190 -0.0495  0.1226  0.0424
 1083POPI   GL215964   2.436   5.573   6.258 -0.1021  0.1618 -0.2249
 1083POPI   C1A15965   1.852   5.682   6.532  0.2445  0.0495  0.0128
 1083POPI   D2A15966   1.880   5.788   6.946 -0.3190 -0.2289 -0.1376
 1083POPI   C3A15967   1.857   5.780   7.296  0.0511  0.0744  0.2395
 1083POPI   C4A15968   1.824   5.770   7.744 -0.1345 -0.1965 -0.1924
 1083POPI   C1B15969   2.341   5.516   6.655  0.2562 -0.1986 -0.1869
 1083POPI   C2B15970   2.266   5.526   7.126  0.1688  0.0810 -0.1525
 1083POPI   C3B15971   2.286   5.436   7.505  0.2140 -0.4023 -0.0560
 1083POPI   C4B15972   2.210   5.402   7.919  0.0703  0.0043  0.0537
 1084POPI    C115973  16.293   6.499   5.980 -0.0674  0.1116  0.0986
 1084POPI    C215974  16.103   6.372   5.651 -0.0296  0.0278  0.1090
 1084POPI    C315975  16.416   6.620   5.619 -0.0353  0.0316  0.0826
 1084POPI   PO415976  16.117   6.573   6.092 -0.0174 -0.0417 -0.0603
 1084POPI   GL115977  16.196   6.748   6.506 -0.2923 -0.1715  0.1665
 1084POPI   GL215978  15.967   6.912   6.434  0.0557  0.0243 -0.0219
 1084POPI   C1A15979  16.453   6.658   6.901  0.1720 -0.2383 -0.1508
 1084POPI   D2A15980  16.850   6.727   7.084  0.0676 -0.0963 -0.0533
 1084POPI   C3A15981  16.815   6.731   7.489  0.3348 -0.1572 -0.1227
 1084POPI   C4A15982  16.627   6.584   7.920 -0.0420 -0.1344 -0.2771
 1084POPI   C1B15983  15.951   6.880   6.934 -0.2293 -0.0291  0.2520
 1084POPI   C2B15984  16.096   6.714   7.280 -0.2477 -0.1283  0.1802
 1084POPI   C3B15985  16.181   6.655   7.677 -0.0908 -0.1112  0.4384
 1084POPI   C4B15986  16.186   6.765   8.074 -0.1890 -0.0711  0.2620
 1085POPI    C115987  15.754  16.951   5.980  0.0772 -0.1037 -0.1712
 1085POPI    C215988  15.470  16.927   5.701  0.0249 -0.0626 -0.1220
 1085POPI    C315989  15.848  17.002   5.595  0.0226 -0.1447 -0.1900
 1085POPI   PO415990  15.637  16.883   6.174  0.2483 -0.0504 -0.3117
 1085POPI   GL115991  15.729  17.068   6.620  0.2920 -0.0130 -0.2065
 1085POPI   GL215992  15.974  16.787   6.574 -0.2547  0.1408 -0.0326
 1085POPI   C1A15993  15.664  17.138   7.134  0.2430 -0.1894  0.0237
 1085POPI   D2A15994  15.522  17.231   7.501 -0.0722 -0.2140 -0.0449
 1085POPI   C3A15995  15.169  17.533   7.619  0.0747  0.0637  0.1085
 1085POPI   C4A15996  14.863  17.383   7.894  0.0686  0.1393 -0.1158
 1085POPI   C1B15997  16.044  16.773   6.958  0.2205  0.0071 -0.0712
 1085POPI   C2B15998  16.096  16.980   7.312 -0.0960  0.1656  0.2620
 1085POPI   C3B15999  15.970  16.845   7.755  0.0578  0.2735  0.1139
 1085POPI   C4B16000  16.128  16.618   8.125 -0.1360 -0.1187 -0.1543
 1086POPI    C116001   6.303   8.853   5.819 -0.3395 -0.1401 -0.2773
 1086POPI    C216002   6.444   9.225   5.860  0.0900 -0.2985 -0.2624
 1086POPI    C316003   6.323   9.096   5.502  0.0266 -0.1754 -0.2861
 1086POPI   PO416004   6.464   8.763   6.006  0.2991  0.0484 -0.1807
 1086POPI   GL116005   6.365   8.750   6.420  0.0472  0.1863  0.0422
 1086POPI   GL216006   6.378   8.404   6.465  0.0278  0.1801 -0.0770
 1086POPI   C1A16007   6.255   9.130   6.656 -0.1829  0.0007 -0.0317
 1086POPI   D2A16008   6.026   9.279   6.890 -0.0412 -0.1549  0.1417
 1086POPI   C3A16009   5.991   9.540   7.202 -0.1563 -0.3890  0.0732
 1086POPI   C4A16010   6.060   9.883   7.322  0.0279  0.1589  0.3008
 1086POPI   C1B16011   6.506   8.179   6.797  0.1366 -0.1560 -0.0099
 1086POPI   C2B16012   6.556   8.202   7.266  0.1337  0.0545  0.1783
 1086POPI   C3B16013   6.630   8.050   7.678 -0.0302 -0.2777  0.2830
 1086POPI   C4B16014   6.275   8.133   7.984 -0.1054 -0.0989  0.3741
 1087POPI    C116015   1.104  15.951   5.725 -0.0450  0.3631  0.0734
 1087POPI    C216016   0.745  15.776   5.727  0.0529  0.1591  0.0353
 1087POPI    C316017   0.872  15.976   6.049 -0.0214  0.0802  0.1141
 1087POPI   PO416018   1.229  15.629   5.730 -0.0275 -0.2247  0.1351
 1087POPI   GL116019   1.048  15.250   5.825 -0.1668  0.3165 -0.3646
 1087POPI   GL216020   1.261  15.055   6.001  0.2914  0.2435 -0.1561
 1087POPI   C1A16021   0.739  15.471   6.173 -0.1069 -0.0675  0.1479
 1087POPI   D2A16022   0.869  15.681   6.507  0.0338 -0.0798  0.0654
 1087POPI   C3A16023   0.648  15.646   6.838  0.2361  0.2491  0.0938
 1087POPI   C4A16024   0.556  15.670   7.248 -0.0837 -0.0148  0.2331
 1087POPI   C1B16025   1.172  15.312   6.409 -0.0230  0.3131 -0.1390
 1087POPI   C2B16026   1.086  15.325   6.776  0.1149  0.4163  0.0226
 1087POPI   C3B16027   1.019  15.446   7.230 -0.1154  0.1663  0.1764
 1087POPI   C4B16028   0.914  15.608   7.579  0.1280 -0.0462  0.0104
 1088POPI    C116029   5.395  16.818   5.707  0.0217 -0.0935  0.3244
 1088POPI    C216030   5.038  16.798   5.528 -0.0149  0.2236  0.3567
 1088POPI    C316031   5.372  16.738   5.316 -0.0819  0.0088  0.3092
 1088POPI   PO416032   5.363  16.854   5.983  0.1709  0.3837 -0.1770
 1088POPI   GL116033   5.274  16.708   6.321 -0.3032 -0.0982  0.3874
 1088POPI   GL216034   5.361  16.460   6.371  0.2292  0.0766  0.0598
 1088POPI   C1A16035   5.602  16.861   6.591 -0.2212 -0.1110 -0.1716
 1088POPI   D2A16036   5.557  16.880   7.102 -0.0498  0.0613  0.1236
 1088POPI   C3A16037   5.855  16.718   7.411  0.1922 -0.0023  0.3010
 1088POPI   C4A16038   5.875  16.442   7.812  0.0889 -0.1438 -0.0209
 1088POPI   C1B16039   5.373  16.405   6.821 -0.0616  0.1360  0.6049
 1088POPI   C2B16040   5.396  16.426   7.177 -0.0355 -0.2308  0.1026
 1088POPI   C3B16041   5.286  16.339   7.525 -0.2647  0.1078 -0.2180
 1088POPI   C4B16042   5.180  16.398   7.975  0.1449  0.3051  0.0447
 1089POPI    C116043  15.662   3.134   5.855 -0.0676  0.1136 -0.0087
 1089POPI    C216044  15.871   3.278   5.545 -0.0514  0.0670 -0.0195
 1089POPI    C316045  15.656   2.943   5.503 -0.0074  0.0319  0.0345
 1089POPI   PO416046  15.621   3.380   5.975  0.2241 -0.0568 -0.0056
 1089POPI   GL116047  15.629   3.513   6.363  0.1847 -0.0231  0.2680
 1089POPI   GL216048  15.583   3.173   6.436 -0.1926 -0.2259  0.3209
 1089POPI   C1A16049  15.498   3.498   6.831 -0.0459  0.1149  0.0802
 1089POPI   D2A16050  15.392   3.441   7.302  0.1866 -0.0933  0.0145
 1089POPI   C3A16051  15.543   3.540   7.647 -0.3282 -0.2010  0.1080
 1089POPI   C4A16052  15.644   3.897   7.767 -0.1443  0.1811  0.2947
 1089POPI   C1B16053  15.525   2.950   6.844 -0.1904 -0.2264  0.0054
 1089POPI   C2B16054  15.544   2.967   7.287 -0.0607  0.0801  0.1461
 1089POPI   C3B16055  15.562   3.022   7.698  0.2199 -0.0377 -0.1582
 1089POPI   C4B16056  15.576   2.870   8.098 -0.1220  0.0947  0.1738
 1090POPI    C116057   1.755   3.384   5.677 -0.0790 -0.0626  0.2243
 1090POPI    C216058   1.384   3.413   5.530  0.1145 -0.0477 -0.2834
 1090POPI    C316059   1.567   3.737   5.678 -0.0877 -0.0651  0.0134
 1090POPI   PO416060   1.688   3.181   5.820  0.0353  0.2716 -0.1507
 1090POPI   GL116061   1.504   3.143   6.367 -0.3679 -0.0613  0.0075
 1090POPI   GL216062   1.794   3.309   6.374 -0.3428  0.1246  0.0499
 1090POPI   C1A16063   1.311   3.163   6.650 -0.2866 -0.0997 -0.0916
 1090POPI   D2A16064   1.249   3.429   6.954 -0.0997 -0.1282 -0.2207
 1090POPI   C3A16065   1.306   3.393   7.375 -0.2684  0.1403 -0.0024
 1090POPI   C4A16066   1.310   3.451   7.833 -0.0576 -0.0738  0.0899
 1090POPI   C1B16067   1.783   3.394   6.779 -0.0191 -0.2863  0.2897
 1090POPI   C2B16068   1.801   3.619   7.111  0.0905 -0.0529 -0.1671
 1090POPI   C3B16069   1.728   3.706   7.554  0.0318  0.1453  0.0666
 1090POPI   C4B16070   1.813   3.580   7.907 -0.0819  0.2406  0.0035
 1091POPI    C116071  12.226  15.347   6.260  0.0000  0.3909 -0.3896
 1091POPI    C216072  12.373  15.639   6.489 -0.0218 -0.1401  0.3360
 1091POPI    C316073  12.541  15.276   6.496 -0.3578 -0.3117 -0.0915
 1091POPI   PO416074  11.880  15.298   6.318  0.0454 -0.0666 -0.0708
 1091POPI   GL116075  11.692  15.083   6.678  0.0178 -0.1284  0.1858
 1091POPI   GL216076  11.384  15.144   6.557 -0.1141  0.0466 -0.0573
 1091POPI   C1A16077  11.697  15.037   7.094 -0.0421 -0.0254  0.0754
 1091POPI   D2A16078  11.664  15.348   7.477  0.2484 -0.2448  0.3503
 1091POPI   C3A16079  11.758  15.226   7.831  0.0153 -0.1559 -0.3792
 1091POPI   C4A16080  11.557  15.384   8.257  0.1945  0.1493  0.2150
 1091POPI   C1B16081  11.422  15.399   6.930  0.3316 -0.2679 -0.0901
 1091POPI   C2B16082  11.296  15.651   7.271 -0.2363 -0.3306 -0.0033
 1091POPI   C3B16083  11.266  16.006   7.507  0.0801  0.0942 -0.1083
 1091POPI   C4B16084  11.585  16.206   7.718 -0.4378  0.0253 -0.0598
 1092POPI    C116085   8.049  17.956   5.541 -0.0091 -0.0553  0.0583
 1092POPI    C216086   8.274  18.052   5.225 -0.1383  0.1348  0.0224
 1092POPI    C316087   8.226  17.669   5.327 -0.0636  0.0748 -0.1639
 1092POPI   PO416088   8.109  18.204   5.713  0.1353 -0.0689 -0.1309
 1092POPI   GL116089   8.086  18.397   6.079  0.1126 -0.1115  0.2660
 1092POPI   GL216090   7.770  18.470   5.997 -0.1553  0.0472 -0.3619
 1092POPI   C1A16091   8.155  18.262   6.469 -0.1939  0.1552 -0.0380
 1092POPI   D2A16092   8.196  18.324   6.802  0.1135 -0.1452  0.2331
 1092POPI   C3A16093   8.167  18.393   7.187  0.0478  0.0292  0.1124
 1092POPI   C4A16094   8.133  18.800   7.619  0.0437  0.1519  0.1747
 1092POPI   C1B16095   7.759  18.759   6.325 -0.2243 -0.0327 -0.1927
 1092POPI   C2B16096   7.896  18.724   6.778 -0.1551  0.0636  0.1157
 1092POPI   C3B16097   7.796  18.749   7.223  0.1060 -0.0013  0.1418
 1092POPI   C4B16098   7.762  18.533   7.579 -0.0971  0.0481  0.1936
 1093POPI    C116099  14.904  11.685   5.290  0.0967  0.2420  0.3469
 1093POPI    C216100  14.653  11.797   5.000  0.0343  0.0537  0.3271
 1093POPI    C316101  15.047  11.809   4.938  0.0236  0.1021  0.2673
 1093POPI   PO416102  14.789  11.863   5.506  0.1000 -0.2295 -0.3630
 1093POPI   GL116103  14.899  11.846   5.926  0.1645  0.2942  0.1505
 1093POPI   GL216104  14.566  11.669   5.941  0.1607  0.0316  0.2768
 1093POPI   C1A16105  15.181  11.689   6.221 -0.0951  0.0598 -0.0082
 1093POPI   D2A16106  15.229  11.730   6.649 -0.1111 -0.0572 -0.2243
 1093POPI   C3A16107  15.206  11.612   7.041 -0.1634 -0.0297 -0.2656
 1093POPI   C4A16108  15.197  11.755   7.511  0.0140 -0.0450 -0.0965
 1093POPI   C1B16109  14.681  11.538   6.369 -0.0020  0.2623 -0.0927
 1093POPI   C2B16110  14.860  11.449   6.724 -0.1096 -0.4190  0.0699
 1093POPI   C3B16111  14.733  11.531   7.104 -0.1349 -0.0433  0.1116
 1093POPI   C4B16112  14.862  11.433   7.537 -0.0430 -0.1482  0.1805
 1094POPI    C116113  16.433  16.168   5.788 -0.1326  0.0078  0.0266
 1094POPI    C216114  16.784  16.246   5.964 -0.0069 -0.0180 -0.2091
 1094POPI    C316115  16.584  16.538   5.778 -0.0659 -0.0239 -0.1558
 1094POPI   PO416116  16.475  15.877   5.770 -0.1549 -0.0470  0.1027
 1094POPI   GL116117  16.524  15.582   6.099  0.1854  0.0374 -0.4093
 1094POPI   GL216118  16.817  15.801   6.251 -0.0210 -0.4014  0.3918
 1094POPI   C1A16119  16.553  15.284   6.514  0.0705 -0.2804 -0.0767
 1094POPI   D2A16120  16.543  15.399   7.045 -0.1657  0.1801  0.2538
 1094POPI   C3A16121  16.246  15.487   7.420  0.0014  0.0273 -0.0892
 1094POPI   C4A16122  16.306  15.561   7.859 -0.1078  0.2232 -0.1843
 1094POPI   C1B16123  16.929  15.528   6.657  0.0251 -0.5665  0.0181
 1094POPI   C2B16124  17.057  15.648   7.064  0.2537 -0.2245  0.1595
 1094POPI   C3B16125  16.775  15.620   7.397 -0.1226 -0.1142  0.0880
 1094POPI   C4B16126  16.686  15.339   7.635 -0.0497 -0.0357 -0.1173
 1095POPI    C116127  15.183   3.655   5.764  0.1079 -0.1754 -0.0381
 1095POPI    C216128  15.468   3.768   5.506  0.1330 -0.2936 -0.0630
 1095POPI    C316129  15.350   3.386   5.519 -0.0496 -0.2388 -0.0771
 1095POPI   PO416130  15.273   3.775   6.061  0.1074 -0.2404  0.0044
 1095POPI   GL116131  15.172   3.522   6.436  0.0179 -0.1516 -0.1661
 1095POPI   GL216132  14.833   3.691   6.314 -0.0628  0.0587  0.0407
 1095POPI   C1A16133  14.976   3.766   6.806  0.1484  0.1206 -0.2932
 1095POPI   D2A16134  14.922   3.697   7.252 -0.3311 -0.1331  0.0128
 1095POPI   C3A16135  15.070   3.778   7.703 -0.1653 -0.0744  0.0263
 1095POPI   C4A16136  14.950   4.178   7.878 -0.0175  0.0634  0.1548
 1095POPI   C1B16137  14.587   3.969   6.599 -0.0076 -0.0032  0.0706
 1095POPI   C2B16138  14.490   4.084   7.010  0.0186 -0.3102  0.0070
 1095POPI   C3B16139  14.579   4.019   7.422  0.0234  0.0124 -0.0386
 1095POPI   C4B16140  14.477   3.951   7.816  0.1229  0.0670 -0.4704
 1096POPI    C116141   4.833   1.380   6.180  0.2834 -0.1490  0.0799
 1096POPI    C216142   4.670   1.134   5.910  0.2340  0.0287 -0.0548
 1096POPI    C316143   4.878   1.453   5.789 -0.0467  0.2807  0.1149
 1096POPI   PO416144   4.892   1.258   6.368 -0.2006  0.3215 -0.3457
 1096POPI   GL116145   5.029   1.336   6.875  0.0329  0.0881  0.1754
 1096POPI   GL216146   4.716   1.174   6.817  0.0508 -0.1157  0.0812
 1096POPI   C1A16147   5.067   1.568   7.241  0.0661  0.0746 -0.0274
 1096POPI   D2A16148   5.297   1.740   7.559 -0.0818 -0.1316  0.2130
 1096POPI   C3A16149   5.197   1.602   7.909 -0.0276 -0.2142  0.0223
 1096POPI   C4A16150   5.239   1.418   8.315 -0.1680 -0.4805  0.5366
 1096POPI   C1B16151   4.652   1.250   7.202 -0.2652  0.2046  0.0119
 1096POPI   C2B16152   4.660   1.324   7.654  0.1671 -0.1367  0.2856
 1096POPI   C3B16153   4.724   1.687   7.983 -0.1975  0.0035 -0.0524
 1096POPI   C4B16154   4.898   1.914   8.194 -0.1586 -0.0029  0.0851
 1097POPI    C116155  11.429  14.013   6.219  0.1849 -0.2014 -0.0945
 1097POPI    C216156  11.554  14.347   6.039  0.2543 -0.1660  0.0188
 1097POPI    C316157  11.182  14.214   5.977  0.1477  0.0620  0.1580
 1097POPI   PO416158  11.719  13.989   6.352  0.0899 -0.1150  0.1181
 1097POPI   GL116159  11.753  14.064   6.857  0.0652  0.1408  0.0778
 1097POPI   GL216160  12.054  14.003   6.873 -0.1996  0.1463 -0.0671
 1097POPI   C1A16161  11.519  14.228   7.253  0.0185  0.1684  0.1087
 1097POPI   D2A16162  11.582  14.591   7.339  0.2435  0.0296  0.2469
 1097POPI   C3A16163  11.611  14.751   7.631 -0.0431 -0.0045  0.2422
 1097POPI   C4A16164  11.819  14.765   7.998 -0.3071  0.1167  0.0873
 1097POPI   C1B16165  12.035  14.073   7.319 -0.1531  0.2924 -0.2557
 1097POPI   C2B16166  11.906  14.237   7.733  0.3932 -0.1029 -0.1106
 1097POPI   C3B16167  11.911  14.262   8.161 -0.1923  0.0337 -0.2592
 1097POPI   C4B16168  11.761  14.145   8.529 -0.2558  0.0286  0.2029
 1098POPI    C116169  11.015  11.042   5.601  0.1123 -0.0520  0.0427
 1098POPI    C216170  10.834  10.704   5.486 -0.0746 -0.0322  0.2708
 1098POPI    C316171  11.225  10.702   5.571 -0.0707 -0.1859  0.2517
 1098POPI   PO416172  10.899  11.103   5.842 -0.2121 -0.2406  0.0085
 1098POPI   GL116173  10.818  11.030   6.241  0.1421  0.0688  0.1425
 1098POPI   GL216174  11.120  10.883   6.273  0.0478  0.0618 -0.4634
 1098POPI   C1A16175  10.710  10.776   6.678 -0.1577 -0.0142 -0.0577
 1098POPI   D2A16176  10.784  10.695   7.128  0.1091  0.2325 -0.1818
 1098POPI   C3A16177  10.663  11.060   7.308 -0.0800 -0.1478 -0.0667
 1098POPI   C4A16178  10.771  11.225   7.646  0.0396  0.0994  0.1467
 1098POPI   C1B16179  11.217  10.724   6.676 -0.1441  0.0492  0.0131
 1098POPI   C2B16180  11.263  10.572   7.146  0.0647  0.0651  0.2253
 1098POPI   C3B16181  11.120  10.347   7.532 -0.1484  0.1872  0.0469
 1098POPI   C4B16182  11.155  10.208   8.000  0.0443  0.2145  0.0528
 1099POPI    C116183  16.727   8.355   5.080  0.1811 -0.1371 -0.0019
 1099POPI    C216184  16.598   8.020   4.903 -0.0237 -0.0179 -0.0805
 1099POPI    C316185  16.426   8.371   4.817  0.0957  0.0880  0.1074
 1099POPI   PO416186  16.727   8.354   5.320  0.0568 -0.0332 -0.2707
 1099POPI   GL116187  16.532   8.269   5.746 -0.0068  0.1258  0.0429
 1099POPI   GL216188  16.190   8.290   5.844  0.0521 -0.0345  0.0160
 1099POPI   C1A16189  16.749   8.217   6.016 -0.0173 -0.3372 -0.4514
 1099POPI   D2A16190  17.011   8.230   6.399 -0.1866 -0.0032 -0.0373
 1099POPI   C3A16191  16.940   8.409   6.774 -0.2985  0.0791 -0.2293
 1099POPI   C4A16192  16.686   8.709   7.053  0.1610  0.2985 -0.0312
 1099POPI   C1B16193  16.108   8.324   6.244 -0.0338  0.1562  0.3645
 1099POPI   C2B16194  15.907   8.489   6.620  0.2470 -0.0264  0.0301
 1099POPI   C3B16195  15.857   8.288   6.925 -0.1657  0.1709 -0.0536
 1099POPI   C4B16196  15.792   8.172   7.460 -0.2534  0.2728 -0.0893
 1100POPI    C116197   5.206   2.182   6.187  0.1148  0.0610 -0.0834
 1100POPI    C216198   5.349   2.063   5.833 -0.0411  0.0236 -0.1347
 1100POPI    C316199   5.150   2.409   5.862 -0.0092  0.0373 -0.0792
 1100POPI   PO416200   5.431   2.083   6.338  0.1479  0.0696 -0.1063
 1100POPI   GL116201   5.539   2.035   6.745 -0.0723 -0.0428 -0.0994
 1100POPI   GL216202   5.904   1.919   6.772  0.2352 -0.0834 -0.2790
 1100POPI   C1A16203   5.429   2.154   7.205 -0.0894  0.0583 -0.0054
 1100POPI   D2A16204   5.454   2.206   7.631  0.0407 -0.3156 -0.2785
 1100POPI   C3A16205   5.434   2.027   7.967  0.0025 -0.0300  0.0434
 1100POPI   C4A16206   5.427   2.091   8.421  0.3740 -0.2648  0.0994
 1100POPI   C1B16207   5.920   2.256   7.159 -0.1129  0.0382  0.2520
 1100POPI   C2B16208   6.093   2.406   7.536  0.6167  0.1470  0.2363
 1100POPI   C3B16209   5.849   2.462   7.874 -0.0032  0.0200 -0.2251
 1100POPI   C4B16210   5.544   2.616   8.224 -0.4096 -0.1767 -0.1192
 1101POPI    C116211   2.453  14.912   5.486 -0.0810 -0.0151  0.3370
 1101POPI    C216212   2.529  14.535   5.597  0.0798 -0.0980 -0.0373
 1101POPI    C316213   2.159  14.684   5.634 -0.0815 -0.4293 -0.2638
 1101POPI   PO416214   2.618  15.034   5.616 -0.1529  0.0096  0.0606
 1101POPI   GL116215   2.603  14.977   6.010  0.0581  0.0014 -0.1264
 1101POPI   GL216216   2.847  15.214   6.096 -0.1872 -0.0375 -0.1417
 1101POPI   C1A16217   2.608  14.929   6.474  0.0914  0.4891 -0.0790
 1101POPI   D2A16218   2.476  15.089   6.767 -0.1382 -0.2195  0.2750
 1101POPI   C3A16219   2.540  15.094   7.226  0.1432  0.1553 -0.1962
 1101POPI   C4A16220   2.368  15.129   7.720  0.2752 -0.0482  0.0900
 1101POPI   C1B16221   2.971  15.322   6.529  0.2600 -0.3653 -0.0105
 1101POPI   C2B16222   2.937  15.387   7.079  0.1219 -0.0902  0.2532
 1101POPI   C3B16223   2.836  15.330   7.542 -0.0633  0.0785  0.1800
 1101POPI   C4B16224   2.841  15.202   7.856 -0.0789 -0.1754 -0.0775
 1102POPI    C116225  17.346   2.924   5.692 -0.2106  0.0410  0.2220
 1102POPI    C216226  17.580   2.859   5.374 -0.1241  0.0682  0.2795
 1102POPI    C316227  17.348   2.565   5.515 -0.2618  0.0943  0.1122
 1102POPI   PO416228  17.552   3.130   5.887  0.1896  0.0842 -0.0971
 1102POPI   GL116229  17.591   3.327   6.234 -0.2906 -0.6353 -0.1363
 1102POPI   GL216230  17.403   3.128   6.418 -0.0431  0.2071 -0.2433
 1102POPI   C1A16231  17.918   3.230   6.569  0.0092  0.0859  0.1146
 1102POPI   D2A16232  17.993   3.277   6.994 -0.2844 -0.5112  0.3347
 1102POPI   C3A16233  17.783   3.320   7.358 -0.1957 -0.0181  0.0179
 1102POPI   C4A16234  17.910   3.237   7.761 -0.0827  0.2008 -0.2010
 1102POPI   C1B16235  17.507   3.117   6.846  0.2145  0.0691 -0.0420
 1102POPI   C2B16236  17.466   3.003   7.302  0.1047  0.2892 -0.0594
 1102POPI   C3B16237  17.348   3.058   7.650 -0.1503 -0.2059  0.2609
 1102POPI   C4B16238  17.457   2.833   8.037  0.1799  0.2749  0.1867
 1103POPI    C116239  16.626   9.177   5.158  0.3189  0.0422  0.0463
 1103POPI    C216240  16.701   8.818   4.998  0.1378  0.0175  0.0148
 1103POPI    C316241  16.571   9.117   4.766 -0.0092  0.0157  0.0942
 1103POPI   PO416242  16.412   9.090   5.361  0.1155 -0.0579 -0.0321
 1103POPI   GL116243  16.408   8.805   5.722  0.0760 -0.1758 -0.0758
 1103POPI   GL216244  16.389   9.060   5.883  0.0291 -0.1399 -0.0456
 1103POPI   C1A16245  16.434   8.644   6.102  0.0438  0.1070  0.2414
 1103POPI   D2A16246  16.527   8.624   6.471  0.1801 -0.1946  0.2425
 1103POPI   C3A16247  16.312   8.765   6.726  0.1377  0.2632  0.0083
 1103POPI   C4A16248  15.879   8.885   6.847  0.0081 -0.1295 -0.2022
 1103POPI   C1B16249  16.505   9.121   6.354  0.0613 -0.0613  0.0033
 1103POPI   C2B16250  16.452   9.226   6.782  0.2058  0.1228 -0.0991
 1103POPI   C3B16251  16.613   9.267   7.228  0.1133 -0.0565  0.0213
 1103POPI   C4B16252  16.899   9.118   7.547  0.2438 -0.1505  0.0052
 1104POPI    C116253   7.656   8.135   5.633  0.1047 -0.2122 -0.1753
 1104POPI    C216254   7.492   7.810   5.468 -0.3029 -0.0775 -0.0455
 1104POPI    C316255   7.733   8.043   5.251 -0.0520 -0.4312 -0.1560
 1104POPI   PO416256   7.767   8.036   5.847  0.1031  0.0333 -0.0405
 1104POPI   GL116257   7.818   8.093   6.290 -0.2955  0.0138  0.1853
 1104POPI   GL216258   7.795   7.770   6.315  0.0707  0.5466  0.0892
 1104POPI   C1A16259   7.726   8.188   6.730  0.0064 -0.0289 -0.0834
 1104POPI   D2A16260   7.968   7.968   7.119  0.3044  0.0198  0.0849
 1104POPI   C3A16261   8.179   8.083   7.408  0.1837  0.0202  0.1729
 1104POPI   C4A16262   8.259   8.345   7.821 -0.0844 -0.0776 -0.1286
 1104POPI   C1B16263   7.802   7.566   6.800 -0.0488 -0.0884 -0.1348
 1104POPI   C2B16264   7.842   7.495   7.224 -0.0823 -0.1551 -0.0466
 1104POPI   C3B16265   7.730   7.243   7.681  0.2490  0.0924  0.1586
 1104POPI   C4B16266   7.897   7.014   8.034  0.1055  0.1989  0.1232
 1105POPI    C116267  10.621  12.050   5.922 -0.0062 -0.0501  0.0962
 1105POPI    C216268  10.560  12.433   5.825  0.0936 -0.0683 -0.0409
 1105POPI    C316269  10.897  12.249   5.712 -0.0428 -0.2545 -0.1507
 1105POPI   PO416270  10.454  12.010   6.111 -0.4256  0.0187  0.3870
 1105POPI   GL116271  10.275  12.085   6.450  0.2114  0.1773 -0.1901
 1105POPI   GL216272  10.291  11.782   6.512 -0.0987  0.2087  0.2420
 1105POPI   C1A16273   9.999  12.412   6.575 -0.0438  0.0278  0.0757
 1105POPI   D2A16274   9.982  12.683   6.761  0.0987  0.1216  0.2427
 1105POPI   C3A16275   9.866  12.694   7.202  0.2857  0.2717  0.1120
 1105POPI   C4A16276   9.984  12.932   7.553  0.0746 -0.0255  0.2241
 1105POPI   C1B16277  10.366  11.815   6.950  0.0369  0.0688  0.0384
 1105POPI   C2B16278  10.387  11.951   7.408 -0.2092  0.2199 -0.0471
 1105POPI   C3B16279  10.521  11.725   7.730  0.2411 -0.0311 -0.2246
 1105POPI   C4B16280  10.501  11.463   8.017 -0.0245 -0.0944  0.1813
 1106POPI    C116281  13.067  13.157   5.735 -0.2482 -0.1151 -0.1318
 1106POPI    C216282  13.180  13.488   5.540  0.0063 -0.1580 -0.0613
 1106POPI    C316283  13.368  13.142   5.471  0.0763 -0.1808  0.2332
 1106POPI   PO416284  13.138  13.162   5.982 -0.2309  0.1187  0.2973
 1106POPI   GL116285  13.143  13.270   6.381  0.2755 -0.5143 -0.1321
 1106POPI   GL216286  13.386  12.988   6.377  0.2839 -0.3587 -0.1479
 1106POPI   C1A16287  13.288  13.404   6.706  0.0047  0.2296  0.0990
 1106POPI   D2A16288  13.552  13.410   7.023  0.0075  0.2612 -0.0160
 1106POPI   C3A16289  13.856  13.512   7.272 -0.0180 -0.0326 -0.1691
 1106POPI   C4A16290  14.092  13.789   7.433 -0.1941  0.0653 -0.2476
 1106POPI   C1B16291  13.573  12.937   6.788 -0.2099 -0.0631  0.0893
 1106POPI   C2B16292  13.470  12.831   7.211 -0.1739  0.0892  0.0553
 1106POPI   C3B16293  13.502  12.708   7.623  0.2026  0.1254  0.0898
 1106POPI   C4B16294  13.593  12.356   7.849  0.0526  0.0978  0.3769
 1107POPI    C116295   4.278  17.934   5.934 -0.2378 -0.1950  0.0145
 1107POPI    C216296   4.151  18.303   5.849 -0.1684 -0.0916  0.3448
 1107POPI    C316297   4.201  18.036   5.556  0.2654  0.3129  0.0359
 1107POPI   PO416298   4.147  17.950   6.205 -0.1814 -0.1954  0.1385
 1107POPI   GL116299   4.291  17.900   6.610 -0.0666 -0.1265  0.1401
 1107POPI   GL216300   4.341  17.533   6.544  0.2169  0.0530 -0.2388
 1107POPI   C1A16301   4.614  17.984   6.888  0.2151 -0.1839 -0.2316
 1107POPI   D2A16302   4.740  18.264   7.337 -0.1121  0.0633  0.2158
 1107POPI   C3A16303   4.900  18.228   7.816  0.1403 -0.1715 -0.1664
 1107POPI   C4A16304   4.869  17.824   8.120  0.0349 -0.3248  0.0304
 1107POPI   C1B16305   4.296  17.522   7.026  0.0417 -0.1869 -0.4502
 1107POPI   C2B16306   4.280  17.277   7.437  0.1244 -0.1237  0.0192
 1107POPI   C3B16307   4.089  17.354   7.838 -0.0442  0.2708 -0.1447
 1107POPI   C4B16308   4.003  17.357   8.292  0.1783 -0.4644  0.3187
 1108POPI    C116309  11.836   0.490   5.696  0.1281 -0.0417  0.1097
 1108POPI    C216310  12.059   0.738   5.475 -0.0478  0.0434  0.0258
 1108POPI    C316311  11.954   0.381   5.330  0.3680 -0.1656  0.2215
 1108POPI   PO416312  11.620   0.578   5.768 -0.4462  0.1653 -0.1519
 1108POPI   GL116313  11.392   0.482   6.045 -0.1299 -0.1912  0.0313
 1108POPI   GL216314  11.386   0.310   6.320 -0.2198 -0.0628 -0.1524
 1108POPI   C1A16315  10.960   0.414   6.440  0.1664  0.1219  0.2841
 1108POPI   D2A16316  10.943   0.641   6.774  0.0484  0.1502 -0.0487
 1108POPI   C3A16317  10.860   0.512   7.208  0.0895 -0.3731  0.0387
 1108POPI   C4A16318  10.633   0.510   7.514  0.0289  0.0017 -0.0525
 1108POPI   C1B16319  11.382   0.357   6.772  0.0411  0.0459  0.0377
 1108POPI   C2B16320  11.347   0.373   7.233  0.0298 -0.3222  0.1897
 1108POPI   C3B16321  11.363   0.219   7.647 -0.3262 -0.1357  0.2660
 1108POPI   C4B16322  11.361   0.346   8.141 -0.0756 -0.1084  0.1956
 1109POPI    C116323   1.057   7.907   5.584  0.1573  0.1637 -0.0571
 1109POPI    C216324   0.753   8.037   5.358  0.0252  0.1393  0.1052
 1109POPI    C316325   0.796   7.646   5.430  0.0153  0.1542  0.1941
 1109POPI   PO416326   1.117   8.038   5.751  0.2294 -0.0160 -0.0846
 1109POPI   GL116327   0.840   8.314   6.012  0.2903  0.1201 -0.1593
 1109POPI   GL216328   0.812   8.002   6.182  0.0566  0.0709 -0.2412
 1109POPI   C1A16329   0.963   8.402   6.411  0.0504  0.2729  0.1339
 1109POPI   D2A16330   0.928   8.552   6.838 -0.1707  0.0025 -0.2279
 1109POPI   C3A16331   1.031   8.464   7.282 -0.2104  0.0479  0.2654
 1109POPI   C4A16332   1.055   8.546   7.763 -0.2184  0.0521 -0.0593
 1109POPI   C1B16333   0.847   7.928   6.598  0.1172 -0.0350  0.2857
 1109POPI   C2B16334   0.809   8.083   7.007 -0.1160  0.1404 -0.0382
 1109POPI   C3B16335   0.631   8.246   7.418  0.2321  0.0401 -0.1424
 1109POPI   C4B16336   0.600   8.275   7.790  0.0701 -0.2081 -0.0346
 1110POPI    C116337   7.277  13.339   5.969  0.3189 -0.1125  0.0058
 1110POPI    C216338   7.196  13.112   5.650 -0.0888  0.2663 -0.1705
 1110POPI    C316339   7.380  13.464   5.604 -0.0542  0.2750  0.0253
 1110POPI   PO416340   7.237  13.085   6.207  0.2000  0.0743 -0.0311
 1110POPI   GL116341   7.130  13.130   6.449 -0.0325 -0.4523  0.1625
 1110POPI   GL216342   6.950  12.945   6.590 -0.0849 -0.4257 -0.1366
 1110POPI   C1A16343   7.292  13.128   6.941  0.1956  0.0149 -0.0766
 1110POPI   D2A16344   7.063  12.940   7.389 -0.0484 -0.0605  0.0424
 1110POPI   C3A16345   6.907  13.168   7.718 -0.0067 -0.1028 -0.0792
 1110POPI   C4A16346   6.883  13.170   8.185  0.0865 -0.1738  0.1039
 1110POPI   C1B16347   6.755  13.061   6.958  0.0747 -0.0444  0.2111
 1110POPI   C2B16348   6.564  13.103   7.335  0.2102  0.1288 -0.0255
 1110POPI   C3B16349   6.354  12.963   7.593 -0.0788  0.1849 -0.1240
 1110POPI   C4B16350   6.382  12.856   8.015  0.2584 -0.0207  0.1982
 1111POPI    C116351  13.261   9.708   5.184 -0.0723 -0.2327 -0.1251
 1111POPI    C216352  13.628   9.576   5.096 -0.0135 -0.0873 -0.1000
 1111POPI    C316353  13.352   9.604   4.809  0.1528  0.3048 -0.2278
 1111POPI   PO416354  13.231   9.595   5.439 -0.3565 -0.1834 -0.1170
 1111POPI   GL116355  13.162   9.687   5.878  0.1234 -0.0741  0.1297
 1111POPI   GL216356  13.477   9.781   5.926  0.0377 -0.0086 -0.2698
 1111POPI   C1A16357  13.064   9.549   6.299  0.0182  0.1700 -0.0833
 1111POPI   D2A16358  13.298   9.729   6.666  0.0892 -0.1783 -0.2654
 1111POPI   C3A16359  13.192   9.704   7.076 -0.0098  0.0159 -0.1858
 1111POPI   C4A16360  13.115   9.800   7.524 -0.1983 -0.1446  0.0208
 1111POPI   C1B16361  13.582   9.946   6.295  0.2390 -0.1662  0.0717
 1111POPI   C2B16362  13.558  10.170   6.710 -0.3121  0.1806 -0.3501
 1111POPI   C3B16363  13.628  10.004   7.117 -0.0198 -0.1803  0.1621
 1111POPI   C4B16364  13.617  10.020   7.592 -0.2728 -0.3283  0.1274
 1112POPI    C116365   9.485   1.947   5.186  0.1051  0.0093  0.0230
 1112POPI    C216366   9.517   1.549   5.206  0.0823  0.0087  0.0486
 1112POPI    C316367   9.366   1.721   4.878 -0.0979 -0.0154  0.1178
 1112POPI   PO416368   9.408   1.946   5.490 -0.1597 -0.1861  0.1616
 1112POPI   GL116369   9.334   1.993   5.963 -0.1764  0.0057  0.2750
 1112POPI   GL216370   9.681   2.071   5.935 -0.2525 -0.1296 -0.2412
 1112POPI   C1A16371   9.393   1.668   6.278  0.1484  0.2066 -0.0733
 1112POPI   D2A16372   9.559   1.251   6.219  0.2626 -0.1495  0.4745
 1112POPI   C3A16373   9.656   0.835   6.533 -0.0469  0.1848 -0.0319
 1112POPI   C4A16374   9.327   0.564   6.545 -0.1506  0.0354  0.0216
 1112POPI   C1B16375   9.922   2.011   6.405 -0.1122 -0.0898  0.1065
 1112POPI   C2B16376   9.692   1.797   6.798 -0.0831  0.1845 -0.0012
 1112POPI   C3B16377   9.703   1.603   7.110 -0.0702  0.0636  0.1959
 1112POPI   C4B16378  10.034   1.381   7.233  0.0809  0.0152  0.1731
 1113POPI    C116379   9.199   3.931   5.685  0.1158  0.1972 -0.1250
 1113POPI    C216380   9.158   4.232   5.946  0.0099  0.2097 -0.1556
 1113POPI    C316381   8.846   4.114   5.725 -0.0357 -0.1311  0.0826
 1113POPI   PO416382   9.528   3.932   5.769  0.0376  0.2874  0.0576
 1113POPI   GL116383   9.680   3.864   6.169  0.2802 -0.0978  0.4457
 1113POPI   GL216384   9.936   3.998   6.285  0.1127 -0.1728  0.0637
 1113POPI   C1A16385   9.592   3.618   6.435 -0.1883 -0.0322  0.1946
 1113POPI   D2A16386   9.677   3.362   6.712 -0.0269  0.1520 -0.0192
 1113POPI   C3A16387   9.677   3.227   7.154 -0.2662 -0.0388  0.0793
 1113POPI   C4A16388   9.687   3.200   7.606  0.3093 -0.1059  0.0543
 1113POPI   C1B16389  10.191   4.035   6.602  0.1196  0.0445 -0.1683
 1113POPI   C2B16390  10.159   4.123   7.041  0.1589  0.1545 -0.3759
 1113POPI   C3B16391   9.948   4.062   7.413  0.0475 -0.1717 -0.0213
 1113POPI   C4B16392   9.853   3.912   7.807 -0.1284  0.1333 -0.0040
 1114POPI    C116393   7.945   8.994   5.325  0.2751  0.0676 -0.2625
 1114POPI    C216394   7.552   9.050   5.277  0.2442  0.1684  0.0766
 1114POPI    C316395   7.782   8.964   4.961 -0.0863 -0.1331 -0.0904
 1114POPI   PO416396   7.939   8.991   5.628  0.1083 -0.1961  0.1535
 1114POPI   GL116397   8.040   8.832   5.973 -0.0653  0.0327  0.2498
 1114POPI   GL216398   8.074   8.688   6.246 -0.0912 -0.2807  0.0102
 1114POPI   C1A16399   8.312   9.149   6.193  0.2625  0.4255 -0.2987
 1114POPI   D2A16400   8.812   9.137   6.348  0.2840 -0.1561 -0.0848
 1114POPI   C3A16401   8.812   9.140   6.777  0.0104  0.2831  0.3081
 1114POPI   C4A16402   8.971   8.954   7.083  0.1063  0.1519  0.0108
 1114POPI   C1B16403   7.992   8.958   6.618  0.0425  0.0817  0.0087
 1114POPI   C2B16404   7.912   8.933   7.070  0.0146 -0.0876 -0.2791
 1114POPI   C3B16405   7.593   8.844   7.382  0.2570  0.1344  0.1980
 1114POPI   C4B16406   7.260   8.773   7.598  0.0871  0.1343 -0.2819
 1115POPI    C116407   5.111   7.248   5.803 -0.0495  0.0694  0.1484
 1115POPI    C216408   4.918   7.066   6.103 -0.1896 -0.0719 -0.0255
 1115POPI    C316409   4.716   7.193   5.782  0.0053 -0.2254 -0.2123
 1115POPI   PO416410   5.332   7.357   5.899  0.4427  0.1515 -0.2059
 1115POPI   GL116411   5.235   7.359   6.373  0.1069  0.0608  0.1314
 1115POPI   GL216412   5.139   7.709   6.183  0.3247  0.0127  0.2162
 1115POPI   C1A16413   5.141   7.174   6.811  0.3054  0.0523 -0.0688
 1115POPI   D2A16414   5.257   7.176   7.231  0.2280 -0.0466 -0.1068
 1115POPI   C3A16415   5.030   7.303   7.618  0.0503  0.1278 -0.3277
 1115POPI   C4A16416   4.806   7.155   8.006  0.1682 -0.1761  0.2466
 1115POPI   C1B16417   5.165   7.756   6.663  0.1075 -0.1242 -0.0095
 1115POPI   C2B16418   5.087   7.687   7.178 -0.1769  0.1103  0.4022
 1115POPI   C3B16419   5.163   7.983   7.486 -0.1336  0.2133 -0.2445
 1115POPI   C4B16420   5.332   8.072   7.799  0.0503  0.1916  0.1104
 1116POPI    C116421  12.894  15.674   6.215 -0.1220  0.1602 -0.1166
 1116POPI    C216422  12.636  15.448   6.009 -0.1959  0.1318  0.0055
 1116POPI    C316423  13.014  15.486   5.883 -0.1939 -0.0259 -0.0391
 1116POPI   PO416424  12.881  15.657   6.432 -0.0488  0.4725  0.1442
 1116POPI   GL116425  13.110  15.678   6.839  0.3019 -0.0114 -0.3172
 1116POPI   GL216426  13.037  15.393   6.782 -0.1143  0.0496 -0.2947
 1116POPI   C1A16427  12.866  15.909   7.006 -0.1944 -0.1238 -0.2865
 1116POPI   D2A16428  12.484  15.972   6.889 -0.0830  0.1758  0.0338
 1116POPI   C3A16429  12.271  15.931   7.235  0.0606  0.0058 -0.1012
 1116POPI   C4A16430  12.125  16.166   7.564 -0.2457 -0.4081 -0.1238
 1116POPI   C1B16431  13.015  15.360   7.191  0.0496  0.0403 -0.1909
 1116POPI   C2B16432  13.161  15.403   7.649 -0.1163  0.1897  0.3307
 1116POPI   C3B16433  13.257  15.498   8.071  0.2794  0.3096 -0.0171
 1116POPI   C4B16434  13.315  15.381   8.422  0.1985 -0.0154 -0.1742
 1117POPI    C116435  15.056  13.184   5.588  0.1092 -0.1750 -0.0612
 1117POPI    C216436  14.802  13.245   5.285  0.1451 -0.3705 -0.1320
 1117POPI    C316437  14.671  13.083   5.626  0.0161  0.2278  0.1145
 1117POPI   PO416438  15.238  13.498   5.644  0.0377 -0.2422 -0.2748
 1117POPI   GL116439  15.453  13.694   5.960  0.1239 -0.1474  0.3360
 1117POPI   GL216440  15.762  13.523   5.977 -0.3233  0.2577 -0.0894
 1117POPI   C1A16441  15.271  13.902   6.317 -0.1037  0.1830  0.2669
 1117POPI   D2A16442  15.269  13.912   6.850 -0.2256 -0.2028  0.4043
 1117POPI   C3A16443  15.661  13.990   7.046 -0.2115 -0.0715  0.2749
 1117POPI   C4A16444  15.994  14.062   7.322 -0.3039  0.0055 -0.2325
 1117POPI   C1B16445  15.792  13.476   6.419 -0.1064  0.3322  0.2220
 1117POPI   C2B16446  15.724  13.501   6.854  0.1758 -0.0795 -0.1028
 1117POPI   C3B16447  15.905  13.585   7.254  0.0855  0.1983  0.1877
 1117POPI   C4B16448  16.302  13.311   7.567  0.1719  0.2997 -0.0753
 1118POPI    C116449   5.930  14.557   5.612 -0.0823 -0.3572  0.0788
 1118POPI    C216450   5.803  14.442   5.250 -0.0666 -0.0914 -0.0137
 1118POPI    C316451   6.195  14.448   5.332 -0.0539  0.1021 -0.0829
 1118POPI   PO416452   5.824  14.453   5.910 -0.0937  0.0357  0.1750
 1118POPI   GL116453   5.827  14.386   6.405 -0.0623 -0.1063 -0.0865
 1118POPI   GL216454   5.855  14.673   6.356 -0.1576  0.0155  0.0224
 1118POPI   C1A16455   5.966  14.344   6.802  0.0364  0.2487  0.2915
 1118POPI   D2A16456   5.882  14.250   7.333  0.2022  0.2444 -0.3084
 1118POPI   C3A16457   5.976  14.097   7.826  0.1125 -0.0163  0.3272
 1118POPI   C4A16458   5.783  13.907   8.213  0.0186  0.1303  0.2646
 1118POPI   C1B16459   5.784  14.939   6.714  0.3029 -0.1569  0.2549
 1118POPI   C2B16460   5.779  14.886   7.151 -0.2078 -0.0761  0.4749
 1118POPI   C3B16461   5.985  15.079   7.420 -0.0232  0.1352 -0.0927
 1118POPI   C4B16462   6.127  15.035   7.864  0.1022  0.0429 -0.0355
 1119POPI    C116463  12.662   9.233   5.338 -0.0774  0.1125 -0.1514
 1119POPI    C216464  12.813   9.472   5.056  0.2269 -0.1323 -0.2015
 1119POPI    C316465  12.607   9.146   4.951  0.1803 -0.1234 -0.1381
 1119POPI   PO416466  12.812   9.272   5.579  0.0582  0.2665  0.1021
 1119POPI   GL116467  13.131   9.128   5.762 -0.1536  0.1848  0.0566
 1119POPI   GL216468  13.359   9.189   5.872  0.0760 -0.2000  0.0063
 1119POPI   C1A16469  13.083   8.998   6.186 -0.0298  0.1657 -0.0738
 1119POPI   D2A16470  13.227   9.158   6.601 -0.2967  0.1218 -0.2937
 1119POPI   C3A16471  13.121   9.083   7.003 -0.5253 -0.0363 -0.3416
 1119POPI   C4A16472  13.204   9.165   7.416 -0.1542 -0.0512 -0.3196
 1119POPI   C1B16473  13.576   9.352   6.149  0.1813  0.1399 -0.0612
 1119POPI   C2B16474  13.718   9.454   6.478 -0.1774 -0.0517  0.2796
 1119POPI   C3B16475  13.666   9.531   6.921  0.2789  0.2562  0.3151
 1119POPI   C4B16476  13.607   9.516   7.347  0.0010  0.0207  0.0840
 1120POPI    C116477   9.738  13.499   5.643 -0.1609 -0.1524 -0.0470
 1120POPI    C216478  10.092  13.330   5.561 -0.0614 -0.1062  0.2732
 1120POPI    C316479   9.763  13.210   5.368  0.1152 -0.2039  0.0286
 1120POPI   PO416480   9.724  13.540   5.862 -0.2856  0.0428  0.2646
 1120POPI   GL116481   9.682  13.281   6.177  0.0590 -0.0567  0.1917
 1120POPI   GL216482   9.448  13.284   6.355 -0.0003 -0.1052  0.2036
 1120POPI   C1A16483   9.903  13.162   6.559  0.0404 -0.0219  0.1966
 1120POPI   D2A16484   9.976  13.152   6.960  0.2743  0.1738 -0.1672
 1120POPI   C3A16485  10.288  13.008   7.154 -0.0796  0.0852  0.1392
 1120POPI   C4A16486  10.617  12.725   7.137 -0.2121 -0.2161  0.0348
 1120POPI   C1B16487   9.398  13.287   6.807  0.0877 -0.1521  0.1315
 1120POPI   C2B16488   9.515  13.272   7.224 -0.0432 -0.0687 -0.0375
 1120POPI   C3B16489   9.539  13.226   7.631  0.2783  0.0403  0.2235
 1120POPI   C4B16490   9.608  13.224   8.010 -0.1818  0.1579 -0.1664
 1121POPI    C116491   5.678   1.689   6.052 -0.0887 -0.0820 -0.0333
 1121POPI    C216492   5.289   1.602   6.078 -0.1212  0.1071  0.1396
 1121POPI    C316493   5.489   1.525   5.740 -0.3033 -0.0081  0.0563
 1121POPI   PO416494   5.678   1.627   6.406 -0.1094 -0.5098 -0.2405
 1121POPI   GL116495   5.646   1.487   6.875 -0.0683 -0.0410  0.0276
 1121POPI   GL216496   5.534   1.224   6.942  0.0756 -0.1343 -0.2843
 1121POPI   C1A16497   5.680   1.731   7.173 -0.0386 -0.1579  0.0882
 1121POPI   D2A16498   5.859   1.947   7.583  0.0634 -0.1845  0.0930
 1121POPI   C3A16499   6.169   2.071   7.891  0.0469  0.0279  0.1525
 1121POPI   C4A16500   6.255   1.959   8.321  0.1846  0.1306  0.1974
 1121POPI   C1B16501   5.450   1.253   7.327 -0.1727 -0.0386 -0.2679
 1121POPI   C2B16502   5.146   1.169   7.637  0.1761  0.4573  0.0734
 1121POPI   C3B16503   5.023   1.117   7.990  0.2761  0.0080  0.0690
 1121POPI   C4B16504   4.593   1.263   8.246 -0.1074  0.0841  0.2651
 1122POPI    C116505  14.409  16.883   6.119 -0.1631 -0.2306 -0.1572
 1122POPI    C216506  14.178  17.131   5.906  0.0885 -0.0142 -0.1833
 1122POPI    C316507  14.531  17.012   5.760  0.2286  0.0736  0.0758
 1122POPI   PO416508  14.359  16.931   6.335 -0.2301  0.0733  0.1023
 1122POPI   GL116509  14.234  17.022   6.769 -0.0948 -0.1142  0.0330
 1122POPI   GL216510  14.401  16.935   7.009 -0.1366  0.0667 -0.0173
 1122POPI   C1A16511  13.862  17.138   6.857 -0.2319 -0.0149  0.1091
 1122POPI   D2A16512  13.581  17.241   7.223  0.0057 -0.2251 -0.0240
 1122POPI   C3A16513  13.258  17.252   7.460  0.1506  0.1882  0.1405
 1122POPI   C4A16514  12.885  17.349   7.513 -0.1822 -0.3774  0.0549
 1122POPI   C1B16515  14.049  16.975   7.268  0.2543  0.0767  0.0526
 1122POPI   C2B16516  13.704  16.836   7.573  0.1242  0.1919  0.0771
 1122POPI   C3B16517  13.629  16.676   7.941 -0.1766 -0.3981 -0.1714
 1122POPI   C4B16518  13.881  16.577   8.273  0.4309 -0.0537  0.1309
 1123POPI    C116519   3.158  10.398   5.703  0.0468 -0.1078  0.1434
 1123POPI    C216520   3.396  10.376   5.382 -0.0097  0.0431  0.0901
 1123POPI    C316521   3.376  10.069   5.638  0.0101 -0.0918 -0.0684
 1123POPI   PO416522   3.051  10.629   5.625  0.0603 -0.0581 -0.0628
 1123POPI   GL116523   2.826  10.866   5.941  0.2162 -0.1611 -0.0293
 1123POPI   GL216524   2.673  11.034   5.970 -0.1125  0.0455  0.2198
 1123POPI   C1A16525   2.789  10.497   6.185 -0.1411 -0.2164  0.0149
 1123POPI   D2A16526   2.736  10.476   6.573 -0.1415  0.1518  0.0359
 1123POPI   C3A16527   2.803  10.530   6.999  0.1551  0.0003 -0.1720
 1123POPI   C4A16528   2.735  10.556   7.427  0.0592 -0.0585  0.3304
 1123POPI   C1B16529   2.761  10.974   6.474 -0.0077 -0.1206  0.0375
 1123POPI   C2B16530   2.782  11.096   6.927 -0.2860  0.0136  0.0775
 1123POPI   C3B16531   2.793  11.089   7.436  0.0298  0.1118  0.1704
 1123POPI   C4B16532   2.713  10.952   7.807 -0.0257 -0.0902  0.1031
 1124POPI    C116533   6.919  10.909   5.892 -0.0185  0.0297 -0.4343
 1124POPI    C216534   6.692  10.646   6.089  0.1271  0.1604 -0.0840
 1124POPI    C316535   6.746  10.607   5.695 -0.1520 -0.1177 -0.0992
 1124POPI   PO416536   7.173  10.876   5.935 -0.0251  0.2495  0.0560
 1124POPI   GL116537   7.319  11.080   6.255  0.1200 -0.0743  0.3795
 1124POPI   GL216538   7.347  11.068   6.614  0.0040 -0.0910 -0.2681
 1124POPI   C1A16539   7.438  11.540   6.248  0.0038  0.1251  0.0965
 1124POPI   D2A16540   7.677  11.798   6.411  0.0197 -0.0922 -0.2512
 1124POPI   C3A16541   7.798  11.812   6.934 -0.3823 -0.2107  0.0267
 1124POPI   C4A16542   7.758  11.744   7.340  0.2543  0.3417 -0.3689
 1124POPI   C1B16543   7.163  11.052   7.083  0.3153  0.1848  0.1355
 1124POPI   C2B16544   7.059  10.743   7.423 -0.0366  0.2887 -0.3283
 1124POPI   C3B16545   6.989  10.667   7.783 -0.0751  0.0863  0.4483
 1124POPI   C4B16546   6.618  10.495   8.025  0.1291 -0.0130 -0.1465
 1125POPI    C116547   5.613   6.587   5.371  0.2432  0.2583 -0.0620
 1125POPI    C216548   5.780   6.237   5.277  0.1164  0.1504  0.1086
 1125POPI    C316549   5.382   6.270   5.294  0.1311  0.2574  0.2636
 1125POPI   PO416550   5.783   6.636   5.602 -0.3027 -0.0930 -0.1241
 1125POPI   GL116551   5.885   6.540   6.004  0.2837 -0.1127 -0.0814
 1125POPI   GL216552   5.634   6.474   6.181 -0.2285 -0.0287  0.2645
 1125POPI   C1A16553   5.998   6.157   6.207 -0.2864 -0.0355 -0.2900
 1125POPI   D2A16554   5.797   5.844   6.496 -0.2757 -0.1738 -0.0946
 1125POPI   C3A16555   5.775   5.935   6.979 -0.1360  0.0341  0.1701
 1125POPI   C4A16556   5.837   6.049   7.376 -0.2661 -0.0643  0.1787
 1125POPI   C1B16557   5.766   6.440   6.671 -0.0078 -0.1417  0.2403
 1125POPI   C2B16558   5.839   6.517   7.099  0.1089 -0.0679  0.5895
 1125POPI   C3B16559   5.648   6.507   7.573 -0.1064  0.0066 -0.1213
 1125POPI   C4B16560   5.371   6.537   7.851 -0.3700  0.0595 -0.0921
 1126POPI    C116561   8.678   2.033   5.372  0.0967 -0.0562 -0.0284
 1126POPI    C216562   8.964   1.996   5.649  0.0274 -0.1860  0.0264
 1126POPI    C316563   8.975   1.770   5.319  0.1196 -0.0188 -0.0864
 1126POPI   PO416564   8.499   2.275   5.550 -0.1982  0.2091 -0.0929
 1126POPI   GL116565   8.140   2.325   5.991 -0.0540 -0.3553 -0.1459
 1126POPI   GL216566   8.399   2.403   6.060 -0.1814 -0.1506  0.2695
 1126POPI   C1A16567   7.988   2.164   6.353  0.0890 -0.0017 -0.2427
 1126POPI   D2A16568   8.001   2.185   6.868 -0.1267 -0.1840  0.1692
 1126POPI   C3A16569   8.327   2.272   7.083 -0.0041 -0.3431 -0.2211
 1126POPI   C4A16570   8.529   2.274   7.480 -0.3027  0.0179 -0.1480
 1126POPI   C1B16571   8.449   2.395   6.451 -0.0142  0.1537  0.0011
 1126POPI   C2B16572   8.722   2.411   6.773  0.1229 -0.1831  0.1117
 1126POPI   C3B16573   8.690   2.606   7.157  0.0843 -0.0424 -0.0578
 1126POPI   C4B16574   8.734   2.729   7.642  0.0372  0.1146 -0.1796
 1127POPI    C116575   2.574  17.089   5.658  0.1058 -0.0556 -0.1124
 1127POPI    C216576   2.290  17.091   5.376 -0.0087  0.1585  0.0018
 1127POPI    C316577   2.676  17.093   5.271 -0.0504  0.1691 -0.1534
 1127POPI   PO416578   2.475  16.973   5.838 -0.1270  0.3315 -0.2271
 1127POPI   GL116579   2.149  16.873   6.177  0.2525  0.0528 -0.0082
 1127POPI   GL216580   2.213  17.047   6.425 -0.0178  0.2623  0.0211
 1127POPI   C1A16581   1.919  16.490   6.312 -0.0556  0.1570  0.0532
 1127POPI   D2A16582   1.688  16.164   6.505 -0.3270 -0.0257  0.1556
 1127POPI   C3A16583   1.457  16.184   6.965 -0.0659 -0.1109 -0.1799
 1127POPI   C4A16584   1.553  16.178   7.429  0.0259 -0.1236  0.0513
 1127POPI   C1B16585   2.128  17.033   6.860  0.0358 -0.0976 -0.1711
 1127POPI   C2B16586   2.064  17.178   7.281 -0.1680 -0.1686  0.0855
 1127POPI   C3B16587   2.041  16.857   7.613 -0.0067 -0.1663  0.1511
 1127POPI   C4B16588   1.908  16.761   7.980 -0.1554 -0.1753  0.0738
 1128POPI    C116589   7.638   1.473   5.478  0.1331  0.2401 -0.0067
 1128POPI    C216590   7.485   1.832   5.391 -0.3429  0.0615  0.0632
 1128POPI    C316591   7.439   1.527   5.136  0.1051  0.0564 -0.0206
 1128POPI   PO416592   7.793   1.519   5.663  0.1706 -0.1134 -0.1489
 1128POPI   GL116593   8.067   1.467   5.988 -0.1937 -0.0675 -0.0299
 1128POPI   GL216594   7.904   1.794   6.062 -0.2549 -0.1190  0.2283
 1128POPI   C1A16595   7.972   1.245   6.411  0.3802  0.1592 -0.2990
 1128POPI   D2A16596   7.933   1.233   6.832 -0.0906  0.0888 -0.0413
 1128POPI   C3A16597   8.192   1.048   7.194  0.2425  0.0767 -0.0332
 1128POPI   C4A16598   8.497   1.120   7.567  0.2472  0.0149  0.0156
 1128POPI   C1B16599   7.933   1.735   6.569  0.0799 -0.1210  0.1666
 1128POPI   C2B16600   8.084   1.706   7.013 -0.4217  0.0351 -0.2380
 1128POPI   C3B16601   8.265   1.859   7.388 -0.4195  0.0222 -0.1300
 1128POPI   C4B16602   8.122   1.926   7.871  0.0330  0.1144 -0.0628
 1129POPI    C116603   2.457  14.069   5.328  0.0567 -0.0080  0.0714
 1129POPI    C216604   2.694  13.823   5.120 -0.0446  0.0171 -0.0751
 1129POPI    C316605   2.299  13.818   5.059 -0.0607  0.1218  0.0182
 1129POPI   PO416606   2.546  14.056   5.695 -0.1004 -0.1238 -0.1854
 1129POPI   GL116607   2.375  13.808   5.978  0.0180  0.0114 -0.1115
 1129POPI   GL216608   2.063  13.797   6.041  0.1054 -0.0735 -0.0947
 1129POPI   C1A16609   2.548  14.003   6.286  0.3454 -0.1096 -0.3864
 1129POPI   D2A16610   2.427  13.965   6.685  0.0554  0.1437  0.1184
 1129POPI   C3A16611   2.393  14.077   7.050  0.0530  0.0311  0.5304
 1129POPI   C4A16612   2.229  13.982   7.505  0.1138 -0.2247  0.2654
 1129POPI   C1B16613   2.030  13.758   6.464  0.2707 -0.1807  0.4728
 1129POPI   C2B16614   2.030  13.777   6.922  0.4055 -0.2275  0.3118
 1129POPI   C3B16615   1.847  13.792   7.304 -0.4288 -0.0051  0.1119
 1129POPI   C4B16616   1.685  13.830   7.681 -0.1664 -0.1449  0.0245
 1130POPI    C116617   1.233  13.892   5.559  0.1409 -0.0198  0.0893
 1130POPI    C216618   1.380  14.251   5.461  0.0136  0.1021  0.3360
 1130POPI    C316619   1.584  14.012   5.708  0.0855  0.0147  0.1932
 1130POPI   PO416620   0.908  14.005   5.606 -0.3020  0.0590 -0.1949
 1130POPI   GL116621   0.707  14.069   6.009 -0.4308 -0.2357  0.1351
 1130POPI   GL216622   0.512  13.845   6.171 -0.0550  0.1453 -0.2083
 1130POPI   C1A16623   0.867  14.252   6.329  0.2589  0.0200  0.1484
 1130POPI   D2A16624   1.130  14.286   6.646 -0.3594  0.4065 -0.1741
 1130POPI   C3A16625   1.036  14.268   7.089  0.0179 -0.1735 -0.2275
 1130POPI   C4A16626   0.942  14.295   7.484 -0.2204 -0.1414  0.3909
 1130POPI   C1B16627   0.550  13.995   6.653  0.3279  0.2019 -0.0304
 1130POPI   C2B16628   0.579  14.063   7.112  0.0253 -0.3068  0.0849
 1130POPI   C3B16629   0.501  13.935   7.546 -0.1653 -0.1541 -0.2633
 1130POPI   C4B16630   0.308  13.790   7.994 -0.1980 -0.1863  0.1801
 1131POPI    C116631  14.599   0.369   6.465  0.1955 -0.0947 -0.0615
 1131POPI    C216632  14.914   0.210   6.276  0.0857 -0.2182 -0.1419
 1131POPI    C316633  14.560   0.025   6.266 -0.0165 -0.0256 -0.1412
 1131POPI   PO416634  14.762   0.659   6.506  0.1479 -0.0018  0.1878
 1131POPI   GL116635  15.063   0.703   6.647 -0.1251  0.1563 -0.3375
 1131POPI   GL216636  15.128   0.411   6.667 -0.1358  0.0974 -0.3127
 1131POPI   C1A16637  15.127   0.737   7.044 -0.1172  0.1112 -0.2370
 1131POPI   D2A16638  15.041   0.609   7.555 -0.1827  0.1435  0.2503
 1131POPI   C3A16639  15.275   0.625   7.871  0.3279  0.1177 -0.1735
 1131POPI   C4A16640  15.253   0.549   8.398 -0.2521 -0.1570  0.2154
 1131POPI   C1B16641  15.250   0.296   7.179  0.1523  0.0860 -0.1602
 1131POPI   C2B16642  15.305   0.171   7.658 -0.1364  0.1843 -0.2833
 1131POPI   C3B16643  15.556   0.198   7.997  0.0999  0.0406 -0.5009
 1131POPI   C4B16644  15.760   0.159   8.375  0.5437  0.5270  0.0227
 1132POPI    C116645   6.285  12.367   5.582 -0.0608  0.3666 -0.0315
 1132POPI    C216646   6.379  12.152   5.258  0.1268 -0.0724  0.3044
 1132POPI    C316647   6.040  12.364   5.266  0.2959  0.2420 -0.3131
 1132POPI   PO416648   6.273  12.272   5.781 -0.0783 -0.2294 -0.1130
 1132POPI   GL116649   6.142  12.148   6.225  0.0218  0.3689  0.0523
 1132POPI   GL216650   5.896  12.284   6.324  0.1380  0.2396  0.0196
 1132POPI   C1A16651   6.250  12.262   6.670  0.5170 -0.2343 -0.0921
 1132POPI   D2A16652   6.270  12.252   7.024 -0.2947  0.0577  0.1095
 1132POPI   C3A16653   6.238  12.172   7.439  0.2325 -0.0379  0.1994
 1132POPI   C4A16654   6.324  12.409   7.820  0.1875  0.2241 -0.0146
 1132POPI   C1B16655   5.907  12.636   6.608 -0.4600 -0.3236  0.0526
 1132POPI   C2B16656   5.724  12.902   7.026  0.0669  0.1881 -0.1967
 1132POPI   C3B16657   5.491  12.751   7.405 -0.1569  0.0009  0.0984
 1132POPI   C4B16658   5.404  12.594   7.846 -0.3270 -0.0563 -0.0589
 1133POPI    C116659  10.688  14.505   5.523  0.0080 -0.0861 -0.1747
 1133POPI    C216660  10.899  14.834   5.610 -0.0185 -0.0711 -0.1669
 1133POPI    C316661  11.085  14.482   5.570 -0.0187 -0.0981  0.0545
 1133POPI   PO416662  10.418  14.528   5.685  0.2350 -0.0007 -0.0270
 1133POPI   GL116663  10.162  14.311   5.958  0.2696  0.0708  0.0314
 1133POPI   GL216664  10.295  14.506   6.278  0.1395  0.1136  0.0683
 1133POPI   C1A16665  10.176  14.060   6.332  0.0112 -0.0395 -0.1816
 1133POPI   D2A16666   9.941  13.672   6.456 -0.2981 -0.3137 -0.3887
 1133POPI   C3A16667   9.761  13.692   6.912  0.1960 -0.0050 -0.1986
 1133POPI   C4A16668   9.703  14.102   7.207 -0.1188  0.0569 -0.3588
 1133POPI   C1B16669  10.329  14.584   6.707  0.1905 -0.0602 -0.0234
 1133POPI   C2B16670  10.231  14.540   7.064  0.0610  0.1515  0.0495
 1133POPI   C3B16671  10.058  14.468   7.502 -0.1853  0.2151 -0.2628
 1133POPI   C4B16672   9.915  14.686   7.813  0.0626 -0.0864 -0.0000
 1134POPI    C116673  12.977   7.505   5.196  0.2023  0.0343 -0.0816
 1134POPI    C216674  12.679   7.504   4.929 -0.0401 -0.0764  0.1836
 1134POPI    C316675  12.728   7.192   5.175  0.1444  0.0485  0.3079
 1134POPI   PO416676  12.918   7.746   5.360  0.4101 -0.2615  0.1121
 1134POPI   GL116677  12.721   7.850   5.715  0.3477 -0.1389 -0.1886
 1134POPI   GL216678  12.961   7.979   5.815 -0.0582 -0.1731  0.0854
 1134POPI   C1A16679  12.723   7.708   6.186 -0.2780  0.1104  0.1401
 1134POPI   D2A16680  12.606   7.733   6.655 -0.0160  0.1002 -0.0984
 1134POPI   C3A16681  12.602   7.731   7.095 -0.0989  0.1020 -0.0429
 1134POPI   C4A16682  12.678   7.783   7.521 -0.3532 -0.2593 -0.1300
 1134POPI   C1B16683  13.069   8.068   6.241 -0.0090 -0.0778  0.1252
 1134POPI   C2B16684  13.059   7.899   6.513 -0.0590  0.0973 -0.1560
 1134POPI   C3B16685  13.246   7.972   6.906 -0.2918 -0.0486 -0.0179
 1134POPI   C4B16686  13.184   8.083   7.284 -0.0004 -0.1881  0.0040
 1135POPI    C116687  15.928   5.961   5.426  0.2193 -0.0648 -0.2917
 1135POPI    C216688  16.081   5.859   5.071  0.0281  0.2026 -0.4546
 1135POPI    C316689  15.701   5.981   5.098 -0.0493 -0.0958 -0.1109
 1135POPI   PO416690  16.165   5.848   5.614  0.2326  0.2413 -0.0537
 1135POPI   GL116691  16.196   6.027   6.023 -0.0289  0.2643 -0.2256
 1135POPI   GL216692  16.059   5.699   6.191  0.0160 -0.1227 -0.1451
 1135POPI   C1A16693  16.447   6.029   6.297  0.0625  0.0637  0.2122
 1135POPI   D2A16694  16.434   6.138   6.805  0.2186 -0.0722 -0.2285
 1135POPI   C3A16695  16.347   6.183   7.200  0.1193  0.0286 -0.0238
 1135POPI   C4A16696  16.506   6.278   7.566  0.1368 -0.1666  0.2137
 1135POPI   C1B16697  16.097   5.768   6.569  0.0051  0.0160 -0.2460
 1135POPI   C2B16698  16.082   5.830   7.025  0.2055 -0.0194 -0.0953
 1135POPI   C3B16699  15.807   5.748   7.502  0.0478  0.2178 -0.2646
 1135POPI   C4B16700  15.419   5.587   7.702 -0.2145  0.1352 -0.0157
 1136POPI    C116701   0.338   3.817   5.666 -0.0070 -0.1119 -0.2200
 1136POPI    C216702   0.401   3.847   5.272  0.0572  0.1597 -0.1908
 1136POPI    C316703   0.643   4.035   5.529  0.0100 -0.0084 -0.0208
 1136POPI   PO416704   0.317   3.554   5.712 -0.0485  0.2078  0.1832
 1136POPI   GL116705   0.342   3.280   6.035 -0.2292  0.3208  0.0697
 1136POPI   GL216706   0.752   3.288   5.967 -0.0638 -0.2400  0.2776
 1136POPI   C1A16707   0.589   3.048   6.392  0.1267  0.0392  0.0775
 1136POPI   D2A16708   0.839   3.091   6.764 -0.0056 -0.2008 -0.2162
 1136POPI   C3A16709   0.786   3.244   7.205 -0.1273  0.0266 -0.0953
 1136POPI   C4A16710   0.783   3.192   7.570 -0.2007  0.0596 -0.0719
 1136POPI   C1B16711   0.957   3.419   6.403  0.1957 -0.2827 -0.1600
 1136POPI   C2B16712   0.881   3.669   6.775  0.0832  0.0649  0.0969
 1136POPI   C3B16713   0.901   3.776   7.218 -0.2096 -0.1014  0.2550
 1136POPI   C4B16714   0.863   3.679   7.705 -0.3297 -0.2100 -0.0951
 1137POPI    C116715   7.851  11.580   5.766  0.0222  0.1707 -0.0472
 1137POPI    C216716   7.593  11.589   5.461  0.1225  0.0240 -0.1376
 1137POPI    C316717   7.551  11.845   5.766 -0.0145  0.1302 -0.2440
 1137POPI   PO416718   7.864  11.243   5.795 -0.1876 -0.1878 -0.0815
 1137POPI   GL116719   8.131  11.145   6.148 -0.2744  0.0851  0.1402
 1137POPI   GL216720   7.860  11.321   6.269 -0.0324 -0.0076 -0.3182
 1137POPI   C1A16721   8.192  10.961   6.545  0.0815 -0.2141  0.3504
 1137POPI   D2A16722   8.268  10.879   7.013 -0.0098  0.1074  0.1982
 1137POPI   C3A16723   8.146  10.780   7.353 -0.0607  0.1299  0.1921
 1137POPI   C4A16724   7.915  10.653   7.714  0.0595  0.0527  0.0063
 1137POPI   C1B16725   7.741  11.343   6.653  0.0724  0.0499  0.2193
 1137POPI   C2B16726   7.445  11.418   6.943 -0.0848  0.1770 -0.0419
 1137POPI   C3B16727   7.440  11.351   7.382 -0.1453  0.0926  0.1789
 1137POPI   C4B16728   7.514  11.518   7.755 -0.3702  0.0367 -0.2350
 1138POPI    C116729   4.898   4.440   5.394 -0.3017  0.1487 -0.0636
 1138POPI    C216730   5.145   4.129   5.345 -0.1305  0.2369  0.2181
 1138POPI    C316731   5.069   4.374   5.038 -0.2884 -0.0941 -0.0142
 1138POPI   PO416732   4.773   4.379   5.595  0.0079 -0.0560 -0.2836
 1138POPI   GL116733   4.722   4.590   5.853  0.2792 -0.1059 -0.0394
 1138POPI   GL216734   4.786   4.971   5.775 -0.1277  0.2592  0.0621
 1138POPI   C1A16735   4.466   4.826   6.222  0.1304 -0.0525 -0.3932
 1138POPI   D2A16736   4.667   4.951   6.637 -0.0247 -0.0783  0.1348
 1138POPI   C3A16737   4.571   4.954   7.136 -0.0054 -0.2088 -0.0532
 1138POPI   C4A16738   4.648   4.830   7.537  0.2085  0.0287 -0.1730
 1138POPI   C1B16739   5.155   4.774   6.144 -0.1653 -0.0341  0.4043
 1138POPI   C2B16740   5.151   4.673   6.450 -0.1122  0.1085  0.1229
 1138POPI   C3B16741   5.040   4.744   6.877 -0.0716 -0.0430  0.0348
 1138POPI   C4B16742   5.096   4.836   7.285  0.1859  0.1121  0.1736
 1139POPI    C116743   7.317   1.676   5.910  0.0906 -0.0223 -0.2226
 1139POPI    C216744   7.323   2.066   5.821 -0.0931  0.0211 -0.0505
 1139POPI    C316745   7.016   1.838   5.702 -0.1483 -0.0012  0.1317
 1139POPI   PO416746   7.323   1.704   6.186 -0.2943 -0.2021  0.3028
 1139POPI   GL116747   6.911   1.626   6.393  0.0033 -0.2086 -0.3207
 1139POPI   GL216748   6.673   1.454   6.521 -0.3026  0.0455 -0.0232
 1139POPI   C1A16749   7.049   1.812   6.783 -0.0276  0.3207 -0.0096
 1139POPI   D2A16750   6.892   1.914   7.196 -0.0309 -0.1771  0.0738
 1139POPI   C3A16751   7.195   1.746   7.516 -0.0205  0.1691 -0.1600
 1139POPI   C4A16752   7.358   1.963   7.756  0.1361 -0.0088  0.2220
 1139POPI   C1B16753   6.847   1.445   6.980  0.0828  0.1719 -0.0121
 1139POPI   C2B16754   6.875   1.324   7.501  0.3977 -0.0879  0.2743
 1139POPI   C3B16755   6.990   1.286   7.908 -0.2523 -0.1076 -0.0463
 1139POPI   C4B16756   7.252   1.011   8.106 -0.2206 -0.0505  0.0823
 1140POPI    C116757  15.676  17.414   6.240  0.1210 -0.0160 -0.0000
 1140POPI    C216758  15.638  17.737   6.008  0.0694  0.0230  0.0627
 1140POPI    C316759  15.439  17.402   5.918  0.1536 -0.0041 -0.0245
 1140POPI   PO416760  15.586  17.551   6.486  0.1796  0.1136  0.1289
 1140POPI   GL116761  15.285  17.397   6.926 -0.1820  0.2438 -0.0805
 1140POPI   GL216762  15.252  17.083   6.831 -0.0552 -0.0635  0.0085
 1140POPI   C1A16763  15.491  17.666   7.223  0.2504 -0.0284 -0.2642
 1140POPI   D2A16764  15.653  17.702   7.717 -0.1369 -0.3916 -0.2075
 1140POPI   C3A16765  15.423  17.679   8.089 -0.0298 -0.2806  0.0478
 1140POPI   C4A16766  15.039  17.501   8.340 -0.2551 -0.2939 -0.1443
 1140POPI   C1B16767  15.206  16.913   7.256 -0.0515  0.1034  0.0724
 1140POPI   C2B16768  15.029  16.990   7.640  0.1575 -0.0603  0.1740
 1140POPI   C3B16769  15.339  17.163   8.023 -0.2626  0.2125  0.0343
 1140POPI   C4B16770  15.734  17.258   7.971 -0.1358 -0.0453  0.2751
 1141POPI    C116771  10.455  15.918   5.555  0.0869 -0.0401  0.0985
 1141POPI    C216772  10.202  16.214   5.464  0.0112 -0.0891  0.1477
 1141POPI    C316773  10.390  16.014   5.173  0.1437  0.0764  0.1173
 1141POPI   PO416774  10.330  15.782   5.663  0.1706 -0.0331 -0.0459
 1141POPI   GL116775  10.370  15.743   6.046  0.2243  0.4720 -0.0931
 1141POPI   GL216776  10.011  15.660   6.027 -0.0162  0.0296 -0.3808
 1141POPI   C1A16777  10.450  15.576   6.431 -0.0009 -0.0442 -0.1072
 1141POPI   D2A16778  10.507  15.474   6.878 -0.3204 -0.1903  0.1851
 1141POPI   C3A16779  10.345  15.352   7.305 -0.1272  0.1999 -0.1209
 1141POPI   C4A16780  10.170  15.664   7.595  0.2813  0.1441  0.0537
 1141POPI   C1B16781   9.963  15.514   6.415  0.1821 -0.0262  0.0636
 1141POPI   C2B16782   9.999  15.535   6.808 -0.0353  0.1067 -0.0175
 1141POPI   C3B16783   9.840  15.416   7.222  0.2051 -0.2799 -0.0813
 1141POPI   C4B16784   9.706  15.503   7.672  0.3751 -0.1436  0.3796
 1142POPI    C116785  12.582   0.531   5.455  0.0046 -0.0802 -0.0621
 1142POPI    C216786  12.490   0.788   5.162  0.2615  0.1023  0.0142
 1142POPI    C316787  12.873   0.697   5.237  0.1988  0.0571  0.2926
 1142POPI   PO416788  12.391   0.400   5.569 -0.1340  0.2095 -0.0546
 1142POPI   GL116789  12.243   0.549   5.996 -0.0771  0.1489  0.2684
 1142POPI   GL216790  11.988   0.421   6.158 -0.1139  0.2355  0.1792
 1142POPI   C1A16791  12.277   0.742   6.423  0.0380 -0.0625  0.1766
 1142POPI   D2A16792  12.175   0.832   6.840  0.0161  0.2955  0.5203
 1142POPI   C3A16793  12.160   1.176   6.928 -0.0408 -0.1000  0.0248
 1142POPI   C4A16794  12.500   1.526   6.912 -0.0850  0.3604 -0.0274
 1142POPI   C1B16795  11.826   0.498   6.570 -0.2153  0.2030  0.1498
 1142POPI   C2B16796  11.765   0.669   7.034  0.0575  0.1971  0.3278
 1142POPI   C3B16797  11.928   0.907   7.312  0.2376 -0.1787  0.3942
 1142POPI   C4B16798  12.161   1.262   7.447 -0.0514  0.4274  0.1601
 1143POPI    C116799   9.302   0.269   5.134  0.1070  0.1727  0.0718
 1143POPI    C216800   9.035   0.484   4.929 -0.0180  0.0468  0.1015
 1143POPI    C316801   9.223   0.178   4.753  0.0900  0.1209  0.0876
 1143POPI   PO416802   9.138   0.215   5.401 -0.2975 -0.0638 -0.0912
 1143POPI   GL116803   9.108   0.402   5.767 -0.0612 -0.3521 -0.2243
 1143POPI   GL216804   9.409   0.302   5.964  0.1473  0.4044 -0.2543
 1143POPI   C1A16805   9.002   0.472   6.151 -0.2864 -0.1930 -0.1083
 1143POPI   D2A16806   8.638   0.456   6.369  0.1415 -0.0585  0.2924
 1143POPI   C3A16807   8.596   0.157   6.656 -0.0336  0.1982 -0.0270
 1143POPI   C4A16808   8.296  -0.145   6.872 -0.2088  0.2098  0.2394
 1143POPI   C1B16809   9.449   0.021   6.266 -0.1491 -0.2583 -0.2847
 1143POPI   C2B16810   9.325   0.062   6.612 -0.0898  0.0958  0.0214
 1143POPI   C3B16811   9.270   0.184   7.084 -0.2453  0.3052 -0.0167
 1143POPI   C4B16812   9.069   0.256   7.472 -0.2960  0.0606 -0.0682
 1144POPI    C116813  14.958  17.746   6.039 -0.1365  0.1009 -0.0630
 1144POPI    C216814  15.236  17.996   5.894 -0.0475  0.0003 -0.0671
 1144POPI    C316815  15.095  17.699   5.666  0.1673 -0.2215  0.0828
 1144POPI   PO416816  15.058  17.670   6.281 -0.2224  0.0926  0.3329
 1144POPI   GL116817  15.057  17.839   6.799 -0.2790 -0.1637  0.0920
 1144POPI   GL216818  14.724  17.919   6.713 -0.0728  0.0816  0.1792
 1144POPI   C1A16819  14.978  17.744   7.196 -0.0443  0.0132  0.1853
 1144POPI   D2A16820  14.702  17.808   7.345 -0.2351  0.0691  0.0062
 1144POPI   C3A16821  14.612  17.778   7.825  0.1139  0.0184 -0.1112
 1144POPI   C4A16822  14.586  17.807   8.340 -0.0657  0.3004  0.1012
 1144POPI   C1B16823  14.770  18.269   7.003  0.0666 -0.0883  0.1936
 1144POPI   C2B16824  14.746  18.278   7.283  0.2014 -0.2619 -0.0844
 1144POPI   C3B16825  14.722  18.305   7.773  0.1218  0.1007  0.1414
 1144POPI   C4B16826  14.834  18.455   8.129  0.1331 -0.2565 -0.2953
 1145POPI    C116827  14.891  16.938   6.087 -0.1006  0.0602  0.1186
 1145POPI    C216828  14.976  17.283   5.903  0.2316 -0.0472  0.0652
 1145POPI    C316829  14.720  17.278   6.210 -0.1713  0.1655 -0.2572
 1145POPI   PO416830  15.114  16.812   6.055 -0.0464  0.0137  0.0080
 1145POPI   GL116831  15.247  16.650   6.487  0.0832 -0.0945 -0.2683
 1145POPI   GL216832  15.122  16.455   6.656 -0.3991  0.0825  0.0064
 1145POPI   C1A16833  15.530  16.637   6.912 -0.2226 -0.0480  0.2844
 1145POPI   D2A16834  15.705  16.595   7.310 -0.1296  0.1778  0.2907
 1145POPI   C3A16835  15.412  16.669   7.610 -0.2049 -0.0325 -0.1818
 1145POPI   C4A16836  15.467  16.733   8.162  0.3087  0.0197  0.0386
 1145POPI   C1B16837  14.816  16.612   7.005 -0.2121  0.0386 -0.2076
 1145POPI   C2B16838  14.620  16.693   7.450 -0.0340  0.4787  0.1364
 1145POPI   C3B16839  14.452  16.897   7.700  0.0471  0.0902 -0.2730
 1145POPI   C4B16840  14.071  16.963   7.845 -0.0315  0.0883  0.0512
 1146POPI    C116841   0.467   1.229   5.818  0.0533 -0.1613 -0.0754
 1146POPI    C216842   0.372   0.972   6.109 -0.2681  0.0401  0.0017
 1146POPI    C316843   0.755   1.034   6.015 -0.1692 -0.1522  0.2667
 1146POPI   PO416844   0.323   1.493   5.955 -0.1450 -0.0006 -0.1759
 1146POPI   GL116845   0.199   1.546   6.302 -0.1205 -0.1169 -0.3162
 1146POPI   GL216846  -0.044   1.373   6.342 -0.0668  0.1748  0.3090
 1146POPI   C1A16847   0.385   1.355   6.659 -0.0852 -0.1129 -0.2245
 1146POPI   D2A16848   0.443   1.336   7.075 -0.0980 -0.2324 -0.0501
 1146POPI   C3A16849   0.384   1.038   7.374  0.1564 -0.1088 -0.1008
 1146POPI   C4A16850   0.247   0.954   7.870 -0.3595  0.1846  0.1180
 1146POPI   C1B16851  -0.147   1.299   6.785 -0.0634  0.3394 -0.0075
 1146POPI   C2B16852  -0.099   1.350   7.188 -0.0742 -0.0730 -0.0287
 1146POPI   C3B16853   0.124   1.400   7.567 -0.0576  0.0353 -0.0779
 1146POPI   C4B16854  -0.070   1.417   7.945 -0.0550 -0.1532  0.0709
 1147DPPI    C116855   3.673  10.968   5.040 -0.2587  0.0009  0.1555
 1147DPPI    C216856   3.840  10.612   5.110  0.0577  0.1442  0.1468
 1147DPPI    C316857   3.454  10.635   5.008  0.0329 -0.1940  0.1528
 1147DPPI   PO416858   3.769  11.110   5.272 -0.1379 -0.1211  0.1097
 1147DPPI   GL116859   3.936  10.993   5.794 -0.0498  0.1866 -0.0959
 1147DPPI   GL216860   3.704  11.193   5.737  0.0878 -0.0716 -0.2390
 1147DPPI   C1A16861   3.724  11.016   6.280 -0.0925 -0.0078 -0.1229
 1147DPPI   C2A16862   3.752  11.087   6.787 -0.1334  0.2499 -0.1672
 1147DPPI   C3A16863   3.665  11.033   7.242 -0.1002 -0.1424  0.0407
 1147DPPI   C4A16864   3.730  11.019   7.573 -0.0819  0.1449 -0.2063
 1147DPPI   C1B16865   3.363  11.380   6.046 -0.3071  0.0786 -0.0233
 1147DPPI   C2B16866   3.194  11.302   6.441  0.0272 -0.2102 -0.0821
 1147DPPI   C3B16867   3.261  11.314   6.945 -0.3244  0.2193 -0.0099
 1147DPPI   C4B16868   3.234  11.333   7.377 -0.0361 -0.2838 -0.0098
 1148DPPI    C116869   8.173   9.418   5.455 -0.1118 -0.4660  0.0279
 1148DPPI    C216870   8.429   9.113   5.497  0.0622 -0.3200  0.0381
 1148DPPI    C316871   8.503   9.401   5.230  0.0030 -0.1806  0.1705
 1148DPPI   PO416872   8.161   9.504   5.705  0.0159 -0.1655 -0.2525
 1148DPPI   GL116873   8.300   9.584   5.971  0.2775  0.3122  0.4327
 1148DPPI   GL216874   8.558   9.672   6.116  0.0452 -0.3423 -0.1414
 1148DPPI   C1A16875   8.131   9.811   6.401 -0.1569 -0.0564  0.1091
 1148DPPI   C2A16876   8.022   9.784   6.681 -0.1354 -0.1414  0.1713
 1148DPPI   C3A16877   7.933   9.792   7.169  0.1798  0.0760 -0.1489
 1148DPPI   C4A16878   7.844   9.702   7.559 -0.3159 -0.2700 -0.0390
 1148DPPI   C1B16879   8.495   9.484   6.483  0.1850 -0.1043 -0.0041
 1148DPPI   C2B16880   8.281   9.361   6.720  0.3475  0.1438 -0.0147
 1148DPPI   C3B16881   8.221   9.411   7.078  0.2532  0.0690  0.0518
 1148DPPI   C4B16882   8.147   9.325   7.426  0.3526  0.0976  0.1303
 1149DPPI    C116883  16.931   6.737   5.366  0.2393  0.1930  0.0543
 1149DPPI    C216884  17.259   6.601   5.182  0.1535 -0.0070  0.0467
 1149DPPI    C316885  16.977   6.791   4.972  0.1794  0.0022  0.0202
 1149DPPI   PO416886  16.876   6.455   5.520  0.1615 -0.0970 -0.1822
 1149DPPI   GL116887  16.976   6.375   6.026  0.1452 -0.0340  0.4712
 1149DPPI   GL216888  17.240   6.517   6.236  0.0831 -0.0795 -0.0482
 1149DPPI   C1A16889  16.755   6.408   6.415 -0.3318 -0.3000 -0.1092
 1149DPPI   C2A16890  16.886   6.410   6.714  0.3250  0.0914 -0.0586
 1149DPPI   C3A16891  16.952   6.239   7.162 -0.0428 -0.3019 -0.2652
 1149DPPI   C4A16892  16.871   5.970   7.525  0.2086  0.0972 -0.1416
 1149DPPI   C1B16893  17.146   6.862   6.622 -0.3701  0.0472 -0.0704
 1149DPPI   C2B16894  17.239   7.102   6.957  0.0493 -0.2492 -0.0658
 1149DPPI   C3B16895  17.142   7.196   7.353 -0.0548  0.0893  0.2718
 1149DPPI   C4B16896  17.021   7.312   7.851 -0.3305  0.1610  0.0177
 1150DPPI    C116897   9.705   4.592   5.552  0.1232 -0.1794 -0.2043
 1150DPPI    C216898   9.525   4.799   5.260 -0.1390 -0.0855  0.0190
 1150DPPI    C316899   9.892   4.902   5.381 -0.2141  0.1671  0.0371
 1150DPPI   PO416900   9.484   4.579   5.722  0.4007 -0.1643 -0.3291
 1150DPPI   GL116901   9.402   4.757   6.097  0.2340 -0.0625 -0.0284
 1150DPPI   GL216902   9.271   4.538   6.310  0.1949 -0.1892  0.0622
 1150DPPI   C1A16903   9.546   4.843   6.623  0.1249 -0.1293  0.4099
 1150DPPI   C2A16904   9.716   4.843   7.046  0.1419  0.0442 -0.0557
 1150DPPI   C3A16905   9.777   4.885   7.451  0.1221 -0.0071 -0.2923
 1150DPPI   C4A16906   9.915   4.793   7.966  0.2957 -0.3537 -0.1342
 1150DPPI   C1B16907   9.072   4.608   6.673  0.0923 -0.0447 -0.3090
 1150DPPI   C2B16908   9.191   4.698   7.042 -0.0304  0.2909  0.2461
 1150DPPI   C3B16909   9.255   4.664   7.474 -0.1066 -0.2267  0.1533
 1150DPPI   C4B16910   9.246   4.672   7.925 -0.2199 -0.0143  0.1856
 1151DPPI    C116911   1.085   8.895   5.279 -0.0204 -0.1649 -0.0603
 1151DPPI    C216912   1.261   9.037   4.949  0.0990 -0.0271  0.0613
 1151DPPI    C316913   0.896   8.875   4.927  0.2100 -0.2517 -0.1813
 1151DPPI   PO416914   1.175   9.278   5.439 -0.2323  0.0832 -0.1299
 1151DPPI   GL116915   1.501   9.270   5.778 -0.0336  0.0881 -0.0602
 1151DPPI   GL216916   1.566   9.534   5.872  0.0140 -0.1282  0.1821
 1151DPPI   C1A16917   1.449   9.187   6.207 -0.1167  0.0497  0.1178
 1151DPPI   C2A16918   1.399   9.206   6.657  0.0719  0.1535  0.0847
 1151DPPI   C3A16919   1.349   9.374   7.023  0.1138 -0.3634 -0.1636
 1151DPPI   C4A16920   1.391   9.437   7.458 -0.1059  0.0826 -0.0907
 1151DPPI   C1B16921   1.357   9.683   6.210 -0.0022 -0.0589  0.1108
 1151DPPI   C2B16922   1.336   9.767   6.662 -0.1487  0.0013  0.0944
 1151DPPI   C3B16923   1.544   9.804   7.038  0.0451  0.1796  0.1299
 1151DPPI   C4B16924   1.354   9.888   7.285 -0.0870  0.0930 -0.0621
 1152DPPI    C116925   4.140  17.436   6.089  0.1594 -0.1318 -0.0348
 1152DPPI    C216926   4.348  17.486   5.751  0.0919  0.1124 -0.0423
 1152DPPI    C316927   4.514  17.298   6.062  0.2172  0.0428 -0.1502
 1152DPPI   PO416928   3.869  17.450   5.984  0.3574  0.1457  0.0325
 1152DPPI   GL116929   3.664  17.361   6.326 -0.0826 -0.0388  0.2945
 1152DPPI   GL216930   3.861  17.632   6.413 -0.2939  0.2171 -0.0996
 1152DPPI   C1A16931   3.521  17.227   6.647 -0.0217  0.1396  0.1154
 1152DPPI   C2A16932   3.487  17.017   7.006 -0.1947 -0.3311 -0.0153
 1152DPPI   C3A16933   3.412  17.089   7.429 -0.0993  0.2057  0.0118
 1152DPPI   C4A16934   3.252  17.131   7.791 -0.4031  0.1159 -0.2435
 1152DPPI   C1B16935   3.798  17.560   6.889  0.0820 -0.3083  0.0608
 1152DPPI   C2B16936   3.780  17.429   7.245 -0.1239 -0.2690  0.0826
 1152DPPI   C3B16937   3.643  17.491   7.605 -0.3550 -0.1122  0.3860
 1152DPPI   C4B16938   3.603  17.394   7.980 -0.1315 -0.1481 -0.0243
 1153DPPI    C116939  11.661   6.257   5.700 -0.1304 -0.0803  0.0208
 1153DPPI    C216940  11.348   6.416   5.508  0.0415 -0.0197 -0.2140
 1153DPPI    C316941  11.687   6.624   5.543  0.0200 -0.0380  0.1424
 1153DPPI   PO416942  11.638   6.220   5.937 -0.0484 -0.1459 -0.1502
 1153DPPI   GL116943  11.537   6.206   6.367 -0.0767  0.1042  0.2826
 1153DPPI   GL216944  11.243   6.285   6.464 -0.2108  0.1390 -0.1836
 1153DPPI   C1A16945  11.629   6.273   6.836  0.0609 -0.0670 -0.0947
 1153DPPI   C2A16946  11.649   6.308   7.312  0.0690  0.1686 -0.1161
 1153DPPI   C3A16947  11.828   6.249   7.678 -0.0783  0.1464  0.2031
 1153DPPI   C4A16948  11.617   6.319   8.044 -0.2261 -0.1155 -0.1038
 1153DPPI   C1B16949  11.103   6.135   6.890  0.2989 -0.2649 -0.1832
 1153DPPI   C2B16950  11.232   6.017   7.359 -0.1460 -0.0078  0.4659
 1153DPPI   C3B16951  11.236   5.704   7.568 -0.2902 -0.1027 -0.1993
 1153DPPI   C4B16952  11.269   5.457   7.855  0.4622  0.2327  0.0681
 1154DPPI    C116953  15.234   1.211   5.939  0.0066  0.0815  0.2055
 1154DPPI    C216954  15.290   1.592   5.829  0.0064  0.0329  0.0353
 1154DPPI    C316955  15.599   1.374   5.958  0.1249 -0.0857 -0.4313
 1154DPPI   PO416956  15.021   1.293   6.052  0.1884  0.0758 -0.2628
 1154DPPI   GL116957  15.188   1.473   6.383  0.3028  0.1759 -0.1049
 1154DPPI   GL216958  15.360   1.657   6.341 -0.1424  0.1777 -0.1909
 1154DPPI   C1A16959  15.135   1.486   6.773 -0.2412 -0.1591  0.0270
 1154DPPI   C2A16960  15.141   1.491   7.201 -0.0572  0.2657 -0.1272
 1154DPPI   C3A16961  15.097   1.734   7.499  0.1208  0.0868 -0.1920
 1154DPPI   C4A16962  15.128   1.690   7.890 -0.0865  0.2000 -0.1212
 1154DPPI   C1B16963  15.431   1.907   6.765 -0.0849 -0.1612  0.1343
 1154DPPI   C2B16964  15.523   2.014   7.178  0.1338  0.1813 -0.0276
 1154DPPI   C3B16965  15.514   1.993   7.585 -0.0417 -0.0783 -0.2805
 1154DPPI   C4B16966  15.727   1.937   8.024  0.0387 -0.2841  0.0570
 1155DPPI    C116967   1.874  14.258   5.202 -0.0915 -0.3103  0.2057
 1155DPPI    C216968   1.683  13.907   5.215 -0.0898 -0.3231 -0.0632
 1155DPPI    C316969   1.787  14.065   4.863 -0.0806 -0.0572  0.0565
 1155DPPI   PO416970   2.014  14.271   5.456  0.2506  0.2482 -0.3520
 1155DPPI   GL116971   1.930  14.288   5.934  0.3238 -0.3075 -0.2234
 1155DPPI   GL216972   2.187  14.280   5.913 -0.2037  0.2530  0.1316
 1155DPPI   C1A16973   2.056  14.247   6.411  0.1710  0.2204  0.2259
 1155DPPI   C2A16974   2.067  14.363   6.774  0.1731  0.2733 -0.3783
 1155DPPI   C3A16975   1.931  14.294   7.200  0.0085 -0.4276  0.0633
 1155DPPI   C4A16976   1.845  14.434   7.678  0.4080 -0.0028 -0.1914
 1155DPPI   C1B16977   2.129  14.669   6.126 -0.0801 -0.4242  0.0270
 1155DPPI   C2B16978   1.976  14.735   6.447  0.0036 -0.2774 -0.2259
 1155DPPI   C3B16979   2.050  14.874   6.888  0.2370  0.0780  0.1102
 1155DPPI   C4B16980   1.870  14.826   7.357  0.0319  0.0352  0.1760
 1156DPPI    C116981   4.027   0.767   6.116  0.0695  0.0158 -0.1450
 1156DPPI    C216982   4.134   0.843   5.738 -0.1478  0.0462 -0.2018
 1156DPPI    C316983   3.788   0.985   5.881 -0.1039 -0.0315 -0.0148
 1156DPPI   PO416984   4.176   0.863   6.265  0.1108 -0.0195  0.3308
 1156DPPI   GL116985   4.317   0.825   6.675  0.1197  0.0815 -0.0427
 1156DPPI   GL216986   4.616   0.805   6.441 -0.0723  0.1610 -0.2431
 1156DPPI   C1A16987   4.236   0.910   7.066  0.3611 -0.0123 -0.0372
 1156DPPI   C2A16988   4.339   0.738   7.412 -0.0062  0.4903  0.0747
 1156DPPI   C3A16989   4.382   0.372   7.752  0.0182  0.0924  0.1885
 1156DPPI   C4A16990   4.481   0.090   8.004  0.2045 -0.0053  0.0160
 1156DPPI   C1B16991   4.740   0.672   6.844 -0.0411  0.1737 -0.3376
 1156DPPI   C2B16992   5.057   0.412   6.990  0.0128 -0.0235  0.1364
 1156DPPI   C3B16993   5.219   0.493   7.392 -0.1509 -0.1566 -0.0514
 1156DPPI   C4B16994   5.196   0.672   7.765  0.0112  0.3477 -0.2453
 1157DPPI    C116995  15.699   5.416   5.700  0.0991 -0.3021 -0.0925
 1157DPPI    C216996  15.510   5.515   5.362 -0.0911 -0.5348 -0.0562
 1157DPPI    C316997  15.905   5.457   5.360  0.0363  0.2304 -0.0762
 1157DPPI   PO416998  15.657   5.610   5.893  0.0033  0.1920 -0.3491
 1157DPPI   GL116999  15.656   6.015   6.310 -0.0625 -0.2141  0.2784
 1157DPPI   GL217000  15.921   6.193   6.480 -0.1132 -0.1709  0.0202
 1157DPPI   C1A17001  15.620   5.966   6.809 -0.1939 -0.0408 -0.1473
 1157DPPI   C2A17002  15.495   5.962   7.217  0.1400 -0.1107 -0.0355
 1157DPPI   C3A17003  15.493   6.233   7.606  0.0571 -0.0090 -0.2048
 1157DPPI   C4A17004  15.733   6.496   7.977  0.0137 -0.0687 -0.1533
 1157DPPI   C1B17005  15.990   6.353   6.854  0.0478 -0.0976 -0.2745
 1157DPPI   C2B17006  15.889   6.287   7.373 -0.1781  0.1399  0.2112
 1157DPPI   C3B17007  15.965   6.189   7.651  0.0051 -0.2244 -0.0386
 1157DPPI   C4B17008  16.233   6.283   8.007  0.2423 -0.3062  0.2180
 1158DPPI    C117009  17.558   7.319   5.451  0.3487 -0.2136  0.2567
 1158DPPI    C217010  17.688   6.990   5.263  0.1093 -0.0026 -0.3014
 1158DPPI    C317011  17.299   7.086   5.254  0.0944  0.0302  0.2962
 1158DPPI   PO417012  17.567   7.289   5.785 -0.1405  0.1404  0.3685
 1158DPPI   GL117013  17.764   7.426   6.183 -0.0733 -0.2330 -0.3065
 1158DPPI   GL217014  18.033   7.268   6.193  0.1353  0.0485  0.3268
 1158DPPI   C1A17015  17.546   7.365   6.606  0.1064  0.0430  0.0799
 1158DPPI   C2A17016  17.517   7.469   7.091 -0.0387  0.2028  0.2908
 1158DPPI   C3A17017  17.439   7.700   7.492  0.2750  0.1969 -0.0979
 1158DPPI   C4A17018  17.348   7.718   7.951 -0.0622  0.0857  0.0280
 1158DPPI   C1B17019  18.121   7.276   6.546  0.0168  0.4217  0.0461
 1158DPPI   C2B17020  18.007   7.369   6.926  0.0776 -0.0328 -0.3253
 1158DPPI   C3B17021  17.946   7.538   7.357  0.0550 -0.0743 -0.0380
 1158DPPI   C4B17022  17.821   7.567   7.748 -0.0039  0.3149 -0.1775
 1159DPPI    C117023   8.465  16.390   5.693 -0.1783  0.1428  0.1656
 1159DPPI    C217024   8.609  16.335   5.324 -0.0699  0.2688  0.1883
 1159DPPI    C317025   8.262  16.526   5.376 -0.0644  0.2882  0.1538
 1159DPPI   PO417026   8.685  16.492   5.883  0.3931 -0.0875 -0.0551
 1159DPPI   GL117027   8.432  16.420   6.286 -0.2257  0.0924  0.2472
 1159DPPI   GL217028   8.653  16.236   6.323 -0.1690 -0.0482  0.1672
 1159DPPI   C1A17029   8.243  16.493   6.667  0.0584 -0.1398 -0.1132
 1159DPPI   C2A17030   8.142  16.655   7.099 -0.1305 -0.1935  0.0980
 1159DPPI   C3A17031   8.177  16.588   7.563 -0.1421 -0.0808 -0.0505
 1159DPPI   C4A17032   8.232  16.542   8.110 -0.0056  0.2140  0.2536
 1159DPPI   C1B17033   8.738  16.192   6.731  0.0230  0.0175  0.0983
 1159DPPI   C2B17034   8.804  16.030   7.106  0.1871 -0.5233  0.0536
 1159DPPI   C3B17035   8.860  16.285   7.475  0.1130 -0.1221  0.1644
 1159DPPI   C4B17036   9.040  16.364   7.928  0.3378  0.0254  0.0494
 1160DPPI    C117037   9.968  11.222   5.729  0.1071  0.0185  0.1713
 1160DPPI    C217038   9.730  10.905   5.781 -0.0412  0.1241  0.1407
 1160DPPI    C317039   9.574  11.273   5.769  0.0550  0.1549 -0.4294
 1160DPPI   PO417040  10.271  11.146   5.932  0.1841  0.0458  0.1472
 1160DPPI   GL117041  10.411  11.363   6.290  0.1469 -0.1040  0.2574
 1160DPPI   GL217042  10.336  11.077   6.468 -0.1081  0.1632  0.0084
 1160DPPI   C1A17043  10.709  11.328   6.594  0.1823  0.3375 -0.0745
 1160DPPI   C2A17044  11.044  11.162   6.830  0.3404  0.1603  0.0851
 1160DPPI   C3A17045  11.229  11.049   7.285 -0.0019 -0.0429 -0.0386
 1160DPPI   C4A17046  11.427  10.760   7.620 -0.4251  0.2153 -0.0733
 1160DPPI   C1B17047  10.292  11.233   6.938  0.4115  0.0601  0.1441
 1160DPPI   C2B17048  10.383  11.455   7.252 -0.1924 -0.1644  0.2258
 1160DPPI   C3B17049  10.229  11.264   7.649  0.0410 -0.1490  0.2634
 1160DPPI   C4B17050  10.000  11.118   7.920 -0.0098 -0.0278 -0.0238
 1161DPPI    C117051   3.584  14.817   5.671 -0.0298 -0.2773 -0.0389
 1161DPPI    C217052   3.982  14.806   5.629 -0.0185 -0.2353  0.0526
 1161DPPI    C317053   3.746  14.827   5.306  0.0642  0.0754  0.0084
 1161DPPI   PO417054   3.475  14.619   5.851  0.1800 -0.1613 -0.1202
 1161DPPI   GL117055   3.512  14.425   6.199  0.1394 -0.2078 -0.1501
 1161DPPI   GL217056   3.457  14.116   6.418 -0.0754 -0.2168  0.0845
 1161DPPI   C1A17057   3.549  14.529   6.615 -0.1895  0.1579  0.1651
 1161DPPI   C2A17058   3.352  14.559   7.015 -0.2064 -0.0529 -0.2451
 1161DPPI   C3A17059   3.237  14.523   7.473  0.1863  0.0744  0.2213
 1161DPPI   C4A17060   3.223  14.675   7.910 -0.3125  0.1561  0.2051
 1161DPPI   C1B17061   3.432  13.921   6.805 -0.0894  0.0272  0.0279
 1161DPPI   C2B17062   3.231  13.980   7.261 -0.0414 -0.0740 -0.1092
 1161DPPI   C3B17063   3.230  14.053   7.619  0.2565  0.2981 -0.0707
 1161DPPI   C4B17064   3.305  14.238   8.058  0.1344 -0.5052  0.1223
 1162DPPI    C117065   9.419   7.470   5.482  0.1935 -0.2500 -0.1229
 1162DPPI    C217066   9.588   7.672   5.181  0.0059 -0.0070 -0.0683
 1162DPPI    C317067   9.211   7.543   5.148  0.0508 -0.1531 -0.0141
 1162DPPI   PO417068   9.451   7.686   5.758 -0.2929 -0.1276 -0.0421
 1162DPPI   GL117069   9.738   7.757   6.070  0.1800 -0.1080 -0.1034
 1162DPPI   GL217070   9.602   7.434   6.254  0.0340  0.0177  0.1379
 1162DPPI   C1A17071   9.707   7.922   6.490 -0.3208  0.0703 -0.0946
 1162DPPI   C2A17072   9.740   7.954   6.996  0.2777 -0.0650  0.1194
 1162DPPI   C3A17073   9.963   7.962   7.269 -0.1678 -0.2125 -0.0676
 1162DPPI   C4A17074  10.075   7.887   7.794  0.4193 -0.0282  0.1594
 1162DPPI   C1B17075   9.636   7.229   6.619  0.0007  0.1336  0.2111
 1162DPPI   C2B17076   9.793   7.145   7.042  0.2251  0.1539 -0.0624
 1162DPPI   C3B17077   9.836   7.041   7.492  0.1689  0.0346  0.2120
 1162DPPI   C4B17078  10.005   6.926   7.792 -0.2099  0.1934 -0.2921
 1163DPPI    C117079  16.696  14.420   5.398 -0.3253 -0.1309  0.0906
 1163DPPI    C217080  16.622  14.207   5.068 -0.1420 -0.2337  0.1149
 1163DPPI    C317081  16.745  14.587   5.038  0.0540 -0.3003  0.0594
 1163DPPI   PO417082  16.863  14.304   5.514  0.1495  0.3402 -0.0699
 1163DPPI   GL117083  16.869  14.445   5.902  0.4036  0.1223  0.1065
 1163DPPI   GL217084  16.829  14.648   6.010 -0.2366 -0.0548  0.2761
 1163DPPI   C1A17085  17.019  14.306   6.286  0.0325 -0.0843  0.4568
 1163DPPI   C2A17086  16.759  14.476   6.644 -0.0344 -0.2069  0.0874
 1163DPPI   C3A17087  16.847  14.627   7.068  0.4071  0.2738  0.2590
 1163DPPI   C4A17088  16.908  14.555   7.470  0.3110 -0.3516  0.0462
 1163DPPI   C1B17089  16.807  14.886   6.369  0.3273 -0.0148  0.2610
 1163DPPI   C2B17090  16.921  15.028   6.779  0.1168 -0.0597  0.1424
 1163DPPI   C3B17091  16.977  15.169   7.119 -0.0019  0.0959 -0.1238
 1163DPPI   C4B17092  17.143  15.113   7.536  0.0889  0.0168  0.2743
 1164DPPI    C117093  16.352  17.264   5.809  0.1083  0.0154 -0.0192
 1164DPPI    C217094  15.981  17.400   5.871  0.0976 -0.0405  0.0412
 1164DPPI    C317095  16.295  17.597   6.022  0.0947  0.0242 -0.0368
 1164DPPI   PO417096  16.317  16.992   5.886 -0.0928  0.3346  0.0875
 1164DPPI   GL117097  16.384  16.778   6.276  0.0906 -0.0258 -0.0032
 1164DPPI   GL217098  16.423  16.355   6.245  0.0030  0.1453  0.1173
 1164DPPI   C1A17099  16.456  16.920   6.645 -0.2505  0.1302  0.2064
 1164DPPI   C2A17100  16.544  16.820   6.983  0.1163 -0.1291  0.1089
 1164DPPI   C3A17101  16.616  16.841   7.372 -0.1222  0.1779 -0.2141
 1164DPPI   C4A17102  16.633  16.430   7.543 -0.2073  0.3716  0.1283
 1164DPPI   C1B17103  16.351  16.432   6.684 -0.2522 -0.1693 -0.1604
 1164DPPI   C2B17104  16.317  16.405   7.099  0.1080 -0.3856  0.1882
 1164DPPI   C3B17105  16.140  16.430   7.430  0.4858  0.0503 -0.0606
 1164DPPI   C4B17106  15.908  16.335   7.801  0.0858  0.2480 -0.2249
 1165DPPI    C117107  14.010  10.641   5.094  0.1392  0.1043  0.0181
 1165DPPI    C217108  14.222  10.908   4.886  0.2997 -0.1297 -0.1234
 1165DPPI    C317109  13.933  10.698   4.706  0.1192  0.0039  0.0070
 1165DPPI   PO417110  14.246  10.480   5.173 -0.2201 -0.0927 -0.2999
 1165DPPI   GL117111  14.139  10.445   5.646 -0.0566  0.1138 -0.3194
 1165DPPI   GL217112  14.487  10.379   5.789  0.1169 -0.0093 -0.1218
 1165DPPI   C1A17113  14.205  10.800   5.931  0.1788 -0.1354  0.2599
 1165DPPI   C2A17114  14.305  10.818   6.317 -0.0161  0.2129  0.0295
 1165DPPI   C3A17115  14.376  10.739   6.790 -0.0858  0.2310 -0.1180
 1165DPPI   C4A17116  14.454  10.624   7.218  0.0964 -0.2332  0.4503
 1165DPPI   C1B17117  14.490  10.333   6.228 -0.1307 -0.1511  0.0758
 1165DPPI   C2B17118  14.738  10.403   6.615  0.0562 -0.1977  0.2211
 1165DPPI   C3B17119  14.896  10.431   7.015 -0.0042 -0.0850 -0.0434
 1165DPPI   C4B17120  14.871  10.502   7.527 -0.0846 -0.2993  0.1193
 1166DPPI    C117121  16.866   7.313   5.596 -0.0334 -0.0579 -0.0128
 1166DPPI    C217122  16.876   7.308   5.196  0.0999  0.2034 -0.0149
 1166DPPI    C317123  16.603   7.092   5.392  0.1917 -0.1227 -0.2387
 1166DPPI   PO417124  17.083   7.207   5.689 -0.0589  0.1589  0.1371
 1166DPPI   GL117125  17.257   7.306   6.172  0.0119  0.1054  0.0812
 1166DPPI   GL217126  17.158   7.069   6.180  0.0787 -0.0161 -0.1428
 1166DPPI   C1A17127  17.030   7.378   6.612 -0.4277  0.0914  0.0892
 1166DPPI   C2A17128  16.957   7.562   7.019 -0.0757 -0.0640  0.0373
 1166DPPI   C3A17129  16.927   7.656   7.355  0.1241  0.1347 -0.0027
 1166DPPI   C4A17130  16.878   7.742   7.684 -0.0376 -0.0101 -0.0397
 1166DPPI   C1B17131  16.765   6.919   6.374 -0.0952 -0.0127 -0.1607
 1166DPPI   C2B17132  16.636   7.098   6.792 -0.1627  0.0670 -0.1983
 1166DPPI   C3B17133  16.582   7.131   7.268  0.0704  0.0115  0.0431
 1166DPPI   C4B17134  16.459   7.152   7.697  0.0503  0.0393 -0.1150
 1167DPPI    C117135   7.200   0.494   5.844 -0.0613  0.0336  0.1637
 1167DPPI    C217136   7.322   0.865   5.758 -0.2986  0.0731 -0.0103
 1167DPPI    C317137   7.323   0.583   5.474 -0.0461 -0.0819  0.1406
 1167DPPI   PO417138   6.980   0.575   6.010 -0.4284  0.0705 -0.0195
 1167DPPI   GL117139   6.831   0.585   6.482  0.2567 -0.1628  0.1110
 1167DPPI   GL217140   6.782   0.900   6.390 -0.2116 -0.3013  0.2478
 1167DPPI   C1A17141   6.754   0.603   6.901  0.3370  0.1533 -0.2148
 1167DPPI   C2A17142   6.881   0.570   7.354  0.2009  0.2364  0.3461
 1167DPPI   C3A17143   6.886   0.718   7.775  0.0970 -0.0085 -0.3768
 1167DPPI   C4A17144   6.700   0.524   8.183  0.0963 -0.0004  0.0497
 1167DPPI   C1B17145   6.985   0.989   6.742  0.2809  0.1022  0.2329
 1167DPPI   C2B17146   7.143   1.058   7.133  0.1190  0.7263 -0.3158
 1167DPPI   C3B17147   7.475   0.944   7.548 -0.2885 -0.1059  0.1847
 1167DPPI   C4B17148   7.726   1.102   7.888  0.3264 -0.1710 -0.0175
 1168DPPI    C117149  11.327  12.496   6.052  0.1122  0.0192 -0.0179
 1168DPPI    C217150  11.426  12.792   5.802  0.1672  0.0934  0.0908
 1168DPPI    C317151  11.350  12.426   5.659 -0.0824  0.2036 -0.0639
 1168DPPI   PO417152  11.261  12.693   6.322  0.1777  0.0617 -0.1511
 1168DPPI   GL117153  11.290  12.529   6.684  0.0380 -0.0869 -0.2108
 1168DPPI   GL217154  11.043  12.518   6.718 -0.4348  0.0150 -0.1147
 1168DPPI   C1A17155  11.586  12.607   7.102 -0.1867  0.0981 -0.0444
 1168DPPI   C2A17156  11.594  12.724   7.476 -0.0986 -0.3934  0.1157
 1168DPPI   C3A17157  11.377  13.048   7.766  0.4206  0.0344 -0.0769
 1168DPPI   C4A17158  11.250  13.262   8.066  0.3517  0.1579  0.1755
 1168DPPI   C1B17159  11.084  12.792   7.153  0.0861  0.3008  0.0530
 1168DPPI   C2B17160  11.000  12.863   7.518  0.3575 -0.1670  0.0550
 1168DPPI   C3B17161  10.901  12.859   7.878 -0.1483  0.1146  0.1875
 1168DPPI   C4B17162  10.779  13.230   8.085  0.2817  0.0929 -0.4220
 1169DPPI    C117163  17.162  15.334   5.450  0.0341 -0.2955 -0.0969
 1169DPPI    C217164  17.305  15.165   5.117  0.1257  0.0179 -0.2199
 1169DPPI    C317165  17.507  15.462   5.295 -0.1605  0.1790 -0.1572
 1169DPPI   PO417166  17.047  15.245   5.656 -0.0800 -0.0507  0.1780
 1169DPPI   GL117167  17.021  15.052   5.960 -0.1670  0.1247  0.0875
 1169DPPI   GL217168  16.981  15.308   6.194 -0.0594 -0.1178  0.0424
 1169DPPI   C1A17169  17.540  15.148   6.114  0.1256 -0.3160 -0.1645
 1169DPPI   C2A17170  17.810  15.116   6.421 -0.0742 -0.2226  0.2019
 1169DPPI   C3A17171  17.977  15.023   6.750 -0.2053  0.2161 -0.3215
 1169DPPI   C4A17172  18.117  14.966   7.130 -0.3197  0.1630  0.0568
 1169DPPI   C1B17173  17.298  15.267   6.535  0.0797 -0.0344  0.1193
 1169DPPI   C2B17174  17.442  15.022   6.841 -0.0945  0.2677  0.0228
 1169DPPI   C3B17175  17.626  15.052   7.177  0.2227  0.3592 -0.0828
 1169DPPI   C4B17176  17.625  15.101   7.647  0.2624 -0.0166 -0.1487
 1170DPPI    C117177   4.686  14.210   5.972 -0.1111  0.0502 -0.0426
 1170DPPI    C217178   4.853  14.458   5.707 -0.1083  0.0483 -0.0427
 1170DPPI    C317179   4.774  14.079   5.604  0.1091 -0.0192  0.0329
 1170DPPI   PO417180   4.909  14.149   6.152  0.0329  0.3321 -0.0010
 1170DPPI   GL117181   5.153  14.201   6.444 -0.0668  0.0758 -0.0758
 1170DPPI   GL217182   4.987  14.446   6.708 -0.0240  0.2082 -0.1044
 1170DPPI   C1A17183   5.315  13.880   6.815 -0.1169 -0.1955 -0.1883
 1170DPPI   C2A17184   5.410  13.896   7.288  0.1104 -0.2496  0.0791
 1170DPPI   C3A17185   5.502  13.996   7.685 -0.1150  0.0077  0.0289
 1170DPPI   C4A17186   5.326  14.076   8.101 -0.1790 -0.0251  0.2945
 1170DPPI   C1B17187   4.941  14.631   6.976  0.3015 -0.1697 -0.2934
 1170DPPI   C2B17188   4.940  14.632   7.438  0.2252 -0.0456  0.3656
 1170DPPI   C3B17189   4.820  14.583   7.875 -0.0057  0.2212 -0.0012
 1170DPPI   C4B17190   4.865  14.304   8.257 -0.3393 -0.0164 -0.3692
 1171DPPI    C117191   8.399   6.082   5.524  0.0498 -0.0887  0.1112
 1171DPPI    C217192   8.680   6.265   5.305  0.0438 -0.0052  0.1728
 1171DPPI    C317193   8.300   6.262   5.181  0.0346  0.0706  0.1983
 1171DPPI   PO417194   8.487   6.124   5.869  0.0573  0.1392  0.1371
 1171DPPI   GL117195   8.427   5.907   6.219  0.2211  0.1280 -0.1322
 1171DPPI   GL217196   8.370   6.175   6.331  0.0271  0.1832 -0.2972
 1171DPPI   C1A17197   8.476   5.791   6.720  0.0182 -0.3015  0.1315
 1171DPPI   C2A17198   8.590   5.767   7.217  0.1658 -0.0848  0.0173
 1171DPPI   C3A17199   8.532   5.716   7.600  0.2489  0.0933 -0.1078
 1171DPPI   C4A17200   8.512   5.770   8.049  0.3930  0.0887  0.1707
 1171DPPI   C1B17201   8.426   6.260   6.743 -0.3814 -0.0313 -0.1373
 1171DPPI   C2B17202   8.488   6.288   7.110  0.2083 -0.1605  0.0018
 1171DPPI   C3B17203   8.518   6.206   7.468  0.1005  0.1011  0.0188
 1171DPPI   C4B17204   8.541   6.250   7.934 -0.2471  0.0908  0.1208
 1172DPPI    C117205   7.092   3.360   5.694  0.1960 -0.1706  0.1531
 1172DPPI    C217206   7.373   3.606   5.551  0.0898 -0.1517 -0.0269
 1172DPPI    C317207   7.407   3.212   5.497  0.0738 -0.1482 -0.0624
 1172DPPI   PO417208   7.059   3.442   5.977 -0.1266  0.0295  0.2261
 1172DPPI   GL117209   6.863   3.822   6.254  0.0762  0.0788  0.0664
 1172DPPI   GL217210   6.565   3.753   6.470  0.1858  0.1168 -0.0342
 1172DPPI   C1A17211   7.053   3.821   6.712 -0.1632  0.0772  0.1794
 1172DPPI   C2A17212   7.116   3.818   7.123 -0.0632 -0.2051 -0.1444
 1172DPPI   C3A17213   7.130   3.774   7.650 -0.1287 -0.1094  0.0363
 1172DPPI   C4A17214   7.025   3.923   7.999 -0.0503 -0.0204  0.1367
 1172DPPI   C1B17215   6.564   3.715   6.822 -0.1374  0.1594  0.0897
 1172DPPI   C2B17216   6.700   3.631   7.272 -0.0416 -0.0325 -0.0661
 1172DPPI   C3B17217   6.639   3.630   7.735  0.0433 -0.0141 -0.0821
 1172DPPI   C4B17218   6.871   3.392   8.031  0.0122  0.0448  0.5577
 1173DPPI    C117219   0.553   9.826   4.986  0.0997  0.0783 -0.0917
 1173DPPI    C217220   0.622   9.537   4.719 -0.0521 -0.0262 -0.0194
 1173DPPI    C317221   0.284   9.750   4.700 -0.1965 -0.2244  0.2564
 1173DPPI   PO417222   0.606   9.686   5.246  0.0738 -0.1262  0.0914
 1173DPPI   GL117223   0.519   9.857   5.661  0.3412  0.0463 -0.1320
 1173DPPI   GL217224   0.444  10.147   5.826 -0.0095 -0.1974 -0.0774
 1173DPPI   C1A17225   0.811   9.835   6.014  0.0493  0.0967  0.0814
 1173DPPI   C2A17226   0.934   9.926   6.423  0.1266  0.3089  0.0733
 1173DPPI   C3A17227   0.974  10.000   6.935 -0.1615  0.4389 -0.1665
 1173DPPI   C4A17228   0.839  10.006   7.362 -0.1749 -0.0229 -0.1813
 1173DPPI   C1B17229   0.534  10.170   6.251 -0.1288 -0.2192  0.0427
 1173DPPI   C2B17230   0.455  10.366   6.688 -0.2295  0.0407 -0.1685
 1173DPPI   C3B17231   0.553  10.286   7.080 -0.0102  0.1945 -0.0211
 1173DPPI   C4B17232   0.376  10.179   7.506  0.1236 -0.1473 -0.1340
 1174DPPI    C117233   9.408  10.588   5.988  0.1697  0.1397  0.1854
 1174DPPI    C217234   9.278  10.215   5.925  0.0488  0.1550  0.3379
 1174DPPI    C317235   9.410  10.436   5.619  0.0946 -0.0028  0.2430
 1174DPPI   PO417236   9.578  10.576   6.115 -0.4034 -0.1001  0.0458
 1174DPPI   GL117237   9.587  10.632   6.556  0.2965 -0.0307 -0.2444
 1174DPPI   GL217238   9.352  10.375   6.502  0.0623  0.0289 -0.0442
 1174DPPI   C1A17239   9.348  10.769   6.822 -0.2380 -0.3044  0.0165
 1174DPPI   C2A17240   9.367  10.900   7.222  0.4781 -0.2030 -0.3500
 1174DPPI   C3A17241   9.263  10.930   7.641 -0.3033 -0.2228  0.3288
 1174DPPI   C4A17242   9.341  11.014   8.009  0.1783  0.0803 -0.0308
 1174DPPI   C1B17243   9.470  10.318   6.898 -0.0944  0.3224  0.1768
 1174DPPI   C2B17244   9.754  10.063   7.164 -0.0475 -0.3321  0.0944
 1174DPPI   C3B17245  10.168  10.098   7.284  0.1780  0.4376 -0.2794
 1174DPPI   C4B17246  10.509  10.218   7.528  0.0724 -0.4600 -0.0369
 1175DPPI    C117247   1.612   4.284   5.534  0.3702 -0.1316  0.1757
 1175DPPI    C217248   1.727   4.646   5.407  0.0220 -0.1180 -0.1176
 1175DPPI    C317249   1.402   4.473   5.250  0.0628 -0.4688  0.1716
 1175DPPI   PO417250   1.649   4.392   5.816  0.0590  0.2781  0.0130
 1175DPPI   GL117251   1.689   4.019   6.043  0.1843  0.0071  0.0120
 1175DPPI   GL217252   1.851   3.769   6.108  0.2337  0.0330 -0.1220
 1175DPPI   C1A17253   1.697   4.188   6.377 -0.0636  0.1601  0.0595
 1175DPPI   C2A17254   1.713   4.260   6.769 -0.0661 -0.3291 -0.1315
 1175DPPI   C3A17255   1.835   4.147   7.197  0.0139 -0.0330 -0.1365
 1175DPPI   C4A17256   1.724   4.325   7.617  0.0446 -0.1133  0.3064
 1175DPPI   C1B17257   1.938   3.830   6.526 -0.1749 -0.0819  0.0437
 1175DPPI   C2B17258   2.114   3.910   6.901  0.1096  0.1147 -0.0644
 1175DPPI   C3B17259   2.216   3.807   7.340 -0.1731 -0.0469  0.4296
 1175DPPI   C4B17260   2.132   3.977   7.668 -0.1826 -0.1322 -0.1023
 1176DPPI    C117261  13.390   0.420   5.772  0.0544 -0.2905  0.0965
 1176DPPI    C217262  13.733   0.455   5.568  0.0548 -0.2034  0.1120
 1176DPPI    C317263  13.398   0.623   5.427  0.0729 -0.0708  0.2245
 1176DPPI   PO417264  13.508   0.414   6.061 -0.2518  0.3452 -0.1619
 1176DPPI   GL117265  13.510   0.605   6.478  0.4222 -0.0499  0.2554
 1176DPPI   GL217266  13.635   0.724   6.713 -0.3152 -0.0998 -0.1232
 1176DPPI   C1A17267  13.511   0.243   6.925  0.1130 -0.2520 -0.1495
 1176DPPI   C2A17268  13.724   0.107   7.362 -0.1105 -0.3238 -0.0765
 1176DPPI   C3A17269  13.920  -0.071   7.729  0.2142  0.2285  0.1919
 1176DPPI   C4A17270  13.970  -0.089   8.210 -0.1465 -0.0442 -0.2851
 1176DPPI   C1B17271  13.524   0.761   7.104 -0.0749  0.1768  0.1448
 1176DPPI   C2B17272  13.581   0.618   7.425 -0.3176  0.0044  0.1311
 1176DPPI   C3B17273  13.303   0.540   7.834  0.0224  0.2749  0.1102
 1176DPPI   C4B17274  13.130   0.429   8.252 -0.2487 -0.1627  0.0561
 1177DPPI    C117275  11.967   2.488   5.178 -0.1117 -0.1119  0.0649
 1177DPPI    C217276  12.228   2.206   5.287 -0.1375 -0.2044 -0.1103
 1177DPPI    C317277  12.040   2.180   4.935 -0.1995 -0.0098 -0.0927
 1177DPPI   PO417278  11.929   2.653   5.408  0.0631  0.0093 -0.1599
 1177DPPI   GL117279  12.010   2.807   5.834  0.4080  0.1890  0.1067
 1177DPPI   GL217280  12.151   3.121   6.075 -0.2842  0.2140 -0.3237
 1177DPPI   C1A17281  12.230   2.579   6.184  0.0392  0.2089 -0.2177
 1177DPPI   C2A17282  12.215   2.474   6.638 -0.3144  0.1483  0.1612
 1177DPPI   C3A17283  12.242   2.523   7.087  0.2352  0.0259 -0.2279
 1177DPPI   C4A17284  12.304   2.400   7.507  0.3085 -0.0215 -0.3664
 1177DPPI   C1B17285  12.144   3.273   6.436  0.1295  0.2255 -0.2607
 1177DPPI   C2B17286  12.037   3.423   6.763 -0.0301  0.2565  0.0870
 1177DPPI   C3B17287  11.902   3.457   7.217  0.0886  0.1413 -0.1289
 1177DPPI   C4B17288  11.429   3.605   7.341 -0.2544  0.2162 -0.2360
 1178DPPI    C117289   4.664   2.221   6.036 -0.1305 -0.0484 -0.0519
 1178DPPI    C217290   4.796   1.882   6.203  0.0441  0.0589  0.0312
 1178DPPI    C317291   4.869   1.957   5.816 -0.0358 -0.0194  0.0007
 1178DPPI   PO417292   4.750   2.416   6.231  0.3482 -0.0010 -0.0017
 1178DPPI   GL117293   4.970   2.163   6.597  0.0327  0.3447  0.3109
 1178DPPI   GL217294   4.620   2.165   6.620 -0.0209 -0.1313  0.0384
 1178DPPI   C1A17295   4.988   2.068   7.034  0.2821  0.1762  0.2415
 1178DPPI   C2A17296   4.966   2.091   7.351 -0.0118  0.3426  0.0998
 1178DPPI   C3A17297   4.997   2.142   7.816  0.0858  0.2064  0.0433
 1178DPPI   C4A17298   5.037   2.448   8.240  0.0842  0.1218  0.2778
 1178DPPI   C1B17299   4.662   2.403   6.953  0.0909  0.0198 -0.1292
 1178DPPI   C2B17300   4.623   2.522   7.398  0.0332 -0.1842  0.3866
 1178DPPI   C3B17301   4.754   2.631   7.860 -0.1432  0.1505  0.1663
 1178DPPI   C4B17302   4.559   2.794   8.342  0.0431  0.3483 -0.1244
 1179DPPI    C117303   8.110   6.932   5.597  0.1174 -0.2689  0.0834
 1179DPPI    C217304   8.118   6.767   5.233  0.1346 -0.1130  0.0124
 1179DPPI    C317305   8.111   7.165   5.272  0.1287 -0.1292  0.1827
 1179DPPI   PO417306   7.975   6.836   5.705  0.2707 -0.0144  0.1228
 1179DPPI   GL117307   7.818   6.773   6.124  0.0057 -0.0184 -0.0822
 1179DPPI   GL217308   7.560   6.807   6.354  0.1288  0.2173  0.1842
 1179DPPI   C1A17309   7.985   6.543   6.453  0.1601  0.2226  0.0703
 1179DPPI   C2A17310   8.056   6.556   6.909 -0.2087  0.4803  0.0923
 1179DPPI   C3A17311   8.001   6.569   7.385 -0.4469 -0.1546  0.1489
 1179DPPI   C4A17312   8.332   6.742   7.757 -0.2043  0.1279  0.2077
 1179DPPI   C1B17313   7.622   6.715   6.816  0.1529  0.1643 -0.0966
 1179DPPI   C2B17314   7.635   6.418   7.099 -0.1036  0.1525 -0.1577
 1179DPPI   C3B17315   7.512   6.285   7.454 -0.2634  0.1504  0.0176
 1179DPPI   C4B17316   7.181   6.072   7.595 -0.0735 -0.1759 -0.0099
 1180DPPI    C117317  17.938  15.184   5.071  0.1197 -0.1320  0.2691
 1180DPPI    C217318  18.300  15.343   5.008  0.2343 -0.4074  0.2185
 1180DPPI    C317319  18.130  15.114   4.727 -0.0276 -0.1939  0.1985
 1180DPPI   PO417320  17.927  15.119   5.360  0.1964 -0.3776 -0.0184
 1180DPPI   GL117321  17.759  15.441   5.711 -0.1830 -0.0488 -0.1878
 1180DPPI   GL217322  17.432  15.525   5.835  0.0669  0.2214  0.0354
 1180DPPI   C1A17323  18.071  15.462   6.116 -0.1999 -0.2189 -0.2076
 1180DPPI   C2A17324  18.249  15.502   6.538 -0.2866 -0.3483 -0.2043
 1180DPPI   C3A17325  18.179  15.421   6.993 -0.0364  0.1407  0.2378
 1180DPPI   C4A17326  18.135  15.510   7.427  0.4950  0.2173 -0.1228
 1180DPPI   C1B17327  17.447  15.635   6.271  0.0359  0.1449  0.0858
 1180DPPI   C2B17328  17.305  15.834   6.638  0.1192 -0.1256  0.0359
 1180DPPI   C3B17329  17.448  16.120   6.959  0.0155  0.1692 -0.1799
 1180DPPI   C4B17330  17.465  16.154   7.442  0.0869  0.0207 -0.3067
 1181DPPI    C117331  16.854   9.792   5.103 -0.0196  0.0294  0.0875
 1181DPPI    C217332  16.938   9.910   4.731  0.0651  0.0808  0.1227
 1181DPPI    C317333  16.996   9.529   4.837 -0.2803 -0.0130 -0.0125
 1181DPPI   PO417334  16.998   9.993   5.278 -0.3115  0.0131  0.1147
 1181DPPI   GL117335  16.945  10.304   5.618 -0.0096  0.1956  0.0447
 1181DPPI   GL217336  16.849  10.619   5.482 -0.1525 -0.0227 -0.1832
 1181DPPI   C1A17337  16.743  10.060   5.994 -0.1975 -0.0129  0.1913
 1181DPPI   C2A17338  16.741   9.985   6.457  0.2297  0.2488  0.3090
 1181DPPI   C3A17339  16.772  10.059   6.880  0.0780 -0.0409 -0.1388
 1181DPPI   C4A17340  16.798  10.044   7.322  0.1484  0.1525 -0.2344
 1181DPPI   C1B17341  16.648  10.662   5.904  0.3735  0.1570  0.1503
 1181DPPI   C2B17342  16.518  10.478   6.239 -0.4012  0.1283 -0.0560
 1181DPPI   C3B17343  16.556  10.556   6.733  0.2642 -0.5746  0.1421
 1181DPPI   C4B17344  16.324  10.659   7.179  0.4079  0.0837  0.1023
 1182DPPI    C117345  15.347   2.725   5.836  0.1284  0.0314 -0.1017
 1182DPPI    C217346  15.600   2.432   5.734  0.0731 -0.0785  0.0727
 1182DPPI    C317347  15.259   2.481   5.531  0.1015 -0.1095  0.0173
 1182DPPI   PO417348  15.469   2.766   6.151  0.0014 -0.2150  0.2009
 1182DPPI   GL117349  15.272   2.698   6.471 -0.2804  0.2354  0.1008
 1182DPPI   GL217350  15.076   2.985   6.517  0.0295 -0.0760 -0.0444
 1182DPPI   C1A17351  15.407   2.446   6.915 -0.1175  0.2511  0.3185
 1182DPPI   C2A17352  15.550   2.484   7.374  0.0515 -0.0518  0.1190
 1182DPPI   C3A17353  15.589   2.453   7.823  0.3317 -0.4161 -0.1913
 1182DPPI   C4A17354  15.642   2.444   8.304  0.3138  0.2035 -0.1212
 1182DPPI   C1B17355  15.071   3.169   6.856 -0.0660  0.1226 -0.2821
 1182DPPI   C2B17356  14.971   3.206   7.369 -0.1223  0.0767 -0.4461
 1182DPPI   C3B17357  15.146   3.311   7.769  0.0408 -0.0083  0.1040
 1182DPPI   C4B17358  15.160   3.095   8.184  0.1978 -0.0970 -0.2930
 1183DPPI    C117359   9.711   5.323   5.540 -0.0163  0.0593  0.1349
 1183DPPI    C217360   9.427   5.101   5.714  0.0741 -0.1241  0.0500
 1183DPPI    C317361   9.357   5.274   5.360 -0.1091  0.2470  0.2614
 1183DPPI   PO417362   9.815   5.440   5.678 -0.1745  0.0977 -0.2645
 1183DPPI   GL117363   9.795   5.556   6.086  0.1355  0.1987  0.0195
 1183DPPI   GL217364   9.732   5.868   6.183  0.4175  0.2057  0.0423
 1183DPPI   C1A17365   9.577   5.339   6.395 -0.2274 -0.0050  0.2266
 1183DPPI   C2A17366   9.235   5.197   6.677 -0.1226  0.2861 -0.1234
 1183DPPI   C3A17367   9.334   5.164   7.131  0.2390  0.0793  0.1762
 1183DPPI   C4A17368   9.334   5.159   7.580 -0.0025  0.1604 -0.0535
 1183DPPI   C1B17369  10.015   5.697   6.497  0.0613  0.1008  0.1892
 1183DPPI   C2B17370   9.760   5.372   6.885  0.1292  0.0425 -0.1237
 1183DPPI   C3B17371   9.812   5.367   7.332  0.0432 -0.1086  0.0302
 1183DPPI   C4B17372   9.921   5.341   7.666  0.5333 -0.0563 -0.2765
 1184DPPI    C117373   2.648  15.967   5.458  0.0896 -0.2622 -0.0661
 1184DPPI    C217374   2.359  15.853   5.206  0.0382 -0.1828 -0.0435
 1184DPPI    C317375   2.742  15.798   5.108  0.0229  0.0151 -0.2214
 1184DPPI   PO417376   2.512  16.098   5.709 -0.0801  0.0236  0.0732
 1184DPPI   GL117377   2.502  16.107   6.144  0.0496  0.0238  0.0567
 1184DPPI   GL217378   2.698  15.823   6.161  0.1725  0.1464 -0.3131
 1184DPPI   C1A17379   2.123  16.006   6.514 -0.1207  0.4877  0.0527
 1184DPPI   C2A17380   2.085  15.904   6.997  0.0149  0.2511 -0.0554
 1184DPPI   C3A17381   1.902  15.881   7.306 -0.3256  0.2029 -0.1626
 1184DPPI   C4A17382   2.056  15.689   7.735  0.1765  0.2650 -0.1616
 1184DPPI   C1B17383   2.554  15.598   6.571  0.0364  0.1343  0.0620
 1184DPPI   C2B17384   2.442  15.531   7.045  0.1639  0.3088 -0.0746
 1184DPPI   C3B17385   2.437  15.638   7.499 -0.4150 -0.0413 -0.2788
 1184DPPI   C4B17386   2.530  15.600   7.871 -0.0432 -0.0784 -0.3876
 1185DPPI    C117387   8.409   1.680   5.187  0.1480 -0.0261  0.0549
 1185DPPI    C217388   8.220   1.743   5.534 -0.1741 -0.3500 -0.0554
 1185DPPI    C317389   8.009   1.704   5.196  0.1388  0.0064 -0.2987
 1185DPPI   PO417390   8.639   1.442   5.302 -0.1292  0.3627  0.1655
 1185DPPI   GL117391   8.710   1.553   5.679 -0.0578  0.1671  0.1540
 1185DPPI   GL217392   8.628   1.365   5.954  0.0440 -0.0823 -0.3307
 1185DPPI   C1A17393   8.956   1.677   6.110 -0.0618 -0.3398  0.0478
 1185DPPI   C2A17394   8.995   1.447   6.441 -0.0355  0.1028  0.0881
 1185DPPI   C3A17395   8.925   1.285   6.849  0.1539  0.4621  0.0161
 1185DPPI   C4A17396   8.824   1.028   7.190 -0.2435 -0.0191  0.2048
 1185DPPI   C1B17397   8.435   1.217   6.334 -0.1038 -0.1737  0.1578
 1185DPPI   C2B17398   8.412   1.209   6.764 -0.0760  0.5440  0.0594
 1185DPPI   C3B17399   8.519   1.436   7.165 -0.0180 -0.0086 -0.3694
 1185DPPI   C4B17400   8.910   1.361   7.544 -0.4341  0.0435 -0.4721
 1186DPPI    C117401   8.631  11.861   5.769 -0.1579  0.0554 -0.2322
 1186DPPI    C217402   8.545  12.251   5.756  0.1041  0.1243  0.0072
 1186DPPI    C317403   8.798  12.094   5.490  0.1241  0.1498  0.0112
 1186DPPI   PO417404   8.649  11.812   6.031 -0.1122 -0.0818  0.2916
 1186DPPI   GL117405   8.779  11.890   6.425 -0.2714  0.0704 -0.0596
 1186DPPI   GL217406   9.113  11.914   6.411 -0.0566 -0.0816  0.2852
 1186DPPI   C1A17407   8.592  11.766   6.742 -0.1992  0.1761  0.0005
 1186DPPI   C2A17408   8.731  11.472   6.982  0.1635  0.1201 -0.1101
 1186DPPI   C3A17409   8.558  11.250   7.315 -0.2404 -0.0581 -0.1216
 1186DPPI   C4A17410   8.390  11.025   7.771 -0.0166 -0.1086  0.2849
 1186DPPI   C1B17411   9.236  11.787   6.810 -0.0426  0.2462 -0.1951
 1186DPPI   C2B17412   9.528  11.790   7.139  0.1301  0.0400  0.0005
 1186DPPI   C3B17413   9.539  11.796   7.598  0.0428 -0.3061  0.1107
 1186DPPI   C4B17414   9.142  11.853   7.799  0.0127  0.0690 -0.1020
 1187PYPI    C117415   6.682  15.597   5.501 -0.0714  0.1787 -0.0515
 1187PYPI    C217416   6.356  15.754   5.331 -0.0031  0.2047 -0.1597
 1187PYPI    C317417   6.708  15.770   5.141  0.0081 -0.0657 -0.1654
 1187PYPI   PO417418   6.643  15.646   5.768 -0.0210 -0.3108 -0.0123
 1187PYPI   GL117419   6.812  15.516   6.192  0.2358  0.1736  0.1940
 1187PYPI   GL217420   6.984  15.295   6.254  0.1198  0.0938  0.0210
 1187PYPI   C1A17421   6.883  15.772   6.501 -0.1094  0.2309  0.0492
 1187PYPI   C2A17422   6.633  16.105   6.530 -0.0185  0.0841  0.0818
 1187PYPI   D3A17423   6.327  16.259   6.853 -0.1113  0.1361  0.1646
 1187PYPI   C4A17424   6.055  16.654   6.923  0.3217  0.5108  0.1651
 1187PYPI   C1B17425   7.263  15.342   6.636 -0.2631 -0.0356  0.2500
 1187PYPI   C2B17426   7.401  15.482   6.978  0.2947 -0.1033 -0.0076
 1187PYPI   C3B17427   7.455  15.731   7.318  0.0507 -0.0344 -0.4065
 1187PYPI   C4B17428   7.474  15.791   7.754 -0.1623 -0.1894  0.1825
 1188PYPI    C117429  11.645   3.762   5.495  0.2036 -0.1736  0.1390
 1188PYPI    C217430  12.037   3.791   5.421  0.1626 -0.2235 -0.1048
 1188PYPI    C317431  11.774   3.973   5.180  0.0373 -0.1434  0.0903
 1188PYPI   PO417432  11.495   3.858   5.747  0.1328 -0.3545 -0.1595
 1188PYPI   GL117433  11.359   3.618   6.034  0.1873  0.1820  0.3926
 1188PYPI   GL217434  11.631   3.419   6.194 -0.2671  0.0872 -0.2433
 1188PYPI   C1A17435  11.231   3.591   6.462 -0.1289 -0.0692 -0.1078
 1188PYPI   C2A17436  11.287   3.675   6.795 -0.0315 -0.0027 -0.0047
 1188PYPI   D3A17437  10.920   3.684   7.083  0.4127 -0.0563  0.1518
 1188PYPI   C4A17438  10.933   3.643   7.456  0.1137 -0.1376 -0.1538
 1188PYPI   C1B17439  11.633   3.271   6.524 -0.2436 -0.1377  0.1192
 1188PYPI   C2B17440  11.535   3.190   6.813  0.3525  0.0132 -0.1819
 1188PYPI   C3B17441  11.597   3.033   7.211  0.2760 -0.2936  0.4160
 1188PYPI   C4B17442  11.582   3.093   7.676  0.0415 -0.1628  0.0274
 1189PYPI    C117443  17.208   4.197   5.951 -0.0717  0.1405 -0.0549
 1189PYPI    C217444  16.855   4.083   6.100  0.0058 -0.0782 -0.0341
 1189PYPI    C317445  16.878   4.223   5.726 -0.0809 -0.2017 -0.0862
 1189PYPI   PO417446  17.318   4.296   6.180 -0.2712 -0.0891 -0.0883
 1189PYPI   GL117447  17.586   4.481   6.454 -0.0454 -0.0903  0.2769
 1189PYPI   GL217448  17.759   4.730   6.404 -0.2836 -0.0663  0.0563
 1189PYPI   C1A17449  17.590   4.658   6.876 -0.1168  0.2543 -0.4785
 1189PYPI   C2A17450  17.587   4.665   7.314 -0.2089 -0.1037  0.0311
 1189PYPI   D3A17451  17.575   4.729   7.679  0.0155  0.0721 -0.4357
 1189PYPI   C4A17452  17.466   4.417   8.032  0.0459  0.0364  0.0026
 1189PYPI   C1B17453  18.018   4.906   6.709 -0.0419  0.1174  0.0544
 1189PYPI   C2B17454  18.022   4.886   7.066 -0.1754  0.0870  0.1315
 1189PYPI   C3B17455  18.024   4.920   7.502  0.1175 -0.1541 -0.0196
 1189PYPI   C4B17456  18.019   5.090   7.927  0.0483  0.0053  0.0701
 1190PYPI    C117457   9.444   8.570   5.600  0.2304  0.0127 -0.1865
 1190PYPI    C217458   9.785   8.659   5.412  0.1826  0.0076 -0.2763
 1190PYPI    C317459   9.455   8.580   5.201  0.0205  0.4198 -0.1874
 1190PYPI   PO417460   9.509   8.347   5.819 -0.2013 -0.2745  0.3974
 1190PYPI   GL117461   9.366   8.132   6.115  0.0743 -0.1608  0.2001
 1190PYPI   GL217462   9.071   8.236   6.293  0.0969  0.0971 -0.3178
 1190PYPI   C1A17463   9.243   7.801   6.362 -0.1709 -0.2118 -0.2382
 1190PYPI   C2A17464   9.189   7.519   6.647  0.0504 -0.1540 -0.1554
 1190PYPI   D3A17465   9.431   7.428   7.105  0.2673  0.3957  0.1381
 1190PYPI   C4A17466   9.403   7.295   7.575 -0.0245  0.0092  0.0926
 1190PYPI   C1B17467   8.865   8.371   6.688  0.1514  0.1941 -0.1793
 1190PYPI   C2B17468   8.857   8.405   7.057 -0.3032  0.3613 -0.0320
 1190PYPI   C3B17469   8.449   8.468   7.333  0.0939 -0.2871  0.0598
 1190PYPI   C4B17470   8.066   8.681   7.531 -0.4685  0.0450 -0.1202
 1191PYPI    C117471   3.448   5.652   5.602  0.0409 -0.1508  0.0518
 1191PYPI    C217472   3.119   5.835   5.737 -0.0160 -0.1322 -0.1103
 1191PYPI    C317473   3.477   6.010   5.777 -0.0568 -0.0351 -0.1641
 1191PYPI   PO417474   3.373   5.409   5.558 -0.1932  0.1744 -0.3268
 1191PYPI   GL117475   3.163   5.229   6.049 -0.2139  0.3087  0.0955
 1191PYPI   GL217476   2.991   5.472   6.272 -0.0242 -0.1324  0.0073
 1191PYPI   C1A17477   3.504   5.198   6.385 -0.0543 -0.0034 -0.1332
 1191PYPI   C2A17478   3.737   5.526   6.620 -0.1445 -0.0039  0.0196
 1191PYPI   D3A17479   3.752   5.978   6.559  0.1637  0.0045 -0.1574
 1191PYPI   C4A17480   3.968   6.211   6.769 -0.0393 -0.0490  0.1906
 1191PYPI   C1B17481   3.228   5.417   6.700 -0.1472 -0.0521 -0.3954
 1191PYPI   C2B17482   3.246   5.734   7.100 -0.0586 -0.0843  0.1281
 1191PYPI   C3B17483   3.155   5.849   7.583 -0.1904 -0.0884  0.2665
 1191PYPI   C4B17484   3.126   5.882   8.104  0.4749 -0.0755  0.1158
 1192PYPI    C117485   4.324   2.464   5.608  0.1301  0.1497 -0.0992
 1192PYPI    C217486   4.721   2.463   5.558  0.1712  0.0061  0.2045
 1192PYPI    C317487   4.504   2.147   5.443  0.1483  0.0687  0.0738
 1192PYPI   PO417488   4.363   2.720   5.849 -0.1353  0.0723 -0.0688
 1192PYPI   GL117489   4.482   2.863   6.327  0.1152  0.2607  0.1514
 1192PYPI   GL217490   4.430   2.611   6.552  0.0238 -0.3658 -0.3715
 1192PYPI   C1A17491   4.448   3.346   6.467  0.1925  0.2870  0.1499
 1192PYPI   C2A17492   4.432   3.509   6.884 -0.3029 -0.0394 -0.2391
 1192PYPI   D3A17493   4.562   3.423   7.331 -0.5060 -0.2543  0.2690
 1192PYPI   C4A17494   5.043   3.484   7.318 -0.1167  0.1666  0.0812
 1192PYPI   C1B17495   4.193   2.686   6.811  0.1849  0.0648 -0.1140
 1192PYPI   C2B17496   3.855   2.632   7.175  0.1430  0.0505  0.0846
 1192PYPI   C3B17497   3.673   2.660   7.611  0.1737 -0.0890 -0.1542
 1192PYPI   C4B17498   3.770   2.415   7.973  0.0492 -0.2886 -0.2215
 1193PYPI    C117499   8.245  12.682   5.677 -0.1363 -0.0558  0.0209
 1193PYPI    C217500   7.928  12.816   5.473  0.0042  0.0641 -0.1216
 1193PYPI    C317501   8.295  12.848   5.316  0.0987  0.0221  0.0870
 1193PYPI   PO417502   8.170  12.783   5.969  0.2500 -0.2642 -0.0171
 1193PYPI   GL117503   7.920  12.709   6.286 -0.1304 -0.0578 -0.0174
 1193PYPI   GL217504   8.046  13.018   6.452 -0.0546  0.0934  0.0755
 1193PYPI   C1A17505   8.036  12.514   6.709 -0.0936 -0.1328  0.1888
 1193PYPI   C2A17506   8.194  12.551   7.108 -0.0355 -0.1652 -0.0641
 1193PYPI   D3A17507   8.546  12.691   7.452  0.2136  0.0549 -0.1778
 1193PYPI   C4A17508   8.889  12.548   7.374  0.2268  0.1823  0.1526
 1193PYPI   C1B17509   8.099  12.994   6.835 -0.0975 -0.1396  0.1712
 1193PYPI   C2B17510   8.115  13.066   7.260  0.3104  0.3685  0.1205
 1193PYPI   C3B17511   8.086  13.205   7.608  0.0186 -0.0302  0.0145
 1193PYPI   C4B17512   7.830  13.257   7.902  0.0087  0.0356  0.2200
 1194PYPI    C117513   5.050   0.537   6.236  0.1281 -0.0659 -0.2116
 1194PYPI    C217514   5.324   0.303   6.408 -0.0548 -0.1327 -0.0063
 1194PYPI    C317515   5.178   0.209   6.048 -0.1230 -0.3334  0.0721
 1194PYPI   PO417516   5.134   0.808   6.354 -0.3395  0.0250 -0.0560
 1194PYPI   GL117517   5.175   0.885   6.767 -0.1241  0.1416 -0.5119
 1194PYPI   GL217518   5.425   0.722   6.793  0.0353  0.2187  0.2244
 1194PYPI   C1A17519   5.110   0.899   7.180  0.1739 -0.1808 -0.0840
 1194PYPI   C2A17520   4.850   0.812   7.464  0.0324 -0.1085 -0.0277
 1194PYPI   D3A17521   4.701   0.767   7.778  0.1324  0.0985  0.1350
 1194PYPI   C4A17522   4.797   0.741   8.264  0.1675 -0.2639 -0.2422
 1194PYPI   C1B17523   5.597   0.743   7.185  0.0126 -0.3027  0.0473
 1194PYPI   C2B17524   5.718   0.857   7.559 -0.2453  0.2205  0.1600
 1194PYPI   C3B17525   6.051   1.043   7.873 -0.1104  0.3172 -0.0181
 1194PYPI   C4B17526   6.110   1.303   8.268 -0.1765  0.0578 -0.0084
 1195PYPI    C117527   7.978   7.379   5.880 -0.1756 -0.0724 -0.0650
 1195PYPI    C217528   7.742   7.333   5.561 -0.2962 -0.0720  0.0233
 1195PYPI    C317529   7.975   7.657   5.593 -0.3149 -0.0516 -0.0439
 1195PYPI   PO417530   7.852   7.284   6.145  0.1471  0.0556  0.0679
 1195PYPI   GL117531   7.939   7.117   6.486 -0.2428 -0.0405 -0.1033
 1195PYPI   GL217532   8.254   7.351   6.457  0.1710  0.0237  0.1459
 1195PYPI   C1A17533   7.948   7.081   6.912  0.0777  0.1755 -0.1952
 1195PYPI   C2A17534   8.054   7.071   7.294  0.3740  0.1026  0.2412
 1195PYPI   D3A17535   8.243   7.288   7.622 -0.1551  0.2245  0.1559
 1195PYPI   C4A17536   8.573   7.197   7.868  0.2586 -0.0211  0.3401
 1195PYPI   C1B17537   8.286   7.459   6.827  0.1338 -0.0320  0.0050
 1195PYPI   C2B17538   8.350   7.380   7.056  0.2778  0.0850 -0.3473
 1195PYPI   C3B17539   8.321   7.617   7.318 -0.0712  0.0938  0.3326
 1195PYPI   C4B17540   8.503   7.772   7.711 -0.0972  0.1212 -0.1398
 1196PYPI    C117541  12.394   5.215   5.265  0.0475 -0.3895  0.0934
 1196PYPI    C217542  12.578   4.987   4.993  0.0419 -0.0922 -0.1644
 1196PYPI    C317543  12.249   5.192   4.894 -0.0936 -0.1610  0.1324
 1196PYPI   PO417544  12.452   5.106   5.453 -0.1611 -0.0488  0.1690
 1196PYPI   GL117545  12.403   5.150   5.945  0.0565 -0.1981 -0.0662
 1196PYPI   GL217546  12.182   5.433   6.158 -0.2764  0.1430 -0.1724
 1196PYPI   C1A17547  12.621   5.293   6.298 -0.2201 -0.0799 -0.1693
 1196PYPI   C2A17548  12.739   5.375   6.708 -0.1497  0.1650 -0.2614
 1196PYPI   D3A17549  13.013   5.658   6.890 -0.1845  0.2975  0.1774
 1196PYPI   C4A17550  13.162   5.657   7.327 -0.0743  0.2343 -0.0979
 1196PYPI   C1B17551  12.277   5.603   6.553 -0.0304  0.1066  0.1090
 1196PYPI   C2B17552  12.383   5.573   6.977  0.0682  0.2178 -0.2509
 1196PYPI   C3B17553  12.529   5.623   7.385  0.2281 -0.7000 -0.0068
 1196PYPI   C4B17554  12.694   5.205   7.321  0.0518  0.0902 -0.1818
 1197PYPI    C117555   6.269  10.550   5.736 -0.0518 -0.0922  0.1094
 1197PYPI    C217556   5.954  10.558   5.490  0.0715 -0.0259 -0.0479
 1197PYPI    C317557   6.184  10.232   5.509  0.0395 -0.0454  0.0092
 1197PYPI   PO417558   6.195  10.554   5.977 -0.0135  0.0577 -0.1046
 1197PYPI   GL117559   5.961  10.401   6.334 -0.0416  0.2605  0.4964
 1197PYPI   GL217560   5.725  10.126   6.366 -0.0147  0.1834 -0.3804
 1197PYPI   C1A17561   6.064  10.663   6.735 -0.3605 -0.0501 -0.2564
 1197PYPI   C2A17562   6.197  10.862   7.129 -0.2457 -0.1647  0.0129
 1197PYPI   D3A17563   6.514  10.812   7.544  0.2572 -0.2174  0.0134
 1197PYPI   C4A17564   6.473  10.955   7.981  0.1860  0.2276  0.0621
 1197PYPI   C1B17565   5.491  10.280   6.696  0.0868 -0.0916 -0.3196
 1197PYPI   C2B17566   5.096  10.344   6.996  0.1438 -0.0736 -0.3691
 1197PYPI   C3B17567   5.071  10.757   7.301  0.0565  0.1565  0.1338
 1197PYPI   C4B17568   5.153  10.996   7.642 -0.0077  0.1641  0.0998
 1198PYPI    C117569   6.855   2.551   5.771 -0.1495 -0.1260 -0.0487
 1198PYPI    C217570   7.042   2.809   5.528  0.0975 -0.0486  0.2189
 1198PYPI    C317571   6.680   2.669   5.430  0.0986  0.1515 -0.0843
 1198PYPI   PO417572   7.109   2.512   5.909 -0.4284  0.2504  0.1037
 1198PYPI   GL117573   7.230   2.464   6.331 -0.0390 -0.2918  0.0002
 1198PYPI   GL217574   7.439   2.192   6.308  0.0515 -0.1008  0.0888
 1198PYPI   C1A17575   7.270   2.430   6.761  0.1020  0.2634  0.2644
 1198PYPI   C2A17576   7.281   2.309   7.149 -0.0909 -0.0843 -0.1844
 1198PYPI   D3A17577   7.293   2.419   7.671 -0.0698  0.2253  0.2230
 1198PYPI   C4A17578   7.060   2.310   8.000  0.0335  0.2864  0.1002
 1198PYPI   C1B17579   7.532   1.972   6.721 -0.1426 -0.2450 -0.2488
 1198PYPI   C2B17580   7.687   1.892   7.060 -0.0298  0.0304  0.0640
 1198PYPI   C3B17581   7.788   1.857   7.481 -0.1504 -0.1152  0.2661
 1198PYPI   C4B17582   7.716   1.656   7.896  0.1138 -0.1528 -0.0491
 1199PYPI    C117583  15.646   0.320   5.833  0.2561  0.1019 -0.0244
 1199PYPI    C217584  15.598   0.080   5.517 -0.1936  0.0877  0.0473
 1199PYPI    C317585  15.675   0.469   5.463  0.2951 -0.0180 -0.0701
 1199PYPI   PO417586  15.724   0.235   6.058 -0.2334  0.2643 -0.1821
 1199PYPI   GL117587  15.747   0.399   6.504 -0.2211  0.2019  0.0977
 1199PYPI   GL217588  16.128   0.497   6.649  0.1321 -0.3009  0.1448
 1199PYPI   C1A17589  15.629   0.573   6.857 -0.0316  0.1928  0.1529
 1199PYPI   C2A17590  15.627   0.688   7.239 -0.1567 -0.1946 -0.0500
 1199PYPI   D3A17591  15.753   0.709   7.589  0.0648 -0.2106  0.0472
 1199PYPI   C4A17592  15.619   0.981   7.915  0.3325 -0.0293 -0.0518
 1199PYPI   C1B17593  16.092   0.587   7.099  0.1534 -0.1691  0.1242
 1199PYPI   C2B17594  16.247   0.645   7.457  0.2757 -0.0309  0.1218
 1199PYPI   C3B17595  16.167   0.635   7.842 -0.1892 -0.0031  0.1431
 1199PYPI   C4B17596  15.832   0.589   8.133  0.2695  0.1048  0.0061
 1200PYPI    C117597  12.733   2.001   5.079  0.0262 -0.1217  0.1489
 1200PYPI    C217598  12.480   1.711   5.187 -0.2388  0.0154 -0.0887
 1200PYPI    C317599  12.476   1.850   4.812  0.1295  0.0836 -0.0712
 1200PYPI   PO417600  12.723   2.162   5.322 -0.1374  0.1134 -0.3904
 1200PYPI   GL117601  12.676   2.286   5.721 -0.3227  0.1020  0.3360
 1200PYPI   GL217602  12.881   2.410   5.985  0.1082 -0.0395  0.1492
 1200PYPI   C1A17603  12.545   2.048   6.079 -0.0279 -0.1734  0.1397
 1200PYPI   C2A17604  12.587   1.659   6.375  0.4951 -0.0953 -0.1003
 1200PYPI   D3A17605  12.532   1.212   6.465  0.0989  0.3309  0.0264
 1200PYPI   C4A17606  12.638   1.037   6.866 -0.1736  0.1114  0.1557
 1200PYPI   C1B17607  12.664   2.419   6.373 -0.0925  0.1887 -0.3162
 1200PYPI   C2B17608  12.723   2.460   6.843 -0.2103  0.2349  0.1337
 1200PYPI   C3B17609  12.762   2.343   7.357 -0.7575 -0.0859 -0.0356
 1200PYPI   C4B17610  12.553   2.138   7.794 -0.1441 -0.1690 -0.0629
 1201PYPI    C117611  16.309  10.624   5.182 -0.1124  0.0038  0.1002
 1201PYPI    C217612  16.036  10.764   4.926  0.0277  0.1154  0.0106
 1201PYPI    C317613  16.113  10.372   4.941  0.0271  0.1095 -0.1273
 1201PYPI   PO417614  16.212  10.756   5.377  0.4019 -0.1341 -0.0083
 1201PYPI   GL117615  16.187  10.904   5.768  0.0342 -0.2970 -0.2536
 1201PYPI   GL217616  16.406  11.146   5.617  0.1865  0.1926  0.5522
 1201PYPI   C1A17617  16.187  10.846   6.185  0.0643 -0.1494 -0.0217
 1201PYPI   C2A17618  16.189  10.731   6.446  0.0200  0.0161 -0.1071
 1201PYPI   D3A17619  15.897  10.446   6.792 -0.2783  0.1266 -0.2853
 1201PYPI   C4A17620  15.795  10.349   7.147  0.2189 -0.0757 -0.3228
 1201PYPI   C1B17621  16.615  11.087   6.079  0.2192 -0.1551  0.1925
 1201PYPI   C2B17622  16.548  11.005   6.491 -0.0559  0.4348 -0.0842
 1201PYPI   C3B17623  16.760  10.942   6.919 -0.2504 -0.3237  0.1202
 1201PYPI   C4B17624  16.700  10.956   7.426 -0.2737  0.1085  0.0882
 1202PYPI    C117625  10.133   1.243   5.825  0.1893 -0.1392  0.0261
 1202PYPI    C217626  10.109   0.879   5.661 -0.0391 -0.0564 -0.1287
 1202PYPI    C317627  10.016   0.931   6.047 -0.0370 -0.1565 -0.1144
 1202PYPI   PO417628  10.387   1.368   5.877  0.0678  0.3798  0.2787
 1202PYPI   GL117629  10.589   1.607   6.139 -0.2758 -0.1297  0.1298
 1202PYPI   GL217630  10.868   1.425   6.107 -0.1450 -0.1710  0.1480
 1202PYPI   C1A17631  10.736   1.779   6.488  0.1136 -0.0114  0.1976
 1202PYPI   C2A17632  10.760   1.857   6.925  0.0251 -0.1317 -0.0160
 1202PYPI   D3A17633  10.951   1.906   7.442  0.0518  0.0766  0.0452
 1202PYPI   C4A17634  10.781   1.961   7.806 -0.0344  0.1993 -0.1288
 1202PYPI   C1B17635  11.160   1.472   6.450 -0.1416  0.1971 -0.0444
 1202PYPI   C2B17636  11.179   1.611   6.895  0.1271  0.0890  0.3392
 1202PYPI   C3B17637  11.196   1.478   7.287  0.0027 -0.1463  0.0946
 1202PYPI   C4B17638  11.124   1.404   7.726 -0.0866 -0.3345  0.0844
 1203PYPI    C117639  13.497  17.474   5.968 -0.1174 -0.1406  0.0406
 1203PYPI    C217640  13.659  17.109   5.938  0.2498 -0.0012  0.2620
 1203PYPI    C317641  13.580  17.320   5.608  0.1682 -0.2226  0.1381
 1203PYPI   PO417642  13.620  17.531   6.179  0.0835 -0.0701 -0.3560
 1203PYPI   GL117643  13.548  17.991   6.418 -0.0093 -0.0487 -0.1793
 1203PYPI   GL217644  13.748  17.790   6.593  0.0108 -0.0397  0.2039
 1203PYPI   C1A17645  13.244  17.761   6.687  0.0272 -0.0654  0.5343
 1203PYPI   C2A17646  13.015  17.616   7.107 -0.2789 -0.0169  0.1150
 1203PYPI   D3A17647  12.941  17.856   7.485 -0.1428  0.2539  0.0305
 1203PYPI   C4A17648  13.165  18.178   7.488 -0.4619 -0.1059  0.2089
 1203PYPI   C1B17649  13.561  17.759   7.029 -0.2232 -0.1228  0.1717
 1203PYPI   C2B17650  13.386  17.743   7.408 -0.2741 -0.1431 -0.7092
 1203PYPI   C3B17651  13.223  17.576   7.819  0.1701  0.0602 -0.0790
 1203PYPI   C4B17652  12.936  17.522   8.200  0.0105 -0.2497 -0.1452
 1204PYPI    C117653   5.564   8.784   5.880  0.1356  0.1124 -0.0520
 1204PYPI    C217654   5.658   9.098   5.650 -0.1054  0.0648 -0.2194
 1204PYPI    C317655   5.869   8.759   5.622 -0.0094  0.1248 -0.2264
 1204PYPI   PO417656   5.443   8.938   6.099  0.5265  0.0772 -0.0547
 1204PYPI   GL117657   5.646   9.190   6.440 -0.0845 -0.1177  0.2082
 1204PYPI   GL217658   5.763   8.872   6.530 -0.0695  0.0147  0.6674
 1204PYPI   C1A17659   5.511   9.180   6.900 -0.4705 -0.1055 -0.2396
 1204PYPI   C2A17660   5.719   8.854   7.210  0.1113 -0.0212  0.1465
 1204PYPI   D3A17661   5.660   8.759   7.552  0.0660 -0.1073  0.1262
 1204PYPI   C4A17662   5.581   9.021   7.929  0.3406 -0.1225  0.0993
 1204PYPI   C1B17663   6.026   8.727   6.852 -0.1141  0.0470  0.0580
 1204PYPI   C2B17664   6.151   8.495   7.308 -0.0217 -0.2606  0.0826
 1204PYPI   C3B17665   6.163   8.645   7.737  0.0570 -0.1542 -0.0467
 1204PYPI   C4B17666   5.980   8.800   8.093  0.0114  0.1690  0.0480
 1205PYPI    C117667  13.279  12.174   5.836  0.0233  0.0254 -0.0637
 1205PYPI    C217668  13.612  11.956   5.798 -0.0355 -0.1211  0.2338
 1205PYPI    C317669  13.280  11.850   5.601  0.0986  0.0438 -0.0891
 1205PYPI   PO417670  13.220  12.204   6.063 -0.2556  0.1399  0.2087
 1205PYPI   GL117671  13.443  12.002   6.351 -0.1190 -0.0147 -0.0420
 1205PYPI   GL217672  13.745  12.112   6.257  0.0248  0.3448  0.0014
 1205PYPI   C1A17673  13.219  11.796   6.695 -0.0550 -0.0540  0.1366
 1205PYPI   C2A17674  13.422  11.620   7.171 -0.0123  0.0006 -0.0767
 1205PYPI   D3A17675  13.494  11.556   7.590 -0.0675  0.4046  0.0604
 1205PYPI   C4A17676  13.615  11.303   8.002 -0.0417 -0.4404  0.4081
 1205PYPI   C1B17677  13.756  11.926   6.695  0.0577  0.3418 -0.2335
 1205PYPI   C2B17678  13.887  11.994   7.131 -0.0544  0.0161  0.0843
 1205PYPI   C3B17679  13.821  11.931   7.547  0.2740  0.0128 -0.1663
 1205PYPI   C4B17680  13.788  11.777   7.927 -0.2448  0.0466 -0.2742
 1206PYPI    C117681  17.074  10.852   4.963 -0.0561  0.0164  0.0376
 1206PYPI    C217682  16.873  11.062   4.688  0.2338  0.2501 -0.0003
 1206PYPI    C317683  17.191  10.844   4.581  0.2630  0.2293  0.1271
 1206PYPI   PO417684  17.113  10.925   5.195 -0.1488 -0.1670 -0.0157
 1206PYPI   GL117685  17.299  10.859   5.585  0.1407  0.0124  0.3073
 1206PYPI   GL217686  17.318  11.090   5.786  0.0327 -0.3159  0.0611
 1206PYPI   C1A17687  17.124  10.664   5.979 -0.2020  0.1603  0.0651
 1206PYPI   C2A17688  16.993  10.482   6.399 -0.0695 -0.1058  0.2315
 1206PYPI   D3A17689  17.092  10.374   6.790 -0.0386 -0.2016  0.0507
 1206PYPI   C4A17690  17.091  10.641   7.148  0.1590 -0.0047 -0.1201
 1206PYPI   C1B17691  17.097  11.231   6.151 -0.1549  0.1768  0.1970
 1206PYPI   C2B17692  17.039  11.181   6.548  0.0836  0.2032  0.1135
 1206PYPI   C3B17693  17.150  11.225   6.954 -0.1471 -0.0709  0.0159
 1206PYPI   C4B17694  17.125  11.146   7.245 -0.0541  0.0528  0.5560
 1207PYPI    C117695   6.693  10.072   5.638  0.0181 -0.1144 -0.0287
 1207PYPI    C217696   6.682  10.293   5.304  0.2559 -0.0246  0.0210
 1207PYPI    C317697   7.033  10.212   5.479  0.1376 -0.1202  0.2172
 1207PYPI   PO417698   6.555  10.185   5.857 -0.1078  0.0465  0.0147
 1207PYPI   GL117699   6.470  10.222   6.247 -0.0087 -0.0954  0.1102
 1207PYPI   GL217700   6.811  10.052   6.291 -0.0221  0.2155  0.2260
 1207PYPI   C1A17701   6.399  10.240   6.590 -0.2482  0.4848 -0.1358
 1207PYPI   C2A17702   6.534   9.982   6.912 -0.0361  0.2632 -0.1929
 1207PYPI   D3A17703   6.585   9.950   7.302 -0.0815 -0.1131 -0.0105
 1207PYPI   C4A17704   6.743  10.360   7.482 -0.3255  0.0428 -0.1901
 1207PYPI   C1B17705   7.067  10.103   6.765  0.0116 -0.2549 -0.1152
 1207PYPI   C2B17706   7.106  10.181   7.143 -0.0912 -0.0267 -0.1399
 1207PYPI   C3B17707   7.341  10.356   7.482  0.2559  0.2224 -0.0909
 1207PYPI   C4B17708   7.492  10.432   7.898  0.4076  0.0194  0.3869
 1208PYPI    C117709   5.411   3.737   5.557  0.1449  0.1669 -0.0520
 1208PYPI    C217710   5.775   3.604   5.656  0.1134  0.1120 -0.0092
 1208PYPI    C317711   5.507   3.354   5.494 -0.0280  0.0622  0.2957
 1208PYPI   PO417712   5.370   3.911   5.868  0.2012  0.2275 -0.1874
 1208PYPI   GL117713   5.320   4.265   6.012 -0.1600 -0.1005 -0.1590
 1208PYPI   GL217714   5.007   4.229   6.029 -0.1525 -0.1038 -0.1363
 1208PYPI   C1A17715   5.336   4.186   6.437 -0.1926  0.2910 -0.2097
 1208PYPI   C2A17716   5.196   4.247   6.780 -0.4057 -0.1649 -0.0480
 1208PYPI   D3A17717   4.968   4.367   7.188  0.0515 -0.1069 -0.0772
 1208PYPI   C4A17718   5.229   4.279   7.559  0.1444  0.0763  0.0814
 1208PYPI   C1B17719   4.692   4.352   6.351 -0.1895 -0.1117  0.0622
 1208PYPI   C2B17720   4.631   4.435   6.777  0.0900  0.2843  0.1424
 1208PYPI   C3B17721   4.469   4.444   7.173  0.0124 -0.1383  0.2252
 1208PYPI   C4B17722   4.526   4.301   7.600 -0.3471 -0.0121  0.1105
 1209PYPI    C117723  17.363   4.761   5.586  0.0714  0.0961  0.0179
 1209PYPI    C217724  17.408   4.365   5.556 -0.0466  0.0833  0.0053
 1209PYPI    C317725  17.259   4.573   5.249  0.0222  0.1387  0.0093
 1209PYPI   PO417726  17.161   4.860   5.790 -0.0992 -0.0736 -0.1866
 1209PYPI   GL117727  17.230   4.837   6.236  0.1019  0.0167  0.0668
 1209PYPI   GL217728  17.512   5.078   6.092 -0.0680 -0.0011 -0.0484
 1209PYPI   C1A17729  17.130   4.785   6.672  0.0850 -0.0396 -0.0815
 1209PYPI   C2A17730  17.153   4.919   7.163 -0.0750 -0.3614  0.1221
 1209PYPI   D3A17731  17.323   5.068   7.449  0.0329 -0.1881 -0.1882
 1209PYPI   C4A17732  17.152   5.174   7.810 -0.1047 -0.2294 -0.1700
 1209PYPI   C1B17733  17.517   5.123   6.584  0.0443  0.0286 -0.0402
 1209PYPI   C2B17734  17.605   5.170   7.027  0.0907  0.2083 -0.3960
 1209PYPI   C3B17735  17.610   5.436   7.398 -0.1406  0.2224 -0.0605
 1209PYPI   C4B17736  17.595   5.324   7.854  0.0076  0.0618 -0.2084
 1210PYPI    C117737  13.854   8.045   5.148 -0.0700  0.0648 -0.0392
 1210PYPI    C217738  13.828   8.388   5.353 -0.1725  0.0572 -0.0389
 1210PYPI    C317739  13.678   8.364   4.983 -0.0991  0.0342 -0.0674
 1210PYPI   PO417740  13.848   7.862   5.454 -0.3358  0.0839 -0.0457
 1210PYPI   GL117741  13.703   8.109   5.843  0.0081 -0.1023  0.0208
 1210PYPI   GL217742  13.446   8.150   5.879  0.1318  0.2979  0.2450
 1210PYPI   C1A17743  13.983   7.993   6.173 -0.1711  0.1740  0.1125
 1210PYPI   C2A17744  14.082   8.022   6.552  0.1416 -0.1395 -0.0447
 1210PYPI   D3A17745  14.129   7.995   6.955  0.0029  0.3871 -0.1381
 1210PYPI   C4A17746  14.029   8.260   7.296 -0.0285  0.0608  0.3205
 1210PYPI   C1B17747  13.544   8.123   6.394 -0.1810 -0.4157  0.2071
 1210PYPI   C2B17748  13.611   8.349   6.799  0.0664  0.0535  0.6237
 1210PYPI   C3B17749  13.602   8.417   7.145 -0.1097  0.1539 -0.2410
 1210PYPI   C4B17750  13.683   8.615   7.555 -0.0612 -0.1609 -0.2333
 1211PYPI    C117751   6.881  17.481   5.894  0.0959  0.2485 -0.0245
 1211PYPI    C217752   6.490  17.539   5.830  0.0472 -0.0873 -0.0497
 1211PYPI    C317753   6.759  17.697   5.580 -0.0780  0.0141 -0.1218
 1211PYPI   PO417754   6.943  17.322   6.093  0.2615 -0.2250  0.1302
 1211PYPI   GL117755   7.124  17.242   6.495  0.2499 -0.2192 -0.0065
 1211PYPI   GL217756   6.714  17.096   6.542  0.0257 -0.1233  0.0683
 1211PYPI   C1A17757   7.459  17.192   6.771  0.0219 -0.3203  0.1238
 1211PYPI   C2A17758   7.664  17.190   7.149  0.1507  0.0566 -0.0639
 1211PYPI   D3A17759   7.558  17.122   7.566  0.0462  0.0520  0.3254
 1211PYPI   C4A17760   7.570  17.566   7.751  0.1416 -0.3793  0.1098
 1211PYPI   C1B17761   6.839  17.185   6.963  0.1216  0.2573 -0.2992
 1211PYPI   C2B17762   6.771  17.118   7.438  0.0607 -0.0148 -0.3124
 1211PYPI   C3B17763   6.718  16.961   7.845  0.0548  0.0893  0.0065
 1211PYPI   C4B17764   6.532  16.815   8.169  0.2417  0.4635  0.0186
 1212PYPI    C117765   6.481   2.869   5.859 -0.1742  0.0755  0.0663
 1212PYPI    C217766   6.331   3.027   5.523  0.1567  0.0202 -0.1112
 1212PYPI    C317767   6.658   3.186   5.691  0.1667 -0.1355  0.0190
 1212PYPI   PO417768   6.331   2.934   6.033 -0.0975  0.1678  0.4929
 1212PYPI   GL117769   6.387   3.231   6.517  0.3056 -0.1846 -0.1454
 1212PYPI   GL217770   6.478   2.958   6.524  0.0407 -0.1719  0.0043
 1212PYPI   C1A17771   6.235   3.237   6.923  0.1937 -0.1698 -0.0193
 1212PYPI   C2A17772   6.329   3.282   7.359  0.1029 -0.2237  0.0266
 1212PYPI   D3A17773   6.193   3.322   7.679 -0.0343 -0.1633 -0.0123
 1212PYPI   C4A17774   6.367   3.416   8.139  0.2506  0.1560  0.2746
 1212PYPI   C1B17775   6.883   2.850   6.675 -0.2593  0.0170 -0.0540
 1212PYPI   C2B17776   7.224   2.884   6.854 -0.1269  0.1069 -0.0372
 1212PYPI   C3B17777   7.593   2.992   6.842  0.2055 -0.1747 -0.1728
 1212PYPI   C4B17778   7.945   3.192   7.044 -0.2377  0.2721 -0.0690
 1213PYPI    C117779  13.118  14.629   6.107  0.0142  0.5086  0.1636
 1213PYPI    C217780  12.914  14.899   5.895 -0.1303  0.1783 -0.1274
 1213PYPI    C317781  12.791  14.519   5.906  0.3450  0.0182 -0.1273
 1213PYPI   PO417782  13.130  14.641   6.342 -0.4477 -0.0483 -0.0317
 1213PYPI   GL117783  13.087  14.861   6.687  0.2856 -0.1627  0.0461
 1213PYPI   GL217784  12.789  14.972   6.794 -0.2134  0.1439 -0.1808
 1213PYPI   C1A17785  13.338  15.027   6.960  0.2890  0.0009  0.0626
 1213PYPI   C2A17786  13.365  14.924   7.436 -0.2475 -0.3388 -0.0879
 1213PYPI   D3A17787  12.993  14.970   7.771  0.2317 -0.1255  0.0481
 1213PYPI   C4A17788  13.095  14.966   8.191  0.0629  0.0311 -0.3836
 1213PYPI   C1B17789  12.982  14.757   7.159  0.2748  0.3942  0.0227
 1213PYPI   C2B17790  12.838  14.611   7.541  0.3563  0.1145 -0.1302
 1213PYPI   C3B17791  12.724  14.545   7.905 -0.4105  0.0487  0.0595
 1213PYPI   C4B17792  12.768  14.510   8.351 -0.2087  0.0715  0.3868
 1214ERGO   ROH17793   8.845   1.980   9.842  0.1021 -0.1664 -0.0240
 1214ERGO    R117794   8.795   2.030   9.568  0.0767  0.0047  0.0096
 1214ERGO    R217795   8.995   2.097   9.389  0.1004 -0.1354 -0.0181
 1214ERGO    R317796   8.898   1.885   9.250 -0.1681  0.0271 -0.0825
 1214ERGO    R417797   9.042   2.045   9.051  0.0604 -0.0968 -0.0287
 1214ERGO    R517798   8.835   1.977   9.038 -0.0335  0.1739 -0.0621
 1214ERGO    C117799   8.978   1.816   8.723 -0.2149  0.0782 -0.0951
 1214ERGO    C217800   8.945   1.711   8.506  0.1003  0.0172 -0.1014
 1215ERGO   ROH17801  10.166  16.106   6.324 -0.1457  0.1210  0.1159
 1215ERGO    R117802  10.169  15.975   6.575 -0.1706  0.1665  0.1395
 1215ERGO    R217803  10.396  15.958   6.733 -0.1564  0.0896  0.1083
 1215ERGO    R317804  10.234  16.068   6.921 -0.0770  0.1995  0.1136
 1215ERGO    R417805  10.464  15.968   7.071 -0.1024  0.1105  0.0971
 1215ERGO    R517806  10.255  15.923   7.110 -0.1205  0.2184  0.1343
 1215ERGO    C117807  10.353  16.077   7.445  0.0037  0.2259  0.0957
 1215ERGO    C217808  10.411  16.129   7.784  0.2201 -0.1683 -0.0463
 1216ERGO   ROH17809   5.344   2.535   6.443  0.1028 -0.2366  0.1056
 1216ERGO    R117810   5.167   2.591   6.657  0.0243 -0.0633 -0.0027
 1216ERGO    R217811   5.203   2.488   6.911 -0.1708 -0.0095  0.0489
 1216ERGO    R317812   5.189   2.750   6.983 -0.0487  0.0224 -0.0393
 1216ERGO    R417813   5.060   2.606   7.202  0.0777  0.1417  0.1134
 1216ERGO    R517814   4.976   2.771   7.089  0.0357  0.1191  0.1134
 1216ERGO    C117815   4.963   2.920   7.440  0.3370  0.2598  0.0682
 1216ERGO    C217816   4.854   3.094   7.666 -0.0210 -0.0174  0.3748
 1217ERGO   ROH17817   9.841  15.787  10.399  0.0300  0.0307  0.0781
 1217ERGO    R117818   9.969  15.933  10.194 -0.0840  0.0985  0.0540
 1217ERGO    R217819   9.926  15.883   9.926  0.0231 -0.0421  0.0620
 1217ERGO    R317820   9.868  16.149   9.919 -0.2604 -0.1037 -0.0425
 1217ERGO    R417821   9.918  16.075   9.639  0.3777 -0.0521  0.0407
 1217ERGO    R517822  10.014  16.237   9.750 -0.0162  0.0579  0.2420
 1217ERGO    C117823   9.858  16.436   9.465  0.3180 -0.1155 -0.0699
 1217ERGO    C217824   9.715  16.513   9.070  0.1311 -0.0108  0.1470
 1218ERGO   ROH17825  10.776  16.741  10.271 -0.0428  0.3222 -0.0412
 1218ERGO    R117826  10.845  16.777   9.999  0.0190  0.2302 -0.0380
 1218ERGO    R217827  10.963  16.578   9.849  0.0884  0.1914  0.0661
 1218ERGO    R317828  10.754  16.625   9.681  0.1221  0.0953 -0.0039
 1218ERGO    R417829  10.975  16.551   9.504  0.2332  0.2552  0.0657
 1218ERGO    R517830  10.853  16.730   9.490  0.1315  0.1855  0.0504
 1218ERGO    C117831  10.786  16.579   9.147  0.3492  0.2019 -0.0001
 1218ERGO    C217832  10.815  16.480   8.748 -0.0342  0.1129 -0.3396
 1219ERGO   ROH17833  11.998   4.940   6.191 -0.1201  0.1104  0.1178
 1219ERGO    R117834  12.225   4.923   6.359 -0.1078 -0.0705  0.0849
 1219ERGO    R217835  12.255   5.078   6.585  0.0846 -0.0366  0.0378
 1219ERGO    R317836  12.291   4.838   6.706 -0.1355 -0.0418  0.0973
 1219ERGO    R417837  12.315   5.035   6.922  0.2276  0.0089  0.0185
 1219ERGO    R517838  12.459   4.879   6.871  0.0134 -0.1857 -0.0145
 1219ERGO    C117839  12.385   4.784   7.233  0.1045  0.0306  0.0630
 1219ERGO    C217840  12.471   4.718   7.593  0.1265 -0.1788 -0.3095
 1220ERGO   ROH17841  13.461  16.458  10.418 -0.1088  0.0880  0.1145
 1220ERGO    R117842  13.480  16.387  10.144 -0.1277  0.0065  0.1340
 1220ERGO    R217843  13.260  16.377   9.978 -0.1245  0.0609  0.1273
 1220ERGO    R317844  13.408  16.546   9.825 -0.0415 -0.0462  0.0877
 1220ERGO    R417845  13.239  16.402   9.633 -0.2857  0.1555  0.1432
 1220ERGO    R517846  13.456  16.420   9.626 -0.2677 -0.0516  0.0328
 1220ERGO    C117847  13.366  16.575   9.290 -0.3017  0.1101  0.1152
 1220ERGO    C217848  13.432  16.516   8.947 -0.1156 -0.2159 -0.0497
 1221ERGO   ROH17849   2.216   6.095  10.263  0.1956  0.0841 -0.1837
 1221ERGO    R117850   2.401   5.956  10.100  0.3088  0.1391 -0.1039
 1221ERGO    R217851   2.329   5.839   9.860  0.3755 -0.1576  0.0167
 1221ERGO    R317852   2.532   5.990   9.762  0.1866 -0.0172 -0.1682
 1221ERGO    R417853   2.478   5.792   9.552  0.3686 -0.2860  0.0321
 1221ERGO    R517854   2.671   5.834   9.645  0.3426  0.0249 -0.0422
 1221ERGO    C117855   2.756   5.907   9.281  0.1873 -0.2290 -0.1326
 1221ERGO    C217856   2.822   6.052   9.029  0.0201  0.0625  0.0137
 1222ERGO   ROH17857   3.626   1.673   6.808 -0.1341 -0.0511 -0.1847
 1222ERGO    R117858   3.443   1.706   7.022  0.0067 -0.0129 -0.0696
 1222ERGO    R217859   3.288   1.499   7.119 -0.0542  0.0467 -0.0472
 1222ERGO    R317860   3.400   1.570   7.357  0.1192 -0.0909 -0.0854
 1222ERGO    R417861   3.227   1.343   7.421 -0.1664  0.1317 -0.0248
 1222ERGO    R517862   3.225   1.538   7.517  0.1229  0.1437 -0.0279
 1222ERGO    C117863   3.296   1.318   7.820 -0.0689  0.0520 -0.0475
 1222ERGO    C217864   3.536   1.117   8.047 -0.0509  0.0261  0.0366
 1223ERGO   ROH17865   5.749  12.044  10.541 -0.1886  0.1465  0.1229
 1223ERGO    R117866   5.758  12.229  10.327 -0.2530  0.0241  0.0116
 1223ERGO    R217867   5.973  12.248  10.156 -0.1298  0.1919  0.1748
 1223ERGO    R317868   5.783  12.213   9.965  0.0660 -0.1793  0.0403
 1223ERGO    R417869   6.027  12.276   9.815  0.0426  0.3463  0.2137
 1223ERGO    R517870   5.835  12.377   9.798 -0.1598 -0.0475  0.0995
 1223ERGO    C117871   5.880  12.258   9.438  0.3269  0.0879  0.1101
 1223ERGO    C217872   5.984  12.352   9.156 -0.0116  0.2124 -0.1981
 1224ERGO   ROH17873   8.166  11.956   6.642 -0.0548 -0.1569  0.0302
 1224ERGO    R117874   8.259  12.102   6.866 -0.0629 -0.0885 -0.0118
 1224ERGO    R217875   8.159  12.064   7.121 -0.0284 -0.0547  0.0054
 1224ERGO    R317876   8.421  12.026   7.183 -0.0130  0.0153 -0.0123
 1224ERGO    R417877   8.309  12.163   7.416 -0.0206  0.0162 -0.0210
 1224ERGO    R517878   8.483  12.225   7.301 -0.0466  0.0432 -0.0430
 1224ERGO    C117879   8.642  12.186   7.646 -0.0016  0.1231 -0.0529
 1224ERGO    C217880   8.722  12.212   7.944 -0.1308 -0.1316  0.2941
 1225ERGO   ROH17881   1.538   8.920  10.029 -0.0876  0.0266 -0.0683
 1225ERGO    R117882   1.497   8.910   9.749 -0.0782 -0.1060 -0.0641
 1225ERGO    R217883   1.494   9.136   9.591 -0.1706 -0.1776 -0.1529
 1225ERGO    R317884   1.684   9.002   9.451 -0.1144 -0.1522 -0.1040
 1225ERGO    R417885   1.570   9.194   9.259  0.0706  0.0195 -0.0674
 1225ERGO    R517886   1.590   8.978   9.231  0.0189  0.0206 -0.1904
 1225ERGO    C117887   1.793   9.102   8.933  0.2638  0.1582  0.0284
 1225ERGO    C217888   1.800   9.157   8.537 -0.3893 -0.2237  0.0367
 1226ERGO   ROH17889  15.840  16.325   6.324 -0.1276 -0.1583 -0.0075
 1226ERGO    R117890  15.789  16.263   6.595 -0.0824 -0.1303  0.0083
 1226ERGO    R217891  15.796  16.004   6.693  0.0328 -0.1137  0.0570
 1226ERGO    R317892  15.972  16.110   6.871  0.0032 -0.0039  0.0205
 1226ERGO    R417893  15.833  15.899   7.020  0.2510 -0.1617  0.0184
 1226ERGO    R517894  15.854  16.108   7.079  0.0857 -0.1618  0.0631
 1226ERGO    C117895  16.019  15.938   7.378  0.3503 -0.0865 -0.0383
 1226ERGO    C217896  15.937  15.837   7.652  0.4348  0.1815 -0.1040
 1227ERGO   ROH17897   7.035   7.004   6.281 -0.0965 -0.0783  0.1183
 1227ERGO    R117898   6.978   6.817   6.485 -0.0840 -0.0561  0.1420
 1227ERGO    R217899   7.175   6.669   6.611 -0.0772 -0.0448  0.1427
 1227ERGO    R317900   7.065   6.773   6.836 -0.0594 -0.0206  0.1406
 1227ERGO    R417901   7.181   6.518   6.921 -0.2884 -0.1405  0.1019
 1227ERGO    R517902   6.975   6.584   6.951 -0.2461  0.0163  0.0604
 1227ERGO    C117903   7.080   6.527   7.314 -0.3946 -0.1735  0.0761
 1227ERGO    C217904   7.123   6.590   7.643 -0.2609  0.1481 -0.1968
 1228ERGO   ROH17905  15.389   1.990  10.136 -0.0783 -0.1222  0.0247
 1228ERGO    R117906  15.468   2.093   9.885 -0.2090 -0.0440  0.0147
 1228ERGO    R217907  15.648   1.963   9.721 -0.0390  0.1671  0.0270
 1228ERGO    R317908  15.449   1.986   9.537 -0.0742 -0.1053  0.0264
 1228ERGO    R417909  15.691   1.937   9.379 -0.0006  0.2752  0.0228
 1228ERGO    R517910  15.550   2.102   9.354 -0.2463  0.0705  0.0424
 1228ERGO    C117911  15.528   1.943   9.007 -0.0114  0.0824  0.0198
 1228ERGO    C217912  15.450   2.056   8.622 -0.3184  0.0012 -0.4396
 1229ERGO   ROH17913   0.359  14.491   5.953  0.2755  0.2471 -0.1992
 1229ERGO    R117914   0.476  14.597   6.188  0.2537  0.0063 -0.0754
 1229ERGO    R217915   0.326  14.697   6.397  0.2327  0.2085 -0.1808
 1229ERGO    R317916   0.472  14.520   6.544 -0.1765 -0.0692 -0.0923
 1229ERGO    R417917   0.412  14.739   6.729  0.3204  0.1655 -0.1981
 1229ERGO    R517918   0.609  14.658   6.684  0.1428 -0.3165 -0.1532
 1229ERGO    C117919   0.599  14.598   7.060 -0.0127 -0.1204 -0.1251
 1229ERGO    C217920   0.554  14.641   7.346 -0.1807  0.0950  0.2189
 1230ERGO   ROH17921   8.468   1.895   5.942  0.0910 -0.0746 -0.1118
 1230ERGO    R117922   8.401   1.894   6.217  0.0654 -0.1838 -0.1182
 1230ERGO    R217923   8.495   1.702   6.392  0.2909 -0.0858 -0.1277
 1230ERGO    R317924   8.581   1.918   6.532  0.0080  0.0119 -0.0993
 1230ERGO    R417925   8.561   1.703   6.731  0.4906 -0.1024 -0.1654
 1230ERGO    R517926   8.468   1.900   6.743  0.1598 -0.2596 -0.0378
 1230ERGO    C117927   8.680   1.907   7.060  0.3414 -0.0204 -0.1608
 1230ERGO    C217928   8.836   1.797   7.314 -0.0923  0.1206  0.1464
 1231ERGO   ROH17929  10.440  17.633   6.398 -0.0176 -0.0142  0.0256
 1231ERGO    R117930  10.420  17.590   6.677 -0.0789 -0.2955 -0.0214
 1231ERGO    R217931  10.262  17.746   6.842  0.1739 -0.2313  0.1481
 1231ERGO    R317932  10.156  17.507   6.914 -0.2055 -0.1491 -0.1043
 1231ERGO    R417933  10.097  17.686   7.139  0.2032 -0.2888  0.1538
 1231ERGO    R517934  10.197  17.492   7.149 -0.1124 -0.4945 -0.1266
 1231ERGO    C117935   9.900  17.426   7.379 -0.1360 -0.2452 -0.0798
 1231ERGO    C217936   9.757  17.574   7.655 -0.2964  0.0345 -0.1845
 1232ERGO   ROH17937   0.038  17.208   6.096  0.0306  0.1190 -0.0839
 1232ERGO    R117938   0.065  17.161   6.374  0.0853 -0.0608 -0.1181
 1232ERGO    R217939   0.294  17.224   6.514  0.0335  0.0516 -0.0810
 1232ERGO    R317940   0.120  17.361   6.672 -0.0913 -0.2250  0.0277
 1232ERGO    R417941   0.351  17.307   6.845  0.1235  0.1634 -0.1244
 1232ERGO    R517942   0.143  17.259   6.888  0.2253 -0.1807  0.0201
 1232ERGO    C117943   0.222  17.484   7.186  0.0588 -0.0310 -0.0477
 1232ERGO    C217944   0.201  17.637   7.567 -0.1137  0.2443  0.2151
 1233ERGO   ROH17945  12.441  17.448   6.203  0.2030 -0.1174  0.0593
 1233ERGO    R117946  12.379  17.417   6.477 -0.0213 -0.2321 -0.0026
 1233ERGO    R217947  12.339  17.632   6.646  0.1591 -0.2971  0.1193
 1233ERGO    R317948  12.104  17.506   6.698 -0.0521 -0.0193 -0.1223
 1233ERGO    R417949  12.142  17.688   6.924 -0.0051 -0.1407 -0.0245
 1233ERGO    R517950  12.105  17.474   6.935 -0.2892 -0.1047 -0.1275
 1233ERGO    C117951  11.806  17.602   7.135 -0.2988  0.2112 -0.3350
 1233ERGO    C217952  11.411  17.779   7.329  0.0472 -0.1459 -0.2640
 1234ERGO   ROH17953   8.392   6.839   6.599 -0.0437 -0.0113 -0.0153
 1234ERGO    R117954   8.422   6.959   6.854 -0.1702 -0.1099  0.0495
 1234ERGO    R217955   8.451   6.812   7.085 -0.0098 -0.2061 -0.0193
 1234ERGO    R317956   8.675   6.964   7.116 -0.1693  0.0176  0.0429
 1234ERGO    R417957   8.634   6.838   7.378 -0.0042 -0.1525 -0.0288
 1234ERGO    R517958   8.657   7.051   7.338 -0.2361 -0.1144  0.0823
 1234ERGO    C117959   8.950   6.996   7.576 -0.1507  0.0888  0.0240
 1234ERGO    C217960   9.144   6.954   7.907 -0.2069  0.3708 -0.1265
 1235ERGO   ROH17961   1.100   6.809   6.305 -0.0624 -0.2632  0.0578
 1235ERGO    R117962   1.178   6.950   6.538 -0.0432 -0.2082  0.0190
 1235ERGO    R217963   0.999   7.016   6.737 -0.0338 -0.1366  0.0076
 1235ERGO    R317964   1.178   6.888   6.896 -0.0425 -0.1143  0.0347
 1235ERGO    R417965   0.989   7.011   7.083 -0.0290 -0.0662  0.0086
 1235ERGO    R517966   1.206   7.033   7.085 -0.0309 -0.0802  0.0038
 1235ERGO    C117967   1.152   6.888   7.433 -0.0344 -0.0042  0.0346
 1235ERGO    C217968   1.145   6.931   7.827  0.0646  0.0740  0.0745
 1236ERGO   ROH17969   4.119  12.269   6.363  0.0076 -0.0093 -0.2004
 1236ERGO    R117970   4.017  12.474   6.529  0.0332  0.0246 -0.2291
 1236ERGO    R217971   3.754  12.478   6.616  0.0854 -0.0205 -0.0990
 1236ERGO    R317972   3.869  12.497   6.861  0.1965  0.1195 -0.1585
 1236ERGO    R417973   3.596  12.597   6.899  0.1665  0.0712 -0.0904
 1236ERGO    R517974   3.781  12.700   6.953  0.1767  0.1493 -0.2189
 1236ERGO    C117975   3.613  12.684   7.295  0.3180  0.2559 -0.1414
 1236ERGO    C217976   3.520  12.735   7.566  0.3649 -0.0819  0.0052
 1237ERGO   ROH17977   8.009   3.010   6.100 -0.0590 -0.0302 -0.0355
 1237ERGO    R117978   8.089   2.832   6.305 -0.0148  0.0018 -0.0250
 1237ERGO    R217979   8.282   2.898   6.492 -0.0282  0.0593 -0.0308
 1237ERGO    R317980   8.088   2.830   6.669 -0.0109  0.0247 -0.0251
 1237ERGO    R417981   8.331   2.849   6.831  0.0239 -0.1154 -0.0626
 1237ERGO    R517982   8.195   2.679   6.821 -0.0209 -0.0755 -0.1173
 1237ERGO    C117983   8.177   2.757   7.194  0.0704 -0.2497 -0.0758
 1237ERGO    C217984   8.241   2.869   7.486 -0.1754 -0.0403  0.2084
 1238ERGO   ROH17985  14.863  17.423   6.671  0.0953  0.0588  0.0393
 1238ERGO    R117986  14.721  17.292   6.878  0.0800  0.0638  0.0319
 1238ERGO    R217987  14.809  17.290   7.140  0.0499  0.0871  0.0418
 1238ERGO    R317988  14.560  17.388   7.190  0.0379  0.0745  0.0072
 1238ERGO    R417989  14.659  17.298   7.451 -0.0451 -0.0418  0.0001
 1238ERGO    R517990  14.471  17.241   7.356 -0.0186  0.0051 -0.0829
 1238ERGO    C117991  14.338  17.394   7.679 -0.1116 -0.1286 -0.0567
 1238ERGO    C217992  14.181  17.478   8.008 -0.2097  0.2878 -0.1244
 1239ERGO   ROH17993  13.472  17.318   6.590  0.2309 -0.2485  0.1231
 1239ERGO    R117994  13.224  17.263   6.714  0.1684  0.0717  0.1516
 1239ERGO    R217995  13.137  17.005   6.765 -0.2546  0.1660 -0.0283
 1239ERGO    R317996  13.112  17.099   7.019 -0.0123  0.0144  0.0547
 1239ERGO    R417997  12.915  16.883   7.001 -0.0653  0.0648  0.0991
 1239ERGO    R517998  12.877  17.088   7.064  0.0270  0.0307  0.2596
 1239ERGO    C117999  12.762  16.901   7.376  0.2726 -0.1367  0.2511
 1239ERGO    C218000  12.788  16.626   7.515  0.1688  0.0996 -0.0139
 1240ERGO   ROH18001   7.470   5.156   9.766 -0.1007 -0.0856 -0.0653
 1240ERGO    R118002   7.502   5.364   9.577 -0.0009 -0.0831 -0.0473
 1240ERGO    R218003   7.720   5.378   9.407  0.0728 -0.1025  0.0360
 1240ERGO    R318004   7.528   5.390   9.215  0.1470 -0.0797 -0.0354
 1240ERGO    R418005   7.781   5.391   9.067  0.1867 -0.3294  0.0465
 1240ERGO    R518006   7.620   5.536   9.049  0.2934 -0.2351 -0.0873
 1240ERGO    C118007   7.637   5.411   8.689  0.3228 -0.4402 -0.0145
 1240ERGO    C218008   7.526   5.525   8.375  0.2110 -0.2079  0.1384
 1241ERGO   ROH18009   0.331   5.945   6.031 -0.2298  0.2493 -0.1235
 1241ERGO    R118010   0.446   5.921   6.288 -0.2992 -0.0776 -0.1180
 1241ERGO    R218011   0.636   6.098   6.383 -0.0576 -0.4006  0.0261
 1241ERGO    R318012   0.462   6.123   6.590 -0.0585 -0.2860  0.0118
 1241ERGO    R418013   0.727   6.147   6.713 -0.0601 -0.2990  0.0118
 1241ERGO    R518014   0.569   6.009   6.772 -0.0910 -0.2417  0.0573
 1241ERGO    C118015   0.616   6.198   7.100 -0.0624 -0.1323 -0.0100
 1241ERGO    C218016   0.628   6.268   7.470  0.0709  0.1430 -0.0272
 1242ERGO   ROH18017  11.022  15.252  10.318  0.3692 -0.2813 -0.1874
 1242ERGO    R118018  10.851  15.391  10.139  0.1122 -0.3083  0.0319
 1242ERGO    R218019  10.946  15.566   9.948 -0.1916  0.0001  0.1521
 1242ERGO    R318020  10.803  15.408   9.779 -0.0831 -0.0103  0.0687
 1242ERGO    R418021  10.852  15.653   9.627  0.0424 -0.0326  0.0731
 1242ERGO    R518022  10.659  15.560   9.663  0.0095 -0.0144 -0.0530
 1242ERGO    C118023  10.663  15.555   9.281  0.2807 -0.0614 -0.0509
 1242ERGO    C218024  10.767  15.565   8.934 -0.0935  0.2820  0.3489
 1243ERGO   ROH18025  11.644   4.060   6.185 -0.0337  0.0364  0.0661
 1243ERGO    R118026  11.591   3.984   6.453 -0.0374 -0.0179  0.0503
 1243ERGO    R218027  11.785   3.875   6.617 -0.0772 -0.2012 -0.0170
 1243ERGO    R318028  11.711   4.078   6.783  0.0840 -0.2046  0.0599
 1243ERGO    R418029  11.815   3.869   6.962  0.2658 -0.1970 -0.0440
 1243ERGO    R518030  11.621   3.967   6.975  0.2787 -0.2033  0.1518
 1243ERGO    C118031  11.764   4.055   7.318  0.6168 -0.1977  0.0125
 1243ERGO    C218032  11.822   3.859   7.596  0.0576 -0.5047 -0.1203
 1244ERGO   ROH18033   8.739   7.808  10.140 -0.2493 -0.0203 -0.1003
 1244ERGO    R118034   8.822   7.866   9.875 -0.1978  0.0499 -0.0688
 1244ERGO    R218035   8.817   7.678   9.673 -0.1340  0.0964 -0.1136
 1244ERGO    R318036   8.670   7.868   9.545 -0.1263  0.1108 -0.1017
 1244ERGO    R418037   8.702   7.653   9.348 -0.0164  0.1843 -0.1630
 1244ERGO    R518038   8.751   7.864   9.319 -0.0472  0.2031 -0.0753
 1244ERGO    C118039   8.497   7.816   9.038  0.0595  0.2491 -0.1806
 1244ERGO    C218040   8.304   7.958   8.817  0.0098 -0.4031 -0.3705
 1245ERGO   ROH18041  17.358   7.761   6.300 -0.4362 -0.0628 -0.0846
 1245ERGO    R118042  17.433   7.822   6.566 -0.2116 -0.0555 -0.1477
 1245ERGO    R218043  17.402   8.074   6.675 -0.2930 -0.1006 -0.0740
 1245ERGO    R318044  17.265   7.939   6.868  0.0043 -0.2377  0.0480
 1245ERGO    R418045  17.349   8.189   6.997 -0.3172 -0.0401 -0.0989
 1245ERGO    R518046  17.385   7.986   7.070  0.0341  0.0376 -0.0267
 1245ERGO    C118047  17.190   8.129   7.365 -0.0521 -0.1336  0.0011
 1245ERGO    C218048  17.096   8.191   7.754 -0.0367 -0.2386  0.1108
 1246ERGO   ROH18049   2.672   7.328   6.191 -0.0431 -0.0092  0.0592
 1246ERGO    R118050   2.729   7.255   6.459  0.0463 -0.0688  0.0245
 1246ERGO    R218051   2.643   7.404   6.675  0.2474 -0.0320  0.0842
 1246ERGO    R318052   2.538   7.166   6.755  0.1378  0.0258  0.1116
 1246ERGO    R418053   2.598   7.309   7.004  0.5377 -0.1225  0.1011
 1246ERGO    R518054   2.664   7.108   6.950  0.3092 -0.1568 -0.0515
 1246ERGO    C118055   2.473   7.031   7.271  0.6039 -0.1211  0.1366
 1246ERGO    C218056   2.479   6.996   7.688  0.2476  0.1564 -0.0908
 1247ERGO   ROH18057   4.492  14.399   6.441 -0.1977  0.0340 -0.0803
 1247ERGO    R118058   4.490  14.475   6.714  0.0914  0.0319 -0.0763
 1247ERGO    R218059   4.289  14.400   6.889  0.0329  0.4140  0.0219
 1247ERGO    R318060   4.497  14.305   7.036 -0.0682  0.0064 -0.0842
 1247ERGO    R418061   4.286  14.359   7.232  0.0188  0.1191 -0.0100
 1247ERGO    R518062   4.490  14.434   7.238  0.1258 -0.1543  0.0324
 1247ERGO    C118063   4.478  14.247   7.570 -0.0843 -0.4353 -0.1280
 1247ERGO    C218064   4.536  14.203   7.839  0.0117  0.0792 -0.2313
 1248ERGO   ROH18065  15.020   4.188   6.300 -0.0471  0.1758 -0.0290
 1248ERGO    R118066  15.065   4.196   6.579 -0.0113  0.0659 -0.0307
 1248ERGO    R218067  15.143   4.426   6.711  0.1411 -0.0168  0.0311
 1248ERGO    R318068  14.925   4.373   6.865  0.1247  0.0658  0.0356
 1248ERGO    R418069  15.137   4.444   7.056  0.1215  0.0816  0.0257
 1248ERGO    R518070  15.015   4.263   7.058  0.0914  0.1062  0.0715
 1248ERGO    C118071  14.929   4.405   7.402  0.0946  0.2164  0.0268
 1248ERGO    C218072  15.092   4.605   7.648 -0.2426 -0.0841  0.0208
 1249ERGO   ROH18073  15.513   7.175   6.417  0.2656  0.0080  0.0423
 1249ERGO    R118074  15.575   7.108   6.685  0.2083  0.0730  0.0724
 1249ERGO    R218075  15.677   7.292   6.864  0.0912  0.1380  0.0744
 1249ERGO    R318076  15.465   7.212   7.016  0.0721  0.0896  0.0222
 1249ERGO    R418077  15.647   7.341   7.205  0.0267  0.0654  0.0796
 1249ERGO    R518078  15.563   7.141   7.222  0.0410  0.0560  0.0243
 1249ERGO    C118079  15.432   7.295   7.546 -0.0288 -0.0223  0.0335
 1249ERGO    C218080  15.278   7.339   7.872 -0.2233 -0.1299 -0.0661
 1250ERGO   ROH18081  17.667  10.723   5.980  0.2079  0.1488 -0.0300
 1250ERGO    R118082  17.641  10.879   6.215  0.0175  0.0929 -0.0129
 1250ERGO    R218083  17.427  10.853   6.388  0.0344 -0.1692 -0.0303
 1250ERGO    R318084  17.622  10.816   6.573  0.0654  0.0292 -0.0210
 1250ERGO    R418085  17.380  10.868   6.730 -0.0013 -0.2257 -0.0322
 1250ERGO    R518086  17.570  10.973   6.746 -0.1085 -0.0262 -0.0195
 1250ERGO    C118087  17.537  10.842   7.103  0.0072 -0.0721 -0.0246
 1250ERGO    C218088  17.593  10.897   7.445 -0.1394 -0.2429  0.0176
 1251ERGO   ROH18089   2.875  13.756   6.087 -0.0173 -0.3891 -0.1228
 1251ERGO    R118090   2.994  13.729   6.343  0.0433 -0.0720 -0.1132
 1251ERGO    R218091   2.967  13.921   6.540 -0.1655  0.0360 -0.2395
 1251ERGO    R318092   2.878  13.710   6.687  0.0998  0.0262 -0.0891
 1251ERGO    R418093   2.894  13.932   6.878 -0.1575  0.1764 -0.2423
 1251ERGO    R518094   2.986  13.736   6.899  0.0826  0.3017 -0.1122
 1251ERGO    C118095   2.769  13.740   7.213  0.0961  0.2489 -0.1027
 1251ERGO    C218096   2.739  13.840   7.541  0.1867 -0.2881 -0.1634
 1252ERGO   ROH18097  16.129  17.205   6.305  0.5144  0.0856 -0.0315
 1252ERGO    R118098  16.207  17.327   6.548  0.3838 -0.0241  0.0670
 1252ERGO    R218099  16.042  17.499   6.689  0.4228  0.1601 -0.1101
 1252ERGO    R318100  16.092  17.327   6.894 -0.0109  0.0851 -0.0590
 1252ERGO    R418101  15.980  17.567   7.022  0.3714  0.3260 -0.1526
 1252ERGO    R518102  16.169  17.468   7.072  0.1661 -0.0311 -0.0389
 1252ERGO    C118103  15.990  17.445   7.408 -0.0655  0.3520 -0.1293
 1252ERGO    C218104  16.145  17.647   7.696  0.0191 -0.1150 -0.2030
 1253ERGO   ROH18105   1.631   0.110   6.327  0.0511 -0.1731  0.0034
 1253ERGO    R118106   1.646  -0.001   6.587 -0.1920 -0.0188  0.0866
 1253ERGO    R218107   1.881  -0.010   6.732 -0.2063 -0.4114  0.0947
 1253ERGO    R318108   1.732   0.117   6.920  0.0506  0.0488  0.0015
 1253ERGO    R418109   1.961   0.009   7.068 -0.0811 -0.1632  0.0531
 1253ERGO    R518110   1.751  -0.021   7.115 -0.1232  0.2325  0.1528
 1253ERGO    C118111   1.868   0.140   7.440  0.2330  0.4133 -0.0586
 1253ERGO    C218112   1.788   0.038   7.770  0.4913  0.1085  0.2486
 1254ERGO   ROH18113  15.164  16.086  10.543  0.1523  0.1403  0.0685
 1254ERGO    R118114  15.302  16.061  10.298  0.0455 -0.0099  0.0225
 1254ERGO    R218115  15.231  15.877  10.104 -0.1851  0.0302  0.0697
 1254ERGO    R318116  15.221  16.096   9.944 -0.0470  0.0206  0.0458
 1254ERGO    R418117  15.246  15.871   9.759 -0.4661 -0.0453  0.0556
 1254ERGO    R518118  15.374  16.047   9.766 -0.2430 -0.1937 -0.0704
 1254ERGO    C118119  15.246  16.073   9.408 -0.5001 -0.0982  0.0248
 1254ERGO    C218120  15.288  16.001   9.093  0.1601  0.2468  0.1019
 1255ERGO   ROH18121   4.379   7.165   6.182 -0.0065  0.1526 -0.1296
 1255ERGO    R118122   4.319   7.033   6.425 -0.0545  0.0928 -0.1731
 1255ERGO    R218123   4.465   7.074   6.656  0.0541 -0.1468 -0.1947
 1255ERGO    R318124   4.222   7.130   6.762  0.1347  0.0286 -0.0988
 1255ERGO    R418125   4.372   7.007   6.982  0.0750 -0.2388 -0.2070
 1255ERGO    R518126   4.176   6.946   6.908 -0.0044 -0.0099 -0.1905
 1255ERGO    C118127   4.088   7.022   7.271  0.1628 -0.1278 -0.1241
 1255ERGO    C218128   3.936   6.969   7.567  0.0957 -0.2740 -0.0622
 1256ERGO   ROH18129   4.313   8.776   6.514  0.2222  0.0686 -0.1392
 1256ERGO    R118130   4.154   8.735   6.744  0.0815  0.0979 -0.2295
 1256ERGO    R218131   4.188   8.518   6.912 -0.0110  0.1254 -0.1725
 1256ERGO    R318132   4.210   8.711   7.103 -0.1371  0.1578 -0.1904
 1256ERGO    R418133   4.173   8.461   7.253  0.0359  0.1470 -0.1672
 1256ERGO    R518134   4.055   8.643   7.273 -0.0872  0.0688 -0.1809
 1256ERGO    C118135   4.186   8.608   7.630 -0.0551  0.1900 -0.1808
 1256ERGO    C218136   4.069   8.661   7.893 -0.1055  0.0375 -0.0685
 1257ERGO   ROH18137   7.312   3.541   6.429  0.1535  0.1016 -0.0954
 1257ERGO    R118138   7.404   3.417   6.666  0.0120 -0.0084 -0.0964
 1257ERGO    R218139   7.480   3.561   6.889  0.0817 -0.1017 -0.0575
 1257ERGO    R318140   7.299   3.402   7.014 -0.0683  0.0186 -0.1196
 1257ERGO    R418141   7.487   3.482   7.225  0.0885 -0.3508 -0.1150
 1257ERGO    R518142   7.429   3.278   7.173 -0.1649 -0.2482 -0.2447
 1257ERGO    C118143   7.320   3.286   7.539 -0.0483 -0.3828 -0.2068
 1257ERGO    C218144   7.370   3.112   7.892 -0.0183  0.0963 -0.0663
 1258ERGO   ROH18145  12.705  17.207  10.128 -0.0990 -0.1163  0.0639
 1258ERGO    R118146  12.566  17.207   9.882 -0.0154  0.0054  0.0162
 1258ERGO    R218147  12.615  17.394   9.684  0.1389  0.0308  0.0752
 1258ERGO    R318148  12.652  17.173   9.530  0.0897  0.0478  0.0380
 1258ERGO    R418149  12.635  17.395   9.339  0.1628  0.0792  0.0762
 1258ERGO    R518150  12.517  17.212   9.336  0.1152  0.1140  0.0358
 1258ERGO    C118151  12.682  17.188   8.993  0.1305  0.1230  0.0419
 1258ERGO    C218152  12.628  17.174   8.642 -0.2249  0.0879  0.0441
 1259ERGO   ROH18153   5.921   7.473   6.274  0.1553 -0.1875  0.1297
 1259ERGO    R118154   5.885   7.546   6.545  0.0199 -0.1531  0.1045
 1259ERGO    R218155   5.684   7.439   6.703 -0.0248 -0.1826  0.0401
 1259ERGO    R318156   5.891   7.376   6.867 -0.0736 -0.1038  0.1302
 1259ERGO    R418157   5.662   7.405   7.046 -0.1156 -0.0395  0.0484
 1259ERGO    R518158   5.853   7.506   7.064 -0.1319 -0.0275  0.0628
 1259ERGO    C118159   5.843   7.326   7.400 -0.2144  0.1179  0.1379
 1259ERGO    C218160   5.943   7.356   7.819 -0.3830 -0.1284  0.0104
 1260ERGO   ROH18161   7.298  13.777   6.390  0.1174  0.2990  0.0727
 1260ERGO    R118162   7.437  13.793   6.636  0.1133  0.1574  0.0851
 1260ERGO    R218163   7.393  13.996   6.819  0.2117  0.1311  0.1385
 1260ERGO    R318164   7.350  13.788   6.989  0.0922  0.1069  0.0794
 1260ERGO    R418165   7.299  14.027   7.150 -0.0077  0.0847  0.0821
 1260ERGO    R518166   7.435  13.865   7.199 -0.0448  0.0734  0.1481
 1260ERGO    C118167   7.204  13.851   7.503 -0.2477  0.0350 -0.0062
 1260ERGO    C218168   6.955  13.647   7.877 -0.1003  0.1232 -0.0850
 1261ERGO   ROH18169   1.631  13.959  10.202 -0.2394 -0.2755 -0.1549
 1261ERGO    R118170   1.555  14.005   9.933 -0.3672 -0.0005 -0.0763
 1261ERGO    R218171   1.460  14.250   9.845  0.1330  0.2754  0.0913
 1261ERGO    R318172   1.659  14.225   9.663 -0.0684 -0.1483 -0.0826
 1261ERGO    R418173   1.446  14.364   9.519  0.1462  0.4374  0.1478
 1261ERGO    R518174   1.547  14.182   9.456 -0.3478  0.2055 -0.0100
 1261ERGO    C118175   1.626  14.406   9.158 -0.0351  0.1340  0.0175
 1261ERGO    C218176   1.559  14.461   8.726  0.0359 -0.2462  0.0798
 1262ERGO   ROH18177   6.020   3.613   6.659 -0.0231  0.0651  0.0452
 1262ERGO    R118178   5.935   3.681   6.921 -0.0296  0.0485  0.0473
 1262ERGO    R218179   5.727   3.552   7.049  0.0529 -0.0470  0.0842
 1262ERGO    R318180   5.912   3.515   7.244  0.0941  0.0712  0.0683
 1262ERGO    R418181   5.661   3.560   7.388  0.0608 -0.1558  0.0888
 1262ERGO    R518182   5.848   3.668   7.416 -0.0232 -0.0073  0.0968
 1262ERGO    C118183   5.797   3.530   7.768  0.1039 -0.1083  0.0766
 1262ERGO    C218184   5.838   3.423   8.160 -0.1611 -0.0682 -0.0078
 1263ERGO   ROH18185  13.639  14.691   6.518  0.0697  0.2068  0.0225
 1263ERGO    R118186  13.615  14.531   6.751 -0.0609  0.0846 -0.0728
 1263ERGO    R218187  13.731  14.601   6.992  0.1515 -0.2437 -0.0720
 1263ERGO    R318188  13.477  14.571   7.085  0.1436  0.0675  0.0140
 1263ERGO    R418189  13.648  14.533   7.320  0.1925 -0.3543 -0.0844
 1263ERGO    R518190  13.494  14.397   7.249 -0.0442 -0.0763 -0.1178
 1263ERGO    C118191  13.362  14.466   7.600  0.2091 -0.1268 -0.0109
 1263ERGO    C218192  13.219  14.490   7.916  0.0792 -0.4231 -0.4167
 1264ERGO   ROH18193  14.508  12.862   6.219  0.2797  0.1133  0.0714
 1264ERGO    R118194  14.524  12.686   6.441 -0.1027  0.2515  0.2182
 1264ERGO    R218195  14.761  12.564   6.518 -0.4076 -0.4713  0.0992
 1264ERGO    R318196  14.702  12.676   6.758  0.1758 -0.0307  0.0600
 1264ERGO    R418197  14.872  12.447   6.823 -0.3410 -0.4249  0.0929
 1264ERGO    R518198  14.675  12.490   6.906 -0.1444  0.1920  0.2987
 1264ERGO    C118199  14.881  12.483   7.227  0.2455  0.0158  0.0524
 1264ERGO    C218200  14.905  12.381   7.518 -0.0504 -0.0761 -0.1932
 1265ERGO   ROH18201  16.254   1.414   6.443  0.1871 -0.0312 -0.0175
 1265ERGO    R118202  16.318   1.305   6.696  0.0471 -0.0431  0.0143
 1265ERGO    R218203  16.534   1.391   6.844  0.0935 -0.1997  0.0402
 1265ERGO    R318204  16.346   1.427   7.038  0.0862 -0.0072 -0.0011
 1265ERGO    R418205  16.596   1.377   7.184 -0.0370 -0.5555  0.0524
 1265ERGO    R518206  16.407   1.270   7.209 -0.2419 -0.2453 -0.0906
 1265ERGO    C118207  16.456   1.402   7.564 -0.1199 -0.5820  0.0207
 1265ERGO    C218208  16.605   1.439   7.896 -0.0818 -0.0266 -0.2885
 1266ERGO   ROH18209   4.728   2.205  10.099  0.0300 -0.1809  0.2184
 1266ERGO    R118210   4.670   2.253   9.826 -0.1300 -0.1922  0.2481
 1266ERGO    R218211   4.862   2.336   9.645 -0.3022  0.1605  0.2030
 1266ERGO    R318212   4.776   2.119   9.505 -0.0135  0.0575  0.1836
 1266ERGO    R418213   4.947   2.265   9.318 -0.1702  0.2498  0.2183
 1266ERGO    R518214   4.742   2.201   9.283 -0.0765  0.0035  0.1831
 1266ERGO    C118215   4.917   2.020   8.996  0.1778  0.2053  0.2090
 1266ERGO    C218216   4.999   1.919   8.676 -0.2087  0.2196  0.0702
 1267ERGO   ROH18217  11.390  11.714   6.701  0.1422  0.0108  0.0781
 1267ERGO    R118218  11.411  11.910   6.904  0.1716  0.0453  0.0417
 1267ERGO    R218219  11.205  12.083   6.964  0.1989  0.0871  0.0089
 1267ERGO    R318220  11.240  11.987   7.216  0.1832  0.1302  0.0280
 1267ERGO    R418221  11.223  12.278   7.249 -0.1590  0.1184  0.0149
 1267ERGO    R518222  11.382  12.148   7.322 -0.0459  0.2953  0.0958
 1267ERGO    C118223  11.266  12.301   7.651 -0.3823  0.1771  0.0363
 1267ERGO    C218224  11.302  12.579   7.879  0.0260  0.0857  0.1641
 1268ERGO   ROH18225   1.287   3.492   6.034 -0.2992 -0.0826  0.0379
 1268ERGO    R118226   1.430   3.622   6.241 -0.2031 -0.0793 -0.0298
 1268ERGO    R218227   1.327   3.837   6.380 -0.1754 -0.1336  0.0751
 1268ERGO    R318228   1.383   3.682   6.597  0.0076 -0.1565  0.0125
 1268ERGO    R418229   1.348   3.952   6.705 -0.0888 -0.2002  0.0933
 1268ERGO    R518230   1.520   3.821   6.735 -0.0034 -0.1156 -0.0171
 1268ERGO    C118231   1.414   3.874   7.098  0.1334 -0.2605  0.0451
 1268ERGO    C218232   1.354   4.015   7.349 -0.2598 -0.2103  0.1705
 1269ERGO   ROH18233   4.382   6.745   8.266 -0.1683  0.1181  0.3820
 1269ERGO    R118234   4.368   6.985   8.117 -0.0160  0.1227  0.3751
 1269ERGO    R218235   4.141   7.061   7.980  0.1897  0.0238 -0.0234
 1269ERGO    R318236   4.169   7.289   8.125 -0.1781  0.0322  0.0468
 1269ERGO    R418237   4.071   7.379   7.864  0.4595  0.0121 -0.2291
 1269ERGO    R518238   4.249   7.450   7.967  0.2158  0.0257  0.2204
 1269ERGO    C118239   4.057   7.778   7.932  0.2713  0.0130 -0.2831
 1269ERGO    C218240   4.061   8.175   7.991 -0.0881  0.5121 -0.1610
 1270ERGO   ROH18241  16.314   2.532   6.396  0.0168 -0.0624  0.0121
 1270ERGO    R118242  16.397   2.393   6.628  0.0726 -0.0621 -0.0067
 1270ERGO    R218243  16.567   2.504   6.815  0.0270 -0.0165  0.0143
 1270ERGO    R318244  16.367   2.438   6.988  0.0482 -0.1236 -0.0023
 1270ERGO    R418245  16.600   2.488   7.159 -0.0367  0.1349  0.0281
 1270ERGO    R518246  16.476   2.309   7.158  0.1184  0.0315  0.0675
 1270ERGO    C118247  16.433   2.417   7.521 -0.0537  0.1224  0.0206
 1270ERGO    C218248  16.592   2.471   7.780 -0.2175  0.2050 -0.0760
 1271ERGO   ROH18249   0.349   8.314   6.020 -0.2194 -0.2551  0.0055
 1271ERGO    R118250   0.350   8.202   6.280 -0.0979 -0.1255  0.0629
 1271ERGO    R218251   0.518   8.292   6.481 -0.0322  0.0055 -0.0447
 1271ERGO    R318252   0.285   8.319   6.619  0.0150  0.0351  0.0290
 1271ERGO    R418253   0.494   8.345   6.821  0.0737  0.0133 -0.0385
 1271ERGO    R518254   0.326   8.208   6.827  0.0623  0.0362  0.0168
 1271ERGO    C118255   0.262   8.402   7.149  0.1797  0.0456  0.0343
 1271ERGO    C218256   0.175   8.429   7.591  0.1136 -0.0239 -0.1113
 1272ERGO   ROH18257  16.356   7.885   6.157 -0.1195  0.2172 -0.1545
 1272ERGO    R118258  16.391   7.918   6.436 -0.2883 -0.0232 -0.1026
 1272ERGO    R218259  16.508   8.142   6.546 -0.0585 -0.2583  0.1400
 1272ERGO    R318260  16.278   8.152   6.691 -0.1613 -0.0395 -0.0297
 1272ERGO    R418261  16.474   8.299   6.852 -0.1754 -0.0892  0.0428
 1272ERGO    R518262  16.351   8.132   6.918 -0.3352  0.0190  0.0352
 1272ERGO    C118263  16.238   8.399   7.166 -0.3401  0.2146 -0.1731
 1272ERGO    C218264  16.173   8.806   7.249 -0.3208 -0.1530 -0.0250
 1273ERGO   ROH18265   2.650  11.270  10.291  0.0439 -0.1119 -0.0184
 1273ERGO    R118266   2.717  11.274  10.016  0.0214 -0.0819 -0.0239
 1273ERGO    R218267   2.729  11.044   9.862 -0.0773 -0.0576 -0.0721
 1273ERGO    R318268   2.555  11.180   9.704 -0.0416  0.0394 -0.0279
 1273ERGO    R418269   2.704  11.009   9.519 -0.0477  0.1029 -0.0908
 1273ERGO    R518270   2.678  11.225   9.504 -0.0157  0.1134  0.0051
 1273ERGO    C118271   2.526  11.117   9.171  0.0029  0.2874 -0.0600
 1273ERGO    C218272   2.394  11.166   8.767 -0.0244 -0.1557  0.5589
 1274ERGO   ROH18273  14.029   6.032   6.382 -0.2885 -0.1161 -0.0507
 1274ERGO    R118274  13.917   6.186   6.591 -0.1593 -0.0855 -0.0044
 1274ERGO    R218275  13.792   6.071   6.810 -0.1101 -0.0500  0.0393
 1274ERGO    R318276  13.970   6.222   6.950 -0.0107 -0.1077 -0.0228
 1274ERGO    R418277  13.814   6.083   7.155 -0.2161  0.1983  0.0403
 1274ERGO    R518278  13.848   6.298   7.141 -0.0064  0.1610 -0.1199
 1274ERGO    C118279  13.994   6.231   7.486 -0.1848  0.2886 -0.0174
 1274ERGO    C218280  14.113   5.993   7.754 -0.0504 -0.0396 -0.0376
 1275ERGO   ROH18281   0.289  15.398   7.904  0.3547  0.0941  0.2717
 1275ERGO    R118282   0.010  15.404   7.955  0.3102 -0.1903  0.0898
 1275ERGO    R218283  -0.102  15.292   8.181  0.3357  0.0825  0.2451
 1275ERGO    R318284  -0.208  15.540   8.212 -0.0289  0.0111 -0.2931
 1275ERGO    R418285  -0.422  15.359   8.293  0.2833 -0.1388  0.2316
 1275ERGO    R518286  -0.436  15.517   8.145 -0.0323 -0.4971 -0.1425
 1275ERGO    C118287  -0.707  15.631   8.388 -0.0894 -0.3347 -0.2814
 1275ERGO    C218288  -1.000  15.649   8.423 -0.0200 -0.1205  0.1096
 1276ERGO   ROH18289   5.504   0.843  10.427 -0.1158  0.0147 -0.0489
 1276ERGO    R118290   5.339   0.726  10.229 -0.0903  0.0189 -0.0730
 1276ERGO    R218291   5.120   0.857  10.122 -0.0888  0.0136 -0.0848
 1276ERGO    R318292   5.244   0.803   9.886 -0.0624  0.0382 -0.0763
 1276ERGO    R418293   4.958   0.787   9.825 -0.0577 -0.3431 -0.0219
 1276ERGO    R518294   5.108   0.634   9.785  0.1233 -0.1844  0.0356
 1276ERGO    C118295   4.979   0.695   9.431 -0.0147 -0.5277  0.0226
 1276ERGO    C218296   4.995   0.568   9.166  0.1618 -0.1007  0.0606
 1277ERGO   ROH18297   3.561  11.560  10.378 -0.2672 -0.0438 -0.0955
 1277ERGO    R118298   3.696  11.587  10.130 -0.1926  0.1829 -0.0320
 1277ERGO    R218299   3.732  11.376   9.956  0.0926  0.2803 -0.0970
 1277ERGO    R318300   3.614  11.545   9.778 -0.0067  0.2271 -0.0819
 1277ERGO    R418301   3.737  11.338   9.612 -0.1476  0.1446 -0.0872
 1277ERGO    R518302   3.765  11.553   9.593 -0.1312  0.1346 -0.1900
 1277ERGO    C118303   3.629  11.474   9.246 -0.3807  0.0155 -0.0673
 1277ERGO    C218304   3.533  11.555   8.924 -0.0087 -0.0417 -0.1651
 1278ERGO   ROH18305  14.404  17.541   6.580 -0.0315 -0.1590 -0.0501
 1278ERGO    R118306  14.350  17.576   6.855  0.0854 -0.1081 -0.0329
 1278ERGO    R218307  14.103  17.658   6.949  0.1802  0.0979  0.0455
 1278ERGO    R318308  14.122  17.432   7.100  0.0437  0.0835  0.0425
 1278ERGO    R418309  13.948  17.610   7.255  0.1000  0.1636  0.0152
 1278ERGO    R518310  14.129  17.512   7.326  0.0401  0.0739  0.0460
 1278ERGO    C118311  13.876  17.370   7.574 -0.0748  0.1883 -0.0051
 1278ERGO    C218312  13.617  17.258   7.827  0.3082  0.2905  0.1523
 1279ERGO   ROH18313  14.981  11.301   9.860 -0.0866 -0.0476  0.0574
 1279ERGO    R118314  14.920  11.458   9.633  0.1221  0.0122  0.0411
 1279ERGO    R218315  15.108  11.516   9.438  0.1802 -0.3402 -0.0156
 1279ERGO    R318316  14.921  11.411   9.272 -0.0411 -0.0626  0.0501
 1279ERGO    R418317  15.109  11.548   9.094  0.1743 -0.4450 -0.0256
 1279ERGO    R518318  14.893  11.576   9.101  0.2195 -0.0609  0.0068
 1279ERGO    C118319  14.934  11.468   8.737 -0.0370 -0.2452  0.0303
 1279ERGO    C218320  15.147  11.485   8.389 -0.1984  0.0120 -0.0146
 1280ERGO   ROH18321  14.736  15.013   6.281 -0.0097  0.0442 -0.0469
 1280ERGO    R118322  14.674  14.802   6.459  0.0697 -0.0064 -0.0792
 1280ERGO    R218323  14.861  14.689   6.628  0.0935  0.0900 -0.0429
 1280ERGO    R318324  14.677  14.749   6.819  0.0113 -0.0335 -0.0818
 1280ERGO    R418325  14.846  14.541   6.940  0.1832  0.1358 -0.0164
 1280ERGO    R518326  14.628  14.538   6.922  0.1843 -0.0605 -0.0480
 1280ERGO    C118327  14.664  14.511   7.301  0.1581  0.0464 -0.0376
 1280ERGO    C218328  14.668  14.544   7.587  0.2366  0.1361  0.0151
 1281ERGO   ROH18329  12.036   5.741  10.269 -0.1457  0.2001 -0.1305
 1281ERGO    R118330  11.932   5.516  10.132  0.0175  0.0661 -0.0391
 1281ERGO    R218331  11.703   5.529   9.977 -0.1230 -0.2167  0.1351
 1281ERGO    R318332  11.866   5.426   9.785 -0.1419 -0.0269  0.0152
 1281ERGO    R418333  11.615   5.277   9.758 -0.0609 -0.1663  0.0516
 1281ERGO    R518334  11.814   5.192   9.783  0.0007 -0.0573 -0.0751
 1281ERGO    C118335  11.716   5.033   9.450 -0.0424  0.0414 -0.1094
 1281ERGO    C218336  11.554   4.754   9.270 -0.2083  0.0045  0.1361
 1282ERGO   ROH18337   6.170   1.500   6.605  0.0847  0.0010 -0.0780
 1282ERGO    R118338   6.135   1.509   6.886  0.0205  0.1112 -0.0905
 1282ERGO    R218339   6.337   1.443   7.063 -0.0710  0.0365 -0.0254
 1282ERGO    R318340   6.284   1.689   7.165  0.0651  0.1015 -0.1049
 1282ERGO    R418341   6.495   1.581   7.338 -0.2038 -0.1048  0.1258
 1282ERGO    R518342   6.303   1.661   7.402 -0.2027  0.0940 -0.0755
 1282ERGO    C118343   6.538   1.893   7.593 -0.1533 -0.1261  0.1392
 1282ERGO    C218344   6.778   1.936   7.833  0.3716  0.1950 -0.0642
 1283ERGO   ROH18345   9.499  12.258   6.279 -0.1866  0.1208  0.0812
 1283ERGO    R118346   9.504  12.364   6.541 -0.2337  0.0772  0.1005
 1283ERGO    R218347   9.275  12.393   6.695 -0.2272 -0.2188  0.1753
 1283ERGO    R318348   9.418  12.248   6.875 -0.0016 -0.0910  0.1038
 1283ERGO    R418349   9.239  12.411   7.038 -0.0842 -0.2701  0.1934
 1283ERGO    R518350   9.455  12.397   7.057 -0.0604 -0.0631  0.0919
 1283ERGO    C118351   9.351  12.285   7.407  0.2109 -0.1798  0.1368
 1283ERGO    C218352   9.189  12.341   7.722  0.0339 -0.1892 -0.1241
 1284ERGO   ROH18353  14.863  15.442   6.521  0.2285  0.1856  0.0166
 1284ERGO    R118354  14.796  15.232   6.698  0.1139  0.1459 -0.0726
 1284ERGO    R218355  14.986  15.082   6.831  0.0307  0.0408 -0.0704
 1284ERGO    R318356  14.846  15.158   7.051 -0.0058  0.0101 -0.0831
 1284ERGO    R418357  15.052  14.977   7.154 -0.1465 -0.1595 -0.0978
 1284ERGO    R518358  14.837  14.961   7.187 -0.1679 -0.0543 -0.1842
 1284ERGO    C118359  14.958  14.987   7.548 -0.2840 -0.3050 -0.1257
 1284ERGO    C218360  14.834  15.021   7.833 -0.0360  0.2213  0.0247
 1285ERGO   ROH18361  16.945   4.333   6.622 -0.1106  0.0704 -0.1678
 1285ERGO    R118362  17.050   4.258   6.874 -0.0441  0.0070 -0.2133
 1285ERGO    R218363  17.130   4.443   7.063  0.1452 -0.0397 -0.2431
 1285ERGO    R318364  16.959   4.306   7.223  0.1333  0.0569 -0.1733
 1285ERGO    R418365  17.123   4.463   7.408  0.2746 -0.0129 -0.2421
 1285ERGO    R518366  17.090   4.248   7.415  0.1702  0.0053 -0.2155
 1285ERGO    C118367  16.958   4.346   7.759  0.3387  0.0934 -0.1759
 1285ERGO    C218368  17.017   4.215   8.131 -0.1085  0.2713  0.1881
 1286ERGO   ROH18369  11.353  13.078   6.596  0.1164  0.0336  0.0974
 1286ERGO    R118370  11.409  13.160   6.861  0.0203  0.0168  0.1246
 1286ERGO    R218371  11.323  13.402   6.963 -0.0152  0.0148  0.1099
 1286ERGO    R318372  11.218  13.245   7.158 -0.0899  0.0009  0.0574
 1286ERGO    R418373  11.202  13.517   7.266  0.0946 -0.0368  0.1732
 1286ERGO    R518374  11.293  13.344   7.362 -0.0033 -0.1332  0.0895
 1286ERGO    C118375  11.032  13.437   7.625  0.0882 -0.0797  0.1607
 1286ERGO    C218376  10.924  13.616   7.841  0.2688 -0.2499 -0.4849
 1287ERGO   ROH18377  11.204  10.010   6.240  0.0070  0.0706 -0.0917
 1287ERGO    R118378  11.157   9.855   6.472 -0.0611  0.1815 -0.0304
 1287ERGO    R218379  11.217   9.586   6.486 -0.2618  0.1378  0.0436
 1287ERGO    R318380  11.357   9.662   6.706 -0.1557  0.1057 -0.0117
 1287ERGO    R418381  11.224   9.412   6.784 -0.0319  0.0382 -0.0169
 1287ERGO    R518382  11.214   9.603   6.890 -0.0299 -0.0008  0.0532
 1287ERGO    C118383  11.358   9.382   7.166  0.2015 -0.0500 -0.1041
 1287ERGO    C218384  11.508   9.235   7.450  0.2785  0.0675 -0.2440
 1288ERGO   ROH18385  12.036   9.111   6.036 -0.0857 -0.3159  0.0423
 1288ERGO    R118386  12.081   8.960   6.271  0.0907 -0.1976  0.0892
 1288ERGO    R218387  12.310   8.986   6.424  0.0635  0.1254  0.0972
 1288ERGO    R318388  12.132   9.031   6.624 -0.0060 -0.0276  0.0678
 1288ERGO    R418389  12.386   8.986   6.761 -0.0498 -0.0330  0.1221
 1288ERGO    R518390  12.199   8.882   6.799 -0.0281 -0.0972  0.0093
 1288ERGO    C118391  12.263   9.028   7.145 -0.1810 -0.2689  0.1091
 1288ERGO    C218392  12.421   9.093   7.304  0.0476  0.0902  0.0724
 1289ERGO   ROH18393  12.164   4.144  10.371 -0.0017  0.1352  0.0797
 1289ERGO    R118394  12.025   4.093  10.130  0.0802 -0.0309  0.0669
 1289ERGO    R218395  12.032   4.266   9.915 -0.0838 -0.0352  0.0608
 1289ERGO    R318396  12.112   4.044   9.780  0.1728  0.0423  0.0784
 1289ERGO    R418397  12.090   4.252   9.574 -0.1331 -0.0071  0.0504
 1289ERGO    R518398  11.995   4.056   9.571  0.1121 -0.1339  0.0985
 1289ERGO    C118399  12.199   4.035   9.250  0.0791  0.0820  0.0609
 1289ERGO    C218400  12.373   3.916   9.033 -0.1428  0.0118 -0.3568
 1290ERGO   ROH18401   6.915   3.356   6.631 -0.2405  0.0725 -0.0229
 1290ERGO    R118402   6.878   3.344   6.911 -0.2873  0.0634 -0.0283
 1290ERGO    R218403   6.728   3.148   7.034 -0.1941 -0.0263 -0.0452
 1290ERGO    R318404   6.955   3.110   7.179 -0.1947  0.1202 -0.0067
 1290ERGO    R418405   6.737   3.045   7.364 -0.1775  0.1030 -0.0059
 1290ERGO    R518406   6.899   3.187   7.398 -0.2422  0.1780 -0.0434
 1290ERGO    C118407   6.955   2.950   7.692 -0.1684  0.3158  0.0532
 1290ERGO    C218408   6.916   2.771   7.991 -0.1384  0.0704  0.1599
 1291ERGO   ROH18409   2.034   6.072   6.199 -0.1502  0.1798  0.0382
 1291ERGO    R118410   2.223   5.999   6.397 -0.1021  0.0425 -0.0567
 1291ERGO    R218411   2.324   6.180   6.581  0.1228 -0.0297 -0.1063
 1291ERGO    R318412   2.237   5.996   6.760  0.0787  0.0335 -0.0627
 1291ERGO    R418413   2.404   6.176   6.917  0.0067  0.1134 -0.0757
 1291ERGO    R518414   2.422   5.960   6.905  0.0323  0.1101  0.0170
 1291ERGO    C118415   2.369   6.000   7.281 -0.1024  0.2559 -0.0168
 1291ERGO    C218416   2.267   5.991   7.584  0.2012 -0.1447 -0.2385
 1292ERGO   ROH18417   4.762  12.718  10.505 -0.1411 -0.1079 -0.0801
 1292ERGO    R118418   4.786  12.656  10.230 -0.1225 -0.1360 -0.0722
 1292ERGO    R218419   4.567  12.594  10.072 -0.1330  0.0297 -0.1229
 1292ERGO    R318420   4.665  12.795   9.916  0.0625 -0.0510 -0.1077
 1292ERGO    R418421   4.436  12.689   9.767 -0.0503  0.1840 -0.1116
 1292ERGO    R518422   4.640  12.714   9.693 -0.0238 -0.0100 -0.1144
 1292ERGO    C118423   4.451  12.932   9.442  0.1814  0.1982 -0.0909
 1292ERGO    C218424   4.337  12.987   9.028 -0.1439 -0.2447  0.4167
 1293ERGO   ROH18425  17.522  14.066   6.102  0.1867 -0.0496  0.0176
 1293ERGO    R118426  17.624  14.114   6.362  0.1427 -0.0324  0.0320
 1293ERGO    R218427  17.464  14.191   6.573  0.0995 -0.0658  0.0114
 1293ERGO    R318428  17.576  13.976   6.695  0.1249 -0.0451  0.0245
 1293ERGO    R418429  17.495  14.152   6.915  0.1601 -0.0105  0.0123
 1293ERGO    R518430  17.693  14.068   6.882  0.1566 -0.0125 -0.0105
 1293ERGO    C118431  17.617  13.927   7.229  0.2193  0.0411  0.0251
 1293ERGO    C218432  17.751  13.993   7.437  0.2265  0.2738 -0.2036
 1294ERGO   ROH18433   7.851   9.300   6.040 -0.1306  0.1164 -0.0436
 1294ERGO    R118434   7.879   9.360   6.315  0.0738 -0.1262 -0.0082
 1294ERGO    R218435   7.698   9.518   6.452  0.3998  0.1063  0.1613
 1294ERGO    R318436   7.688   9.304   6.619  0.0726  0.0023  0.0169
 1294ERGO    R418437   7.591   9.529   6.781  0.5127  0.0778  0.1999
 1294ERGO    R518438   7.752   9.391   6.833  0.2948 -0.2494  0.0614
 1294ERGO    C118439   7.519   9.334   7.129  0.2713 -0.0364  0.0869
 1294ERGO    C218440   7.335   9.328   7.332 -0.0234 -0.0183  0.0367
 1295ERGO   ROH18441   1.421  13.590   5.961  0.2579  0.0731  0.0542
 1295ERGO    R118442   1.440  13.443   6.203  0.1360  0.0330  0.0403
 1295ERGO    R218443   1.636  13.492   6.392  0.2039 -0.1743  0.0269
 1295ERGO    R318444   1.423  13.516   6.559  0.2407  0.0222  0.0479
 1295ERGO    R418445   1.657  13.532   6.734  0.2744 -0.2781  0.0353
 1295ERGO    R518446   1.488  13.397   6.756  0.1241 -0.0977  0.0149
 1295ERGO    C118447   1.469  13.578   7.091  0.3500 -0.1541  0.0598
 1295ERGO    C218448   1.438  13.507   7.375  0.2535  0.3875  0.1644
 1296ERGO   ROH18449  11.111   2.125   6.083 -0.0267  0.1439 -0.1207
 1296ERGO    R118450  11.116   2.063   6.359 -0.3551  0.1991 -0.0990
 1296ERGO    R218451  11.341   2.097   6.516 -0.3798 -0.2512  0.0448
 1296ERGO    R318452  11.171   2.243   6.670 -0.1770  0.1624 -0.1074
 1296ERGO    R418453  11.382   2.155   6.854 -0.5624 -0.4063  0.0951
 1296ERGO    R518454  11.167   2.127   6.880 -0.6758  0.1296 -0.1213
 1296ERGO    C118455  11.246   2.325   7.196 -0.4784 -0.1083 -0.0184
 1296ERGO    C218456  11.398   2.296   7.433  0.0789 -0.3454  0.1596
 1297ERGO   ROH18457   9.492  17.102   6.205 -0.1389 -0.1439  0.0171
 1297ERGO    R118458   9.261  17.096   6.369 -0.1022 -0.1911  0.0688
 1297ERGO    R218459   9.246  16.942   6.597  0.0103 -0.1334  0.1232
 1297ERGO    R318460   9.181  17.179   6.714 -0.0575 -0.1222  0.0612
 1297ERGO    R418461   9.153  16.981   6.928  0.3687 -0.0125  0.2131
 1297ERGO    R518462   9.002  17.124   6.864  0.1689 -0.1854  0.3072
 1297ERGO    C118463   9.038  17.226   7.230  0.5137  0.0682  0.2073
 1297ERGO    C218464   8.754  17.245   7.507  0.2938  0.2249 -0.0283
 1298ERGO   ROH18465  13.055   0.797   6.522  0.0487  0.1438  0.1852
 1298ERGO    R118466  13.155   0.774   6.786  0.0228  0.1149  0.1933
 1298ERGO    R218467  13.093   0.956   6.984  0.1075  0.1677  0.1761
 1298ERGO    R318468  13.014   0.733   7.119 -0.0189  0.2200  0.1882
 1298ERGO    R418469  12.997   0.949   7.316  0.2542  0.2101  0.2195
 1298ERGO    R518470  13.105   0.761   7.339  0.1050  0.1180  0.1486
 1298ERGO    C118471  12.867   0.735   7.636  0.2210  0.2839  0.2562
 1298ERGO    C218472  12.741   0.676   7.967 -0.3573  0.1683 -0.2688
 1299ERGO   ROH18473   1.603  16.249  10.273  0.2728  0.0517  0.0505
 1299ERGO    R118474   1.673  16.346  10.016  0.3315 -0.1495 -0.0104
 1299ERGO    R218475   1.713  16.178   9.799 -0.0384 -0.2936  0.0276
 1299ERGO    R318476   1.528  16.338   9.682  0.1787 -0.0172  0.0517
 1299ERGO    R418477   1.663  16.206   9.459 -0.1572 -0.3597  0.0384
 1299ERGO    R518478   1.636  16.421   9.485  0.2306 -0.2925 -0.0401
 1299ERGO    C118479   1.461  16.373   9.150 -0.0226 -0.1387  0.0674
 1299ERGO    C218480   1.611  16.408   8.802 -0.1249  0.1872 -0.1052
 1300ERGO   ROH18481   2.881  12.826   5.831  0.0879  0.1003 -0.0323
 1300ERGO    R118482   2.810  12.682   6.065 -0.0925  0.1258 -0.0709
 1300ERGO    R218483   2.983  12.651   6.279 -0.0997 -0.2141 -0.1149
 1300ERGO    R318484   2.775  12.755   6.420  0.0822  0.0570 -0.0367
 1300ERGO    R418485   2.935  12.612   6.619 -0.1703 -0.4139 -0.1462
 1300ERGO    R518486   2.722  12.586   6.581 -0.2289  0.0079 -0.1773
 1300ERGO    C118487   2.711  12.686   6.949 -0.0407 -0.2758 -0.0909
 1300ERGO    C218488   2.747  12.625   7.331  0.0772  0.1814  0.1451
 1301ERGO   ROH18489  15.814   8.178   9.907 -0.0734  0.1372  0.0996
 1301ERGO    R118490  15.588   8.233   9.745 -0.0803  0.0145  0.0686
 1301ERGO    R218491  15.549   8.477   9.623 -0.2386  0.0189  0.1377
 1301ERGO    R318492  15.527   8.325   9.398 -0.0794  0.0739  0.0827
 1301ERGO    R418493  15.385   8.575   9.334 -0.1385  0.0514  0.0905
 1301ERGO    R518494  15.307   8.372   9.317 -0.0620  0.0239 -0.0054
 1301ERGO    C118495  15.270   8.489   8.956  0.0692  0.1218  0.0113
 1301ERGO    C218496  15.073   8.585   8.726  0.0400  0.2003  0.3198
 1302ERGO   ROH18497   8.392   4.976  10.115  0.0534 -0.3228 -0.0494
 1302ERGO    R118498   8.529   5.098   9.899  0.0106 -0.2256 -0.0224
 1302ERGO    R218499   8.780   5.016   9.816  0.0167 -0.1564 -0.0784
 1302ERGO    R318500   8.657   4.994   9.575 -0.0072 -0.0936 -0.0716
 1302ERGO    R418501   8.941   4.956   9.517 -0.0235 -0.1487 -0.1015
 1302ERGO    R518502   8.808   5.099   9.421  0.0020 -0.1061 -0.0691
 1302ERGO    C118503   8.919   4.901   9.115 -0.0692 -0.0854 -0.1084
 1302ERGO    C218504   8.906   4.709   8.798  0.3594 -0.3009  0.1115
 1303ERGO   ROH18505   7.355   9.089  10.227  0.0667  0.1321 -0.0959
 1303ERGO    R118506   7.504   9.053   9.990  0.1774  0.1493 -0.0277
 1303ERGO    R218507   7.385   9.015   9.743  0.2941 -0.0592 -0.0440
 1303ERGO    R318508   7.541   9.226   9.672  0.1469  0.0361 -0.0969
 1303ERGO    R418509   7.440   9.119   9.418  0.0870 -0.0204 -0.0695
 1303ERGO    R518510   7.649   9.155   9.470  0.1007  0.0959 -0.1527
 1303ERGO    C118511   7.619   9.378   9.162 -0.1719  0.0917 -0.1341
 1303ERGO    C218512   7.886   9.362   8.925 -0.0701 -0.2750  0.1133
 1304ERGO   ROH18513   3.498   0.817   6.420 -0.1421 -0.1750  0.1400
 1304ERGO    R118514   3.682   0.720   6.612 -0.0938 -0.1358  0.1133
 1304ERGO    R218515   3.727   0.848   6.853 -0.0051 -0.0664  0.0586
 1304ERGO    R318516   3.668   0.603   6.956  0.0008 -0.0277  0.1554
 1304ERGO    R418517   3.778   0.755   7.182  0.2785 -0.0256  0.0280
 1304ERGO    R518518   3.846   0.560   7.111  0.1380 -0.0658 -0.0070
 1304ERGO    C118519   3.754   0.471   7.470  0.4492  0.0344  0.1011
 1304ERGO    C218520   3.824   0.274   7.780  0.2289 -0.0199 -0.2423
 1305ERGO   ROH18521  16.864  16.694   6.224  0.0691 -0.0188  0.1220
 1305ERGO    R118522  16.791  16.556   6.460  0.0089  0.2032  0.2366
 1305ERGO    R218523  16.869  16.296   6.510 -0.3630  0.0986  0.3028
 1305ERGO    R318524  16.965  16.402   6.741 -0.0387  0.0623  0.1892
 1305ERGO    R418525  16.855  16.141   6.819 -0.3445  0.2412  0.3753
 1305ERGO    R518526  16.807  16.335   6.908 -0.0100  0.3482  0.3377
 1305ERGO    C118527  16.937  16.151   7.216 -0.0291  0.2900  0.3108
 1305ERGO    C218528  16.993  16.109   7.591  0.0567 -0.1306 -0.0810
 1306ERGO   ROH18529  10.931   5.764   6.470 -0.0172 -0.1104  0.0178
 1306ERGO    R118530  10.971   5.569   6.670 -0.0008 -0.0960  0.0307
 1306ERGO    R218531  11.028   5.634   6.932  0.0702 -0.0757  0.0186
 1306ERGO    R318532  10.813   5.477   6.985  0.0546 -0.0330  0.0743
 1306ERGO    R418533  10.965   5.483   7.236 -0.0169  0.1214  0.0994
 1306ERGO    R518534  10.899   5.305   7.128  0.0048  0.0586  0.2059
 1306ERGO    C118535  10.726   5.247   7.463 -0.0823  0.2761  0.1988
 1306ERGO    C218536  10.772   5.099   7.738  0.0100 -0.1698 -0.0102
 1307ERGO   ROH18537   2.463   1.921   6.426  0.0748 -0.1532 -0.0692
 1307ERGO    R118538   2.411   1.891   6.702 -0.0104 -0.1575 -0.0852
 1307ERGO    R218539   2.582   1.985   6.897 -0.0706 -0.1580 -0.0295
 1307ERGO    R318540   2.359   2.111   6.988 -0.1005 -0.1613 -0.0989
 1307ERGO    R418541   2.504   2.033   7.231 -0.0738  0.0281 -0.0566
 1307ERGO    R518542   2.296   1.988   7.183 -0.0617 -0.0559 -0.0209
 1307ERGO    C118543   2.249   2.180   7.509 -0.1037  0.1333 -0.1375
 1307ERGO    C218544   2.058   2.313   7.884 -0.0891 -0.2416 -0.0595
 1308ERGO   ROH18545  15.884   5.517  10.317  0.2658 -0.2190 -0.1739
 1308ERGO    R118546  15.709   5.587  10.106  0.1380 -0.2098 -0.0657
 1308ERGO    R218547  15.775   5.773   9.913 -0.0210 -0.1243 -0.0361
 1308ERGO    R318548  15.714   5.571   9.742 -0.0353 -0.0881 -0.0752
 1308ERGO    R418549  15.675   5.816   9.585 -0.1153 -0.0469  0.0016
 1308ERGO    R518550  15.530   5.656   9.614 -0.0843 -0.0790 -0.0027
 1308ERGO    C118551  15.559   5.650   9.233 -0.1836  0.0321 -0.0132
 1308ERGO    C218552  15.577   5.616   8.924  0.2677 -0.2405  0.0092
 1309ERGO   ROH18553  12.586   7.219   6.147  0.1726  0.0749 -0.1670
 1309ERGO    R118554  12.494   7.230   6.414 -0.0220 -0.1952 -0.2187
 1309ERGO    R218555  12.536   7.024   6.594  0.2272 -0.2009 -0.2762
 1309ERGO    R318556  12.644   7.223   6.746 -0.2169 -0.0625 -0.1268
 1309ERGO    R418557  12.548   7.025   6.940  0.0355 -0.3222 -0.2684
 1309ERGO    R518558  12.499   7.237   6.936 -0.3518 -0.4059 -0.1991
 1309ERGO    C118559  12.655   7.211   7.283 -0.4932 -0.2630 -0.1236
 1309ERGO    C218560  12.754   7.126   7.637 -0.1597  0.1090  0.6373
 1310ERGO   ROH18561   8.232   4.701   6.487 -0.1614 -0.1259  0.0655
 1310ERGO    R118562   8.321   4.709   6.755 -0.0869 -0.1004  0.0401
 1310ERGO    R218563   8.190   4.853   6.951 -0.0488 -0.1060  0.0684
 1310ERGO    R318564   8.189   4.614   7.081  0.0165 -0.0985  0.0834
 1310ERGO    R418565   8.188   4.815   7.295  0.1558 -0.0834  0.0731
 1310ERGO    R518566   8.329   4.649   7.272  0.1348 -0.0929 -0.0021
 1310ERGO    C118567   8.186   4.569   7.617  0.3363 -0.0631  0.0899
 1310ERGO    C218568   8.028   4.730   7.814 -0.0821  0.1037  0.3967
 1311ERGO   ROH18569   5.187   8.813   6.520  0.1096  0.0661 -0.0550
 1311ERGO    R118570   5.090   8.742   6.776  0.0731  0.0138 -0.0834
 1311ERGO    R218571   5.252   8.734   7.000  0.0195  0.0669 -0.0435
 1311ERGO    R318572   5.063   8.900   7.103 -0.0734 -0.0140 -0.0810
 1311ERGO    R418573   5.246   8.849   7.326 -0.0057  0.1881 -0.0862
 1311ERGO    R518574   5.030   8.822   7.326  0.0098  0.0491 -0.0451
 1311ERGO    C118575   5.065   9.073   7.612 -0.1077  0.1828 -0.1462
 1311ERGO    C218576   5.235   9.424   7.745  0.1258 -0.0887 -0.1778
 1312ERGO   ROH18577   3.776   8.052   6.332 -0.1208 -0.0138 -0.1327
 1312ERGO    R118578   3.784   7.849   6.529 -0.0295 -0.0656 -0.1884
 1312ERGO    R218579   3.831   7.902   6.796  0.1651 -0.1407 -0.2030
 1312ERGO    R318580   3.599   7.766   6.831  0.1563 -0.0982 -0.0832
 1312ERGO    R418581   3.709   7.795   7.101  0.2427 -0.0351 -0.1339
 1312ERGO    R518582   3.647   7.609   7.006  0.1855 -0.0525 -0.0543
 1312ERGO    C118583   3.420   7.605   7.312  0.2796  0.0663  0.0189
 1312ERGO    C218584   3.272   7.617   7.511 -0.4304 -0.0922  0.0557
 1313ERGO   ROH18585   3.405  10.812   5.948 -0.1218 -0.0198  0.1216
 1313ERGO    R118586   3.264  10.871   6.186 -0.1513 -0.1200  0.1283
 1313ERGO    R218587   3.198  10.676   6.372  0.1078 -0.1484  0.1905
 1313ERGO    R318588   3.326  10.843   6.544 -0.0587  0.0506  0.1270
 1313ERGO    R418589   3.160  10.673   6.715  0.3704 -0.2993  0.2219
 1313ERGO    R518590   3.163  10.891   6.712 -0.0271 -0.2825  0.2628
 1313ERGO    C118591   3.257  10.828   7.077  0.3669 -0.2005  0.1807
 1313ERGO    C218592   3.181  10.773   7.476  0.0613 -0.3230 -0.3557
 1314ERGO   ROH18593  15.057   4.720  10.279  0.1378 -0.1558 -0.0299
 1314ERGO    R118594  15.056   4.621  10.014  0.0320 -0.1372 -0.0370
 1314ERGO    R218595  14.856   4.680   9.833  0.0320 -0.0110  0.0051
 1314ERGO    R318596  15.064   4.762   9.678  0.0495 -0.1183 -0.0290
 1314ERGO    R418597  14.862   4.668   9.488 -0.0083 -0.0750  0.0068
 1314ERGO    R518598  15.070   4.604   9.499 -0.0302 -0.1542 -0.0019
 1314ERGO    C118599  15.060   4.737   9.141 -0.0153 -0.2130 -0.0243
 1314ERGO    C218600  15.049   4.726   8.774 -0.3397  0.0240 -0.1352
 1315ERGO   ROH18601  17.324   4.051   6.600 -0.0117 -0.2893 -0.0166
 1315ERGO    R118602  17.449   3.999   6.848 -0.0213 -0.1748  0.0125
 1315ERGO    R218603  17.491   4.196   7.038  0.0403 -0.0710 -0.1078
 1315ERGO    R318604  17.358   4.022   7.200 -0.0062  0.0653  0.0020
 1315ERGO    R418605  17.526   4.180   7.381  0.2075 -0.0159 -0.1215
 1315ERGO    R518606  17.519   3.963   7.367  0.0375 -0.0152 -0.0678
 1315ERGO    C118607  17.422   4.008   7.733  0.2613  0.1440 -0.0265
 1315ERGO    C218608  17.475   3.893   7.947  0.1910 -0.1661 -0.2009
 1316ERGO   ROH18609  12.011   5.988   6.218  0.0304  0.1030  0.0342
 1316ERGO    R118610  11.985   6.087   6.482  0.1768  0.0920  0.0551
 1316ERGO    R218611  11.907   5.927   6.694 -0.1799  0.1814  0.0068
 1316ERGO    R318612  12.136   6.019   6.806 -0.0053 -0.2956  0.0627
 1316ERGO    R418613  11.962   5.955   7.034 -0.2911  0.3020  0.0149
 1316ERGO    R518614  12.062   6.145   6.996  0.1998  0.0326 -0.0737
 1316ERGO    C118615  12.210   6.058   7.337 -0.1920 -0.0756  0.0721
 1316ERGO    C218616  12.444   6.243   7.607 -0.0698  0.4256 -0.0690
 1317ERGO   ROH18617  14.589   8.719   6.242 -0.1450 -0.0688  0.2213
 1317ERGO    R118618  14.462   8.784   6.486 -0.0725  0.1051  0.2141
 1317ERGO    R218619  14.557   8.697   6.731 -0.1226  0.0983  0.2297
 1317ERGO    R318620  14.551   8.962   6.791  0.0974  0.1223  0.1564
 1317ERGO    R418621  14.583   8.826   7.050  0.0831  0.1694  0.1857
 1317ERGO    R518622  14.429   8.972   6.998  0.1733  0.2716  0.1959
 1317ERGO    C118623  14.593   9.151   7.293  0.4093  0.2333  0.0910
 1317ERGO    C218624  14.566   9.239   7.651  0.0957 -0.0848  0.2245
 1318ERGO   ROH18625  11.841  14.621   6.919  0.0978 -0.0693 -0.1289
 1318ERGO    R118626  12.058  14.636   7.101  0.0515 -0.0172 -0.0784
 1318ERGO    R218627  12.055  14.800   7.323 -0.0380 -0.0159 -0.0846
 1318ERGO    R318628  12.112  14.569   7.454 -0.0136  0.0014 -0.0636
 1318ERGO    R418629  12.156  14.781   7.653 -0.2087  0.0207 -0.0288
 1318ERGO    R518630  12.298  14.625   7.595 -0.1096  0.0782  0.0396
 1318ERGO    C118631  12.268  14.553   7.968 -0.2851  0.0582  0.0233
 1318ERGO    C218632  12.197  14.655   8.299  0.1409 -0.0140 -0.0160
 1319ERGO   ROH18633  14.436   0.636   6.917  0.0903  0.2062  0.0118
 1319ERGO    R118634  14.559   0.738   7.151 -0.0337  0.1573  0.1007
 1319ERGO    R218635  14.425   0.897   7.332 -0.1392  0.1048  0.0783
 1319ERGO    R318636  14.509   0.710   7.510 -0.2159  0.0607  0.0669
 1319ERGO    R418637  14.378   0.915   7.674 -0.3248 -0.0199  0.0604
 1319ERGO    R518638  14.580   0.837   7.701 -0.3367 -0.0004  0.1470
 1319ERGO    C118639  14.429   0.750   8.040 -0.5047 -0.1340  0.0392
 1319ERGO    C218640  14.425   0.711   8.423  0.0722  0.0169  0.1678
 1320ERGO   ROH18641   7.205  12.622   6.844  0.1993 -0.0550 -0.0872
 1320ERGO    R118642   7.161  12.523   7.106  0.0867  0.0823 -0.0540
 1320ERGO    R218643   7.330  12.342   7.227 -0.0280  0.0604  0.0693
 1320ERGO    R318644   7.337  12.529   7.424  0.0064  0.1440 -0.0090
 1320ERGO    R418645   7.360  12.273   7.564 -0.1725  0.1849  0.1095
 1320ERGO    R518646   7.215  12.430   7.605 -0.1065  0.2822 -0.0046
 1320ERGO    C118647   7.385  12.408   7.946 -0.2245  0.3358  0.0593
 1320ERGO    C218648   7.475  12.419   8.329 -0.5249  0.0436 -0.4989
 1321ERGO   ROH18649  14.423   4.999   6.363 -0.0051 -0.0698 -0.0331
 1321ERGO    R118650  14.465   5.064   6.635 -0.0807  0.0199 -0.0431
 1321ERGO    R218651  14.287   5.216   6.782 -0.2540 -0.1583 -0.0722
 1321ERGO    R318652  14.295   5.003   6.951 -0.0173 -0.1247 -0.0347
 1321ERGO    R418653  14.256   5.235   7.126 -0.4398 -0.1427 -0.0877
 1321ERGO    R518654  14.412   5.084   7.143 -0.2193  0.0844  0.0078
 1321ERGO    C118655  14.245   5.047   7.484 -0.3259 -0.1020 -0.0615
 1321ERGO    C218656  14.192   4.929   7.800  0.0094 -0.1429  0.1240
 1322ERGO   ROH18657   7.321   5.835   6.078  0.0186  0.2006 -0.0057
 1322ERGO    R118658   7.210   5.757   6.326  0.0333 -0.0563 -0.0773
 1322ERGO    R218659   7.247   5.505   6.433  0.4651 -0.0098 -0.1045
 1322ERGO    R318660   7.337   5.645   6.648  0.0839  0.1322 -0.0295
 1322ERGO    R418661   7.266   5.381   6.755  0.2639  0.0659 -0.0617
 1322ERGO    R518662   7.196   5.574   6.828 -0.0318  0.0048 -0.1655
 1322ERGO    C118663   7.361   5.441   7.145 -0.2112  0.2433  0.0336
 1322ERGO    C218664   7.325   5.484   7.526  0.0465  0.2857 -0.0962
 1323ERGO   ROH18665  14.921  16.475  10.474 -0.1484 -0.0738  0.0999
 1323ERGO    R118666  14.996  16.378  10.220 -0.0002  0.0198  0.1052
 1323ERGO    R218667  14.826  16.229  10.060  0.1712 -0.1393  0.0520
 1323ERGO    R318668  14.884  16.421   9.876  0.0225 -0.0586  0.0904
 1323ERGO    R418669  14.742  16.213   9.725  0.0481 -0.0479  0.0790
 1323ERGO    R518670  14.937  16.298   9.677 -0.0118  0.0387  0.0287
 1323ERGO    C118671  14.748  16.383   9.358 -0.1631  0.0814  0.1308
 1323ERGO    C218672  14.845  16.398   9.093  0.2515  0.1697  0.3318
 1324ERGO   ROH18673   8.612  13.899  10.407 -0.1295  0.4869  0.1901
 1324ERGO    R118674   8.701  14.023  10.168 -0.2013  0.1626 -0.0108
 1324ERGO    R218675   8.889  13.908  10.002 -0.2249 -0.0482  0.1089
 1324ERGO    R318676   8.698  13.945   9.813 -0.2715 -0.3442  0.0923
 1324ERGO    R418677   8.930  13.843   9.665  0.0395  0.3472  0.0582
 1324ERGO    R518678   8.819  14.025   9.622 -0.4003  0.1271  0.1939
 1324ERGO    C118679   8.775  13.840   9.291  0.1497  0.2996  0.0131
 1324ERGO    C218680   8.749  13.634   8.982 -0.3715 -0.0445 -0.0449
 1325ERGO   ROH18681  13.809  10.171   5.857  0.0111  0.0182 -0.2177
 1325ERGO    R118682  13.983  10.210   6.077 -0.0249 -0.0007 -0.1853
 1325ERGO    R218683  13.972  10.435   6.238 -0.0348 -0.0012 -0.1814
 1325ERGO    R318684  13.948  10.251   6.437 -0.0878 -0.0048 -0.1914
 1325ERGO    R418685  13.997  10.505   6.575  0.0345 -0.0386 -0.1791
 1325ERGO    R518686  14.109  10.320   6.600 -0.0412 -0.0856 -0.2054
 1325ERGO    C118687  13.990  10.374   6.959  0.0252 -0.0636 -0.1870
 1325ERGO    C218688  13.995  10.299   7.292 -0.0465  0.2328 -0.1127
 1326ERGO   ROH18689   1.837   2.666   6.404 -0.0384  0.1631 -0.1714
 1326ERGO    R118690   1.701   2.789   6.620 -0.0439 -0.2062  0.0438
 1326ERGO    R218691   1.692   2.677   6.873  0.6503 -0.2554  0.0718
 1326ERGO    R318692   1.790   2.919   6.948  0.1286  0.0198 -0.0923
 1326ERGO    R418693   1.640   2.826   7.180  0.4715 -0.2201  0.0247
 1326ERGO    R518694   1.616   3.017   7.079 -0.0288 -0.3192 -0.0497
 1326ERGO    C118695   1.701   3.140   7.429 -0.1224  0.0586 -0.1569
 1326ERGO    C218696   1.660   3.132   7.673  0.2721 -0.1099 -0.0355
 1327ERGO   ROH18697   1.675  12.884  10.422  0.0758  0.2620  0.0503
 1327ERGO    R118698   1.757  12.858  10.152  0.0971  0.1429  0.0682
 1327ERGO    R218699   1.592  12.758   9.955  0.1417 -0.0202  0.1166
 1327ERGO    R318700   1.653  12.992   9.830  0.0687 -0.0678 -0.0123
 1327ERGO    R418701   1.573  12.810   9.614  0.1379 -0.2223  0.0838
 1327ERGO    R518702   1.759  12.924   9.626  0.1018 -0.1508  0.0292
 1327ERGO    C118703   1.620  13.060   9.298  0.0672 -0.3848 -0.0562
 1327ERGO    C218704   1.607  13.055   8.993 -0.0829 -0.1824 -0.0383
 1328ERGO   ROH18705   4.785  10.952   6.343 -0.0106  0.3605  0.0427
 1328ERGO    R118706   4.747  11.094   6.584 -0.2973  0.1877  0.1043
 1328ERGO    R218707   4.550  11.028   6.766 -0.0969 -0.3675  0.1398
 1328ERGO    R318708   4.759  11.019   6.940 -0.0138  0.0826  0.0755
 1328ERGO    R418709   4.531  11.106   7.102 -0.1298 -0.2739  0.1162
 1328ERGO    R518710   4.724  11.206   7.085 -0.3124  0.0794  0.0148
 1328ERGO    C118711   4.716  11.143   7.461 -0.0709  0.2029  0.0420
 1328ERGO    C218712   4.680  11.195   7.787  0.1865 -0.1341  0.1386
 1329ERGO   ROH18713   9.847   6.821   6.301 -0.2421 -0.3880 -0.1360
 1329ERGO    R118714   9.701   6.738   6.529 -0.1310 -0.3645 -0.0548
 1329ERGO    R218715   9.763   6.508   6.670  0.0295 -0.2750  0.0288
 1329ERGO    R318716   9.772   6.679   6.881  0.0084 -0.1762 -0.0501
 1329ERGO    R418717   9.815   6.414   6.998 -0.0886 -0.1270  0.0907
 1329ERGO    R518718   9.665   6.560   7.059 -0.0703 -0.0631 -0.0229
 1329ERGO    C118719   9.854   6.520   7.388 -0.1771  0.0520  0.0527
 1329ERGO    C218720   9.852   6.383   7.667  0.0771  0.1476 -0.0059
 1330ERGO   ROH18721  15.616   5.508   6.363 -0.1078  0.1687 -0.0589
 1330ERGO    R118722  15.677   5.522   6.639 -0.2433  0.0972 -0.0251
 1330ERGO    R218723  15.485   5.489   6.835 -0.2997 -0.1799 -0.1251
 1330ERGO    R318724  15.656   5.299   6.926 -0.1558 -0.0588 -0.1384
 1330ERGO    R418725  15.538   5.414   7.168 -0.0412  0.0247 -0.1165
 1330ERGO    R518726  15.751   5.393   7.125 -0.0591  0.0921 -0.2519
 1330ERGO    C118727  15.730   5.191   7.447  0.2444  0.2576 -0.1242
 1330ERGO    C218728  15.730   5.228   7.810  0.0683 -0.0500 -0.1155
 1331ERGO   ROH18729  13.302  12.500   6.415 -0.1680 -0.2832  0.0819
 1331ERGO    R118730  13.401  12.440   6.673 -0.1680 -0.0950  0.1270
 1331ERGO    R218731  13.273  12.521   6.904 -0.2300 -0.0253  0.0690
 1331ERGO    R318732  13.285  12.256   6.965 -0.1154  0.0129  0.2166
 1331ERGO    R418733  13.255  12.391   7.224 -0.3917  0.1321  0.1253
 1331ERGO    R518734  13.410  12.248   7.169 -0.2629  0.1956  0.3170
 1331ERGO    C118735  13.256  12.067   7.467 -0.3782  0.2596  0.2965
 1331ERGO    C218736  13.211  12.058   7.762  0.2180  0.0651 -0.2766
 1332ERGO   ROH18737   1.309   7.866   6.170  0.1096 -0.0486 -0.2160
 1332ERGO    R118738   1.421   7.929   6.423  0.1148 -0.2703 -0.1599
 1332ERGO    R218739   1.313   8.122   6.589  0.4631  0.0212 -0.2546
 1332ERGO    R318740   1.311   7.919   6.770 -0.1242  0.0375 -0.2230
 1332ERGO    R418741   1.323   8.162   6.932  0.3593  0.0375 -0.2537
 1332ERGO    R518742   1.459   7.993   6.944 -0.0448 -0.2899 -0.1487
 1332ERGO    C118743   1.327   7.995   7.302 -0.2524  0.0625 -0.2234
 1332ERGO    C218744   1.114   8.053   7.636  0.0873 -0.0406  0.0875
 1333ERGO   ROH18745   1.331  16.820   6.082 -0.2281 -0.1583 -0.0429
 1333ERGO    R118746   1.166  16.748   6.300 -0.1878 -0.1685 -0.0163
 1333ERGO    R218747   1.250  16.578   6.501 -0.1357 -0.1419 -0.0178
 1333ERGO    R318748   1.175  16.784   6.662 -0.1457 -0.1437 -0.0193
 1333ERGO    R418749   1.127  16.542   6.822  0.1110 -0.1331  0.0797
 1333ERGO    R518750   0.983  16.700   6.780 -0.0155 -0.2296  0.1379
 1333ERGO    C118751   0.986  16.713   7.161  0.2453 -0.1297  0.1352
 1333ERGO    C218752   1.140  16.493   7.384  0.2288  0.0533  0.1141
 1334ERGO   ROH18753   9.159   6.445  10.364 -0.0987  0.0973 -0.1628
 1334ERGO    R118754   9.344   6.391  10.157 -0.1020 -0.1656 -0.0992
 1334ERGO    R218755   9.285   6.226   9.943 -0.3649  0.1223 -0.2482
 1334ERGO    R318756   9.360   6.442   9.796  0.2077  0.0704 -0.0586
 1334ERGO    R418757   9.347   6.221   9.603 -0.4397  0.2528 -0.2655
 1334ERGO    R518758   9.516   6.354   9.638 -0.0494 -0.2308 -0.1633
 1334ERGO    C118759   9.453   6.421   9.267  0.0543  0.2800 -0.0976
 1334ERGO    C218760   9.422   6.306   8.964  0.0580 -0.2728 -0.0319
 1335ERGO   ROH18761  16.861   3.293   6.523 -0.0424  0.1627 -0.1061
 1335ERGO    R118762  16.860   3.181   6.783 -0.0782  0.1646 -0.1052
 1335ERGO    R218763  17.063   3.226   6.965 -0.0320  0.0522 -0.1264
 1335ERGO    R318764  16.858   3.305   7.125  0.0281  0.1696 -0.1065
 1335ERGO    R418765  17.066   3.215   7.310 -0.0519 -0.0586 -0.1293
 1335ERGO    R518766  16.859   3.147   7.305 -0.1062  0.1124 -0.1559
 1335ERGO    C118767  16.876   3.282   7.662 -0.0072 -0.0128 -0.1124
 1335ERGO    C218768  16.967   3.250   8.035  0.1103  0.0927  0.0339
 1336ERGO   ROH18769   2.399   9.456  10.060  0.1898  0.0691  0.0154
 1336ERGO    R118770   2.500   9.506   9.800 -0.0063  0.1396 -0.0488
 1336ERGO    R218771   2.682   9.339   9.677 -0.0149  0.2325 -0.1876
 1336ERGO    R318772   2.496   9.336   9.478 -0.1475  0.1705 -0.0646
 1336ERGO    R418773   2.749   9.269   9.345 -0.2410  0.0886 -0.2055
 1336ERGO    R518774   2.610   9.428   9.289 -0.2612  0.0812 -0.1791
 1336ERGO    C118775   2.613   9.227   8.965 -0.4971 -0.0531 -0.1004
 1336ERGO    C218776   2.845   9.146   8.681  0.1771 -0.3146  0.1641
 1337ERGO   ROH18777  17.392   0.576  10.537 -0.0258  0.0991  0.0246
 1337ERGO    R118778  17.291   0.618  10.276  0.0390  0.1204  0.0028
 1337ERGO    R218779  17.423   0.773  10.089  0.1758 -0.0081 -0.0100
 1337ERGO    R318780  17.401   0.549   9.936  0.0376 -0.0241  0.0312
 1337ERGO    R418781  17.403   0.770   9.744  0.1122 -0.0600 -0.0063
 1337ERGO    R518782  17.254   0.612   9.758  0.0372  0.0167  0.0471
 1337ERGO    C118783  17.372   0.559   9.400 -0.0544 -0.1053  0.0344
 1337ERGO    C218784  17.257   0.617   9.061  0.0639  0.2382  0.0984
 1338ERGO   ROH18785   2.437  16.534   6.449  0.1582 -0.0441  0.0496
 1338ERGO    R118786   2.269  16.589   6.671  0.1933 -0.0268  0.0716
 1338ERGO    R218787   2.093  16.402   6.774  0.1196  0.0251  0.0329
 1338ERGO    R318788   2.223  16.456   7.007  0.1518 -0.0893  0.0424
 1338ERGO    R418789   1.959  16.360   7.090  0.1575 -0.1399  0.0280
 1338ERGO    R518790   2.054  16.546   7.150  0.1641 -0.1639  0.1101
 1338ERGO    C118791   2.003  16.386   7.492  0.2098 -0.3434  0.0341
 1338ERGO    C218792   1.918  16.295   7.744  0.2544  0.0237 -0.2909
 1339ERGO   ROH18793   2.491   4.564   6.127  0.2071  0.0002  0.0106
 1339ERGO    R118794   2.597   4.502   6.382  0.1245  0.0937  0.0684
 1339ERGO    R218795   2.719   4.691   6.543 -0.1023  0.1966  0.1244
 1339ERGO    R318796   2.538   4.606   6.726 -0.1330  0.0650  0.0345
 1339ERGO    R418797   2.754   4.725   6.885 -0.3111  0.2505  0.1412
 1339ERGO    R518798   2.670   4.525   6.908 -0.1638  0.1848  0.1112
 1339ERGO    C118799   2.603   4.666   7.256 -0.4616  0.1583  0.0666
 1339ERGO    C218800   2.646   4.593   7.624  0.1232 -0.0317 -0.0098
 1340ERGO   ROH18801   6.022   3.470  10.152  0.0206  0.1179 -0.0667
 1340ERGO    R118802   6.123   3.435   9.890  0.0595  0.1591 -0.0581
 1340ERGO    R218803   5.999   3.273   9.703  0.1983  0.0239 -0.0389
 1340ERGO    R318804   6.006   3.498   9.551  0.0161  0.0085 -0.0714
 1340ERGO    R418805   5.940   3.283   9.363 -0.0154 -0.0372 -0.0046
 1340ERGO    R518806   6.103   3.426   9.344 -0.0839  0.0239 -0.1225
 1340ERGO    C118807   5.913   3.500   9.021 -0.3107 -0.0872 -0.0151
 1340ERGO    C218808   5.742   3.432   8.738  0.4720  0.0368  0.2124
 1341ERGO   ROH18809   4.170  10.056  10.185 -0.0166 -0.1881  0.1428
 1341ERGO    R118810   4.158  10.160   9.922 -0.0106 -0.1457  0.1589
 1341ERGO    R218811   4.216  10.008   9.698  0.0992 -0.0813  0.1408
 1341ERGO    R318812   3.970  10.091   9.618  0.0781 -0.1738  0.1103
 1341ERGO    R418813   4.119  10.051   9.369  0.1510 -0.0357  0.1318
 1341ERGO    R518814   4.013  10.231   9.429  0.0540 -0.1018  0.1586
 1341ERGO    C118815   3.832  10.154   9.102  0.1614 -0.0959  0.0979
 1341ERGO    C218816   3.743  10.234   8.846  0.0815 -0.2614 -0.0037
 1342ERGO   ROH18817  12.686   2.917   6.027  0.0115 -0.1484 -0.0437
 1342ERGO    R118818  12.660   3.008   6.294  0.2283  0.0058 -0.0731
 1342ERGO    R218819  12.475   2.903   6.469  0.0606  0.4115  0.0021
 1342ERGO    R318820  12.693   2.865   6.627  0.0269  0.0681 -0.0242
 1342ERGO    R418821  12.466   2.868   6.813  0.0369  0.2664 -0.0120
 1342ERGO    R518822  12.646   2.991   6.825  0.1944  0.0405  0.0358
 1342ERGO    C118823  12.666   2.812   7.161 -0.0086 -0.1405 -0.0450
 1342ERGO    C218824  12.446   2.849   7.502 -0.2135  0.0903 -0.0008
 1343ERGO   ROH18825  10.812  14.608   6.573 -0.1369 -0.0246  0.1063
 1343ERGO    R118826  10.848  14.713   6.834  0.0347  0.0430  0.0567
 1343ERGO    R218827  10.658  14.869   6.959  0.1059  0.0518  0.1518
 1343ERGO    R318828  10.681  14.682   7.156  0.2634  0.1035  0.1835
 1343ERGO    R418829  10.515  14.893   7.273  0.0284 -0.0399  0.1242
 1343ERGO    R518830  10.698  14.810   7.357  0.1026  0.1559  0.1670
 1343ERGO    C118831  10.454  14.732   7.640  0.1312 -0.0446  0.1379
 1343ERGO    C218832  10.329  14.528   7.937 -0.1033 -0.1130 -0.0101
 1344ERGO   ROH18833   0.672   9.316   5.758 -0.0738  0.2877 -0.1663
 1344ERGO    R118834   0.711   9.264   6.033 -0.0757  0.1559 -0.1894
 1344ERGO    R218835   0.922   9.370   6.176  0.0324 -0.0588 -0.1754
 1344ERGO    R318836   0.724   9.460   6.340  0.1195  0.0372 -0.1225
 1344ERGO    R418837   0.954   9.416   6.517  0.0172 -0.4576 -0.1164
 1344ERGO    R518838   0.753   9.334   6.542 -0.0957 -0.2124 -0.2466
 1344ERGO    C118839   0.787   9.526   6.870  0.0902 -0.5996 -0.0323
 1344ERGO    C218840   0.928   9.561   7.210 -0.2531 -0.1074 -0.1984
 1345ERGO   ROH18841  15.700  17.925   6.876  0.0296 -0.0680  0.1440
 1345ERGO    R118842  15.880  18.040   7.062 -0.0749  0.0543  0.1717
 1345ERGO    R218843  15.796  18.193   7.276 -0.2272 -0.1703  0.2791
 1345ERGO    R318844  15.942  18.015   7.420  0.0270 -0.0735  0.1456
 1345ERGO    R418845  15.893  18.238   7.604 -0.1622 -0.2147  0.2657
 1345ERGO    R518846  16.087  18.152   7.553 -0.0803  0.0283  0.1574
 1345ERGO    C118847  16.087  18.097   7.931  0.1144 -0.1497  0.1326
 1345ERGO    C218848  16.213  18.136   8.211 -0.0191  0.1349  0.0471
 1346ERGO   ROH18849  14.585   6.975   6.048  0.2735 -0.1153 -0.0554
 1346ERGO    R118850  14.518   7.124   6.279  0.0196 -0.1611 -0.0952
 1346ERGO    R218851  14.373   7.017   6.488  0.0224 -0.2923 -0.1478
 1346ERGO    R318852  14.584   7.102   6.636 -0.1194 -0.0753 -0.0668
 1346ERGO    R418853  14.366   7.065   6.830 -0.1822 -0.1146 -0.1750
 1346ERGO    R518854  14.486   7.246   6.801 -0.2932 -0.0582 -0.1945
 1346ERGO    C118855  14.561   7.173   7.168 -0.4345  0.1925 -0.1148
 1346ERGO    C218856  14.434   7.075   7.486 -0.3930 -0.1114 -0.1380
 1347ERGO   ROH18857  15.316  10.874   5.777  0.1595  0.0481  0.0058
 1347ERGO    R118858  15.483  10.800   5.994  0.2020  0.0188 -0.0385
 1347ERGO    R218859  15.636  10.983   6.134  0.0418  0.0344  0.1062
 1347ERGO    R318860  15.506  10.878   6.348  0.1149 -0.2305  0.0260
 1347ERGO    R418861  15.754  10.988   6.459 -0.1614  0.2999  0.1804
 1347ERGO    R518862  15.681  10.785   6.484  0.2386  0.1324  0.1374
 1347ERGO    C118863  15.701  10.893   6.849 -0.2111  0.2058  0.1483
 1347ERGO    C218864  15.783  10.877   7.216  0.1264  0.0043 -0.2097
 1348ERGO   ROH18865  13.159  11.112   6.099  0.1775 -0.3176 -0.0077
 1348ERGO    R118866  13.308  11.055   6.332  0.1153 -0.1986  0.0621
 1348ERGO    R218867  13.396  11.253   6.504  0.0490 -0.1117 -0.0015
 1348ERGO    R318868  13.267  11.103   6.691  0.0072 -0.0381  0.0290
 1348ERGO    R418869  13.448  11.275   6.845  0.0768 -0.0828 -0.0075
 1348ERGO    R518870  13.434  11.057   6.856 -0.0005 -0.0749  0.0251
 1348ERGO    C118871  13.357  11.147   7.219  0.0537  0.0032  0.0177
 1348ERGO    C218872  13.566  11.075   7.565  0.0859  0.3651  0.0962
 1349W        W18873   7.816   4.577  14.769  0.3571  0.2360  0.0161
 1350W        W18874  10.888   6.937   0.724 -0.0724  0.4507 -0.2104
 1351W        W18875   6.642  10.886  15.524  0.1625 -0.0722  0.2199
 1352W        W18876   9.845   5.714  11.594  0.0862 -0.0786 -0.0710
 1353W        W18877   6.059  10.935  16.046 -0.0944 -0.1987 -0.1370
 1354W        W18878   7.538   1.254   6.002  0.0592 -0.0414  0.0708
 1355W        W18879  15.485  11.509  15.445 -0.0626 -0.1457  0.0926
 1356W        W18880  15.487  15.555  11.800  0.0532 -0.3645  0.4040
 1357W        W18881  15.628   5.094  15.741 -0.0609  0.0272  0.2809
 1358W        W18882   3.594   7.868  12.665  0.0368 -0.1657  0.2203
 1359W        W18883   4.256   8.658   0.831 -0.2171 -0.2304 -0.1587
 1360W        W18884  16.028   0.232   4.444 -0.1283 -0.3751 -0.0823
 1361W        W18885  16.197  11.061   4.338  0.1912 -0.0772  0.3373
 1362W        W18886  14.726   7.156  16.388 -0.0022 -0.0708  0.0692
 1363W        W18887   7.366  16.798   1.624 -0.1016  0.3093  0.1175
 1364W        W18888  13.308  15.628   0.643 -0.0992 -0.1929  0.1320
 1365W        W18889   3.156  10.312  11.554 -0.4529 -0.4072 -0.0748
 1366W        W18890   1.411  11.923   3.479  0.0137  0.0334 -0.1435
 1367W        W18891  13.460   4.245   2.296  0.0208  0.0708 -0.2118
 1368W        W18892  16.612   8.541  16.229  0.2451 -0.0303 -0.0800
 1369W        W18893   0.205   8.773   4.847 -0.2012  0.1110  0.3563
 1370W        W18894   3.421  10.120  14.517 -0.2393  0.2900  0.0923
 1371W        W18895   4.287   5.251  14.023 -0.0082  0.0047 -0.2101
 1372W        W18896   3.584  17.070   2.541 -0.0627 -0.2267  0.3748
 1373W        W18897  13.191   3.219   0.977 -0.0045 -0.1302  0.0712
 1374W        W18898   1.627   7.610  14.982 -0.0795 -0.0335 -0.1667
 1375W        W18899  17.808  13.520  12.871  0.0741  0.0491  0.1264
 1376W        W18900  17.669  14.116   4.212 -0.1790 -0.1315 -0.1490
 1377W        W18901   7.931   5.491   0.707  0.1355 -0.0066  0.0925
 1378W        W18902  14.580  13.132  12.530 -0.5235  0.3332 -0.2290
 1379W        W18903  13.222   7.758   2.076 -0.3080 -0.2221 -0.0638
 1380W        W18904  16.358   5.158   3.262 -0.1031  0.1226  0.1511
 1381W        W18905   2.114   7.860   2.577 -0.2864 -0.0766  0.0234
 1382W        W18906  11.341   7.099   1.033 -0.0376  0.1904  0.2727
 1383W        W18907  17.850   6.487   0.295 -0.1208  0.0987  0.1718
 1384W        W18908  12.989  17.178   1.138  0.2082 -0.1160 -0.4941
 1385W        W18909  15.775   6.632  15.132 -0.2493 -0.0770 -0.0541
 1386W        W18910  15.673  14.831   3.098 -0.2276 -0.3073 -0.1296
 1387W        W18911  16.956  16.777  12.979 -0.1700  0.2296 -0.2374
 1388W        W18912   0.150  14.336  15.222 -0.1358 -0.0127 -0.3052
 1389W        W18913  14.410   5.247  13.375 -0.0554 -0.1588 -0.1761
 1390W        W18914  17.568  15.660   2.804 -0.0424  0.2108  0.0771
 1391W        W18915   0.299  16.431   2.521  0.2908 -0.1856 -0.2200
 1392W        W18916   2.016   5.201  15.593 -0.1383  0.0839  0.2467
 1393W        W18917   9.648   3.466  15.708 -0.2572 -0.1118  0.0350
 1394W        W18918   1.269   4.212  11.830 -0.1994 -0.0273  0.2053
 1395W        W18919   3.633  10.168  12.832  0.0226 -0.2912 -0.3286
 1396W        W18920   2.774  15.698   3.421  0.1200 -0.0448 -0.1431
 1397W        W18921   8.045   2.472  11.939 -0.0496  0.0436 -0.0168
 1398W        W18922  16.153   0.446   3.920 -0.0137 -0.0408 -0.3000
 1399W        W18923  15.472   4.065   3.487 -0.1564  0.0995 -0.0116
 1400W        W18924   5.009  14.650  13.725  0.2721  0.1430 -0.1585
 1401W        W18925   9.391  14.896  13.662  0.1023 -0.2512  0.0438
 1402W        W18926  16.406  11.247   0.335 -0.1802 -0.0103 -0.0620
 1403W        W18927  13.321  13.516  14.448 -0.0791  0.2249  0.2228
 1404W        W18928   0.771   8.026  14.158 -0.2029  0.1186 -0.0874
 1405W        W18929   0.531   0.541   2.537  0.1530  0.0194  0.1184
 1406W        W18930  11.628  14.856   4.521  0.1292 -0.1907  0.1540
 1407W        W18931  15.624   7.928   2.658  0.2440 -0.0156  0.0925
 1408W        W18932   5.958  14.646  13.703  0.1285  0.1008  0.0121
 1409W        W18933   3.717   9.329   2.318  0.1550  0.4121  0.1621
 1410W        W18934   0.216  14.993   1.284 -0.0141 -0.0877 -0.1501
 1411W        W18935   8.763  13.553   1.628 -0.1239 -0.0471 -0.1904
 1412W        W18936  16.401   8.878  14.746  0.0384 -0.1553  0.0314
 1413W        W18937  15.334   6.455   0.950 -0.2309  0.0051 -0.0721
 1414W        W18938  12.422  10.062  14.134 -0.1517  0.0608 -0.0275
 1415W        W18939   5.752  14.851   0.829  0.1273  0.3281  0.3263
 1416W        W18940   5.010  14.387   2.250 -0.2051 -0.1492  0.3142
 1417W        W18941   4.271  14.441   4.290  0.1247 -0.0662 -0.0903
 1418W        W18942  13.806   3.915  14.169  0.0345  0.0505  0.1782
 1419W        W18943   9.704  15.071   0.096  0.0118 -0.4789 -0.1053
 1420W        W18944  12.491   2.974   1.490 -0.0619 -0.2632 -0.1083
 1421W        W18945  13.602  15.838  13.688  0.2252 -0.1658  0.0855
 1422W        W18946   6.889  17.198   0.832  0.2485  0.4146 -0.0327
 1423W        W18947  11.529   5.244  13.223  0.0509 -0.1158  0.1678
 1424W        W18948   6.266   0.276  15.116  0.2351 -0.3402  0.0753
 1425W        W18949  12.932   7.332   4.301 -0.3060  0.0894  0.0547
 1426W        W18950   3.405  16.408  12.689  0.0669 -0.3365  0.0158
 1427W        W18951   1.510   0.485   0.930 -0.3430  0.0658 -0.2225
 1428W        W18952   8.309  15.703  14.657  0.0626  0.3667 -0.1040
 1429W        W18953   5.185   1.782   2.300 -0.1969  0.1268  0.1004
 1430W        W18954   7.627  16.469   2.065 -0.0608  0.5616  0.3494
 1431W        W18955  17.704   2.899   2.077 -0.0274  0.2198 -0.2954
 1432W        W18956   3.765  16.968  14.364 -0.1089  0.2124 -0.0567
 1433W        W18957   7.871  15.189   1.539  0.1118 -0.0056 -0.1112
 1434W        W18958  17.485   3.524   2.489  0.2066 -0.1644 -0.0132
 1435W        W18959  16.991  15.358   4.230  0.4230 -0.0554  0.1656
 1436W        W18960  15.421   9.600  12.957  0.0277  0.0065  0.0709
 1437W        W18961   4.553   4.065   1.957  0.0873 -0.0916  0.0492
 1438W        W18962  14.953  13.494  16.138  0.3457  0.5829  0.1557
 1439W        W18963   0.738   6.697   5.922  0.1613  0.0981  0.0898
 1440W        W18964   6.110   6.072  16.053  0.0887 -0.1285 -0.0905
 1441W        W18965  17.798   1.428  11.011  0.0964 -0.2956 -0.3009
 1442W        W18966   3.476   4.875  16.462  0.1125  0.0126  0.0860
 1443W        W18967   4.055   8.000  12.909  0.1423 -0.0437  0.3330
 1444W        W18968   6.893  14.779   0.112 -0.3322  0.1837 -0.4487
 1445W        W18969  13.102  13.427   1.296 -0.5452  0.0699  0.1572
 1446W        W18970   2.331   7.440   3.680  0.1789 -0.0713 -0.2159
 1447W        W18971  11.702   2.782  14.239  0.0299 -0.1084  0.2901
 1448W        W18972  12.617  10.500   4.623 -0.0637 -0.1213  0.2052
 1449W        W18973   1.613   6.245  13.489  0.1292 -0.3414  0.1711
 1450W        W18974   2.078   4.574   5.741  0.0085  0.0645 -0.1881
 1451W        W18975  13.358   7.112   1.049  0.0685 -0.1286  0.2509
 1452W        W18976   4.787  10.140   4.611 -0.0319 -0.0099  0.3714
 1453W        W18977  10.289   9.705  13.287  0.3550  0.1808 -0.3016
 1454W        W18978   7.521  13.951  11.642 -0.1202  0.3007 -0.1130
 1455W        W18979   4.937   2.819  11.889  0.1505  0.1656  0.2074
 1456W        W18980   2.819  10.394   4.271  0.0485 -0.1304 -0.1572
 1457W        W18981   0.301  14.283  13.372  0.1642 -0.3427  0.0952
 1458W        W18982   2.185   2.736  13.532  0.3405  0.1183 -0.0596
 1459W        W18983  17.762   8.002  13.405 -0.1777 -0.0334 -0.1835
 1460W        W18984  12.204   2.652  16.417  0.0510 -0.0337 -0.0206
 1461W        W18985   9.184   0.912   1.045  0.1008  0.0705 -0.4984
 1462W        W18986   2.311  17.785   0.895  0.0108 -0.1330 -0.1751
 1463W        W18987   9.755   4.080  16.449  0.1315 -0.0013 -0.0354
 1464W        W18988   3.040  12.502   3.080 -0.0956  0.0994  0.0396
 1465W        W18989  10.582   3.460   5.603 -0.1648 -0.3415 -0.3175
 1466W        W18990   7.804   9.681   3.207 -0.1443  0.0885 -0.0999
 1467W        W18991   8.114  13.792  13.426  0.3717  0.2005  0.0851
 1468W        W18992   9.662   3.957  12.733 -0.0245 -0.0400  0.1690
 1469W        W18993   6.047  13.752  12.347  0.3132  0.1016  0.3076
 1470W        W18994   9.752   1.366  12.640  0.1471  0.0398  0.0663
 1471W        W18995   2.269   9.020  14.397 -0.4094 -0.1114 -0.1321
 1472W        W18996   9.060   9.379  13.800 -0.2055  0.1898 -0.0447
 1473W        W18997  15.867   9.662  12.820  0.2797 -0.1211 -0.1827
 1474W        W18998  14.997  15.124  15.415  0.0339  0.1640  0.0809
 1475W        W18999   4.990   0.700   5.739 -0.0526  0.0413 -0.1850
 1476W        W19000   3.494   6.536  11.430 -0.1121 -0.0417 -0.0313
 1477W        W19001  17.773   5.759   3.050 -0.0891 -0.3525  0.4969
 1478W        W19002   8.999   5.774   2.687 -0.0879 -0.3532  0.1433
 1479W        W19003  12.638  17.341   4.495 -0.1859 -0.1818 -0.1448
 1480W        W19004   3.197   9.515  12.131  0.1958 -0.2742  0.3182
 1481W        W19005   0.210   8.765   3.320 -0.2713 -0.0897 -0.1477
 1482W        W19006   7.744   7.501   2.231 -0.3531  0.1667  0.1838
 1483W        W19007  15.763  15.532  12.832  0.2237 -0.3322  0.1129
 1484W        W19008   0.191   2.365   4.981 -0.0444 -0.0209  0.1875
 1485W        W19009   4.725  14.525   1.163 -0.2226  0.0676 -0.0675
 1486W        W19010  17.233   7.810   0.475  0.3330 -0.1178  0.1488
 1487W        W19011   1.648  12.629  14.437 -0.2307 -0.1865  0.0892
 1488W        W19012  11.237   5.247   4.827  0.1872  0.0281  0.3857
 1489W        W19013   8.032  13.051   0.463  0.0525  0.0604 -0.2727
 1490W        W19014  12.983   6.547  12.244 -0.0485 -0.1974  0.0779
 1491W        W19015   8.262  17.315  11.802  0.2779  0.0676 -0.0238
 1492W        W19016   7.591  13.249  14.584  0.1108  0.1340 -0.0584
 1493W        W19017  10.822   1.531   0.206 -0.0781  0.1502 -0.1494
 1494W        W19018  14.075   0.331  16.398 -0.0878  0.0620  0.1843
 1495W        W19019  14.050  13.732   3.605  0.0459 -0.1810  0.0151
 1496W        W19020  11.268   4.316  12.187 -0.6307 -0.1214  0.0282
 1497W        W19021   6.170   1.999   0.442  0.1078 -0.0224  0.3812
 1498W        W19022  13.853   0.181  12.763  0.4460  0.0074  0.0981
 1499W        W19023  12.262  12.145   0.195  0.1946 -0.2836  0.1621
 1500W        W19024  14.743  17.387  12.716 -0.0667  0.1514  0.0259
 1501W        W19025   2.777  15.669  13.579  0.0312 -0.0074 -0.0395
 1502W        W19026  10.589   2.890   4.232  0.1277 -0.0172  0.4380
 1503W        W19027   2.271   9.781   1.272  0.1175  0.2391  0.2562
 1504W        W19028   7.147   4.078  16.407 -0.0455 -0.0097 -0.0842
 1505W        W19029  16.476  11.109  15.362  0.1020 -0.0731 -0.0597
 1506W        W19030  14.965   1.176   2.503  0.4301 -0.0644 -0.3641
 1507W        W19031   8.740   0.384   2.778 -0.0770  0.4287  0.0052
 1508W        W19032   0.399  15.795  11.662 -0.1075  0.0397 -0.1855
 1509W        W19033  12.598   0.140   3.635  0.0062 -0.0067 -0.1040
 1510W        W19034  13.630   6.041  11.844 -0.0206 -0.4186  0.1499
 1511W        W19035   6.270  14.803   3.899  0.1567 -0.1638  0.0392
 1512W        W19036   6.154   8.711  15.070 -0.2149 -0.0872 -0.0566
 1513W        W19037   7.259  16.193   5.223 -0.1854 -0.1146 -0.0439
 1514W        W19038  11.539  15.360   1.245 -0.1498 -0.0168  0.2439
 1515W        W19039   2.743  13.435   3.371  0.2400  0.0394  0.1132
 1516W        W19040  16.649   8.840  14.301 -0.0181  0.0809  0.1290
 1517W        W19041   3.731   7.123   3.226 -0.1715 -0.1580 -0.0797
 1518W        W19042  14.546   5.794  14.148  0.0701  0.0875 -0.2643
 1519W        W19043   8.172  11.414  14.003 -0.3502  0.0144 -0.1123
 1520W        W19044  16.475   4.202  15.732 -0.0909 -0.1297 -0.0244
 1521W        W19045  17.296  15.208  14.289 -0.1482 -0.1481 -0.1055
 1522W        W19046  16.924   7.733  13.509  0.2869 -0.1735 -0.1706
 1523W        W19047  15.362  13.700   3.006  0.4655 -0.0607  0.3270
 1524W        W19048   0.438  14.401   2.756  0.1683  0.0908  0.0810
 1525W        W19049  11.866  10.060   3.218  0.1400  0.1263  0.0106
 1526W        W19050  14.849   5.207  16.259 -0.2435 -0.0486 -0.1152
 1527W        W19051  13.757   9.761  15.903  0.0462 -0.1978  0.0435
 1528W        W19052   6.389  15.575   3.314 -0.1226  0.1770  0.1058
 1529W        W19053  10.892  12.623  16.199 -0.2511 -0.2000  0.0476
 1530W        W19054  16.578   0.500  12.747 -0.2141  0.0633  0.1349
 1531W        W19055   8.227  12.856  14.385  0.3468  0.0883 -0.3043
 1532W        W19056  10.244   0.863  13.151  0.0800 -0.2816 -0.2718
 1533W        W19057   3.843   2.008  16.154  0.1559 -0.1933  0.0828
 1534W        W19058   8.583  10.231   5.091 -0.1376  0.0593  0.0781
 1535W        W19059  10.231  12.009   4.779 -0.2022  0.1045  0.0136
 1536W        W19060   2.294   4.715  10.529 -0.2393  0.1618 -0.0928
 1537W        W19061   8.024  15.748   4.307  0.0212  0.2591 -0.1445
 1538W        W19062   7.842   0.753   2.649 -0.0842 -0.1173 -0.0393
 1539W        W19063   7.369  13.051   4.858  0.0409 -0.0636  0.2257
 1540W        W19064  14.526  17.893   4.104 -0.4507  0.2890 -0.1263
 1541W        W19065  16.039  10.426   1.646  0.2146  0.1967  0.1633
 1542W        W19066   2.522  16.392   2.036  0.0807 -0.0450  0.1774
 1543W        W19067   0.847  17.302   3.268 -0.1759 -0.3685 -0.4512
 1544W        W19068  11.445  10.958  14.782  0.0372 -0.2920 -0.2941
 1545W        W19069   1.430   8.529   2.299  0.2785  0.2236 -0.1922
 1546W        W19070  16.608   8.039   1.487  0.2759  0.1460 -0.0845
 1547W        W19071  11.920  12.339  14.668 -0.0470  0.0264 -0.0226
 1548W        W19072  11.774   0.636  10.416  0.0980  0.2313 -0.2738
 1549W        W19073   7.018  13.433   4.777 -0.1795  0.4104 -0.2292
 1550W        W19074   6.990   7.393  11.639  0.2089 -0.1949 -0.1452
 1551W        W19075   7.532  10.848  11.367  0.3647  0.1135  0.0726
 1552W        W19076   9.809  10.655   2.819  0.0740  0.1641 -0.0549
 1553W        W19077  11.028   7.718  13.123  0.4057  0.0013  0.0509
 1554W        W19078  12.355  15.194   4.093 -0.1321  0.1860 -0.0644
 1555W        W19079  12.261   6.724   1.887  0.2422  0.1215  0.1074
 1556W        W19080  15.989  10.222   2.101  0.0849  0.0138 -0.1046
 1557W        W19081   6.938   8.425  14.590  0.1700  0.2141 -0.0529
 1558W        W19082  12.757   5.712  11.692 -0.1888  0.0314  0.0786
 1559W        W19083   0.081   5.001   3.626 -0.0894 -0.3694  0.2974
 1560W        W19084  13.452   5.081  16.460  0.1942  0.0231 -0.0739
 1561W        W19085   7.097   3.101   1.055 -0.2696 -0.0862  0.0039
 1562W        W19086  12.730   4.840   5.772 -0.0003 -0.2420  0.1877
 1563W        W19087   4.748  14.881   2.246 -0.1895 -0.2708 -0.1754
 1564W        W19088  14.776   7.504  14.983  0.0914 -0.0074  0.3711
 1565W        W19089   8.715  11.383   0.312  0.0890  0.0672  0.0025
 1566W        W19090  11.922  12.087  15.561 -0.2344  0.0188 -0.1186
 1567W        W19091   9.928   2.625  15.574  0.1152 -0.1730 -0.2064
 1568W        W19092  17.762   0.364  13.974 -0.2422 -0.1607 -0.2597
 1569W        W19093  17.482   2.525   3.794 -0.0077  0.0036  0.3368
 1570W        W19094   4.010   2.127   2.187  0.1756 -0.1169  0.0902
 1571W        W19095   7.775   7.692  13.319 -0.1772 -0.0601  0.0604
 1572W        W19096  15.434  16.900   5.173  0.1440  0.1928  0.1536
 1573W        W19097  13.009  10.852   3.304  0.2983 -0.2909  0.0652
 1574W        W19098   4.633   4.467  14.534  0.0109 -0.1481  0.0062
 1575W        W19099   2.158   9.222  15.627 -0.1538  0.1812  0.2163
 1576W        W19100  13.084   6.585   0.386  0.2230  0.0834 -0.0730
 1577W        W19101  13.684   9.374   5.557 -0.0171  0.1706  0.2150
 1578W        W19102   8.943   1.414  11.453 -0.0432 -0.2006 -0.5392
 1579W        W19103   4.214   0.138   3.211  0.3173 -0.1715 -0.0296
 1580W        W19104  12.383  10.214   4.291  0.2784 -0.3787  0.1478
 1581W        W19105  13.096  11.701   2.297  0.2319  0.2079  0.3108
 1582W        W19106   7.689   7.059   2.964  0.2196  0.2619  0.0752
 1583W        W19107  11.322   6.956  14.282 -0.2057  0.2288 -0.2103
 1584W        W19108   6.975  12.061  16.098  0.3286  0.0525 -0.0726
 1585W        W19109  12.418   8.032   4.807 -0.0855  0.0968 -0.0534
 1586W        W19110   7.305   1.030   5.288  0.2897  0.0387 -0.1358
 1587W        W19111   3.483  14.885   3.943 -0.3731 -0.1304 -0.2335
 1588W        W19112   8.717   2.838   2.393 -0.1438  0.0018 -0.0020
 1589W        W19113   0.128  12.692   2.317 -0.2826  0.0921  0.0302
 1590W        W19114   3.225   0.469   2.008  0.3581  0.1272  0.4546
 1591W        W19115  14.856   6.431   0.283 -0.0733  0.0045 -0.1478
 1592W        W19116   4.533   3.536   3.685 -0.1250  0.1296 -0.1482
 1593W        W19117   3.617   4.505  13.459 -0.1702  0.0069 -0.0333
 1594W        W19118   7.987  11.170   0.824  0.0926 -0.0298  0.1493
 1595W        W19119   4.508   1.472   3.815 -0.1937  0.2483  0.4542
 1596W        W19120  11.886  10.741  14.949  0.2021  0.1440  0.2041
 1597W        W19121   9.672   3.948  13.331  0.0583 -0.1755 -0.1024
 1598W        W19122   8.478  16.651   2.511 -0.3023 -0.1437  0.1219
 1599W        W19123   0.346   3.670   3.284  0.3988  0.2340 -0.1319
 1600W        W19124  11.397   8.715   0.989  0.0244 -0.0349  0.0683
 1601W        W19125   9.340   6.630  14.200 -0.0356 -0.1216  0.0950
 1602W        W19126   8.275   7.161  13.463 -0.0313 -0.0365 -0.1698
 1603W        W19127   2.512   8.609  10.943 -0.3605  0.4608 -0.0706
 1604W        W19128   2.112  13.640  13.050 -0.2936  0.1920  0.0317
 1605W        W19129   3.420  11.606  12.875 -0.0237  0.1583  0.0152
 1606W        W19130   7.183  11.990  11.666 -0.1591 -0.1201  0.1485
 1607W        W19131   9.042   4.840   1.643  0.3565  0.3157  0.0219
 1608W        W19132  17.727   2.671  15.665 -0.2860 -0.0957 -0.2271
 1609W        W19133  15.779   4.749   1.338  0.2309  0.1856  0.0377
 1610W        W19134   8.747  10.260   0.558 -0.1424  0.2931 -0.2543
 1611W        W19135   7.033  10.220   0.012  0.0659  0.0955  0.0419
 1612W        W19136  11.431   3.239   0.730 -0.3000  0.1093 -0.1015
 1613W        W19137  16.621   7.023   2.060  0.4307 -0.2186 -0.2965
 1614W        W19138  17.307  12.159  13.407  0.3534  0.1132  0.0427
 1615W        W19139   7.615  10.585   4.257  0.1095 -0.0899 -0.0123
 1616W        W19140   5.692  12.234  16.134 -0.0029  0.0959  0.1371
 1617W        W19141  15.820  15.393   1.458  0.3344  0.0516 -0.0052
 1618W        W19142   7.697   3.927   3.281 -0.1484 -0.1885 -0.0019
 1619W        W19143   9.123   8.327   1.823  0.0890  0.0971 -0.2012
 1620W        W19144   8.689  11.163   2.992 -0.4020 -0.2631 -0.0979
 1621W        W19145  15.948  11.188  12.885 -0.0051  0.2613 -0.6557
 1622W        W19146   8.512  15.908   4.188  0.0118 -0.1651  0.2621
 1623W        W19147  10.051  10.421   1.134  0.0457 -0.2035 -0.0887
 1624W        W19148  17.288   8.208  13.365  0.0848  0.1635  0.0579
 1625W        W19149   0.286   4.856   1.906  0.1270  0.1566  0.0250
 1626W        W19150  14.928   6.119  11.500 -0.0856 -0.3567 -0.3107
 1627W        W19151   2.611   9.545  15.793 -0.2955 -0.1169  0.0524
 1628W        W19152   0.892   8.194   4.304  0.1414 -0.4690 -0.2807
 1629W        W19153   2.438  10.071   3.574 -0.0943 -0.2616 -0.0076
 1630W        W19154   2.380  12.705   3.707  0.0699  0.1071  0.2851
 1631W        W19155   4.811   0.459   2.666  0.0778 -0.0246 -0.0720
 1632W        W19156  17.031   7.201   4.570  0.0714  0.0518 -0.1345
 1633W        W19157  16.059   0.806   2.984 -0.0730  0.0664 -0.0296
 1634W        W19158   7.037   5.588   4.496 -0.4208  0.0354 -0.0200
 1635W        W19159  16.100  12.783   4.822 -0.0506  0.0423 -0.0734
 1636W        W19160  15.409  11.729  11.413  0.1256 -0.1634 -0.3728
 1637W        W19161  17.758   3.436   3.579 -0.0568  0.2363 -0.0562
 1638W        W19162  14.445   2.647  15.541 -0.2611  0.1356 -0.0468
 1639W        W19163  12.933  13.810  14.445 -0.1810 -0.3605  0.0036
 1640W        W19164   8.075   0.938  11.457  0.2258  0.0640 -0.0941
 1641W        W19165  11.924   1.893  11.518  0.0499 -0.0298  0.0234
 1642W        W19166   6.296   7.642   0.538  0.0826  0.2105  0.1671
 1643W        W19167  14.593   7.543  13.406  0.0627 -0.0237 -0.0042
 1644W        W19168  17.948   4.738  12.551  0.0755  0.0742 -0.0393
 1645W        W19169   7.776   5.891   2.039  0.1498 -0.1976 -0.1183
 1646W        W19170  16.427   4.823   0.119  0.0359  0.0377 -0.0812
 1647W        W19171   0.276  17.952   0.429 -0.0592 -0.0481  0.1726
 1648W        W19172   5.900  17.271   4.638  0.0289  0.2897 -0.0162
 1649W        W19173   4.685   8.068   3.394  0.1680  0.1154 -0.1910
 1650W        W19174   6.979   7.249   4.407 -0.0938 -0.2483 -0.0609
 1651W        W19175   6.641   3.692   2.175  0.0442  0.1340  0.1440
 1652W        W19176  10.832  11.051  12.397  0.1895  0.3106  0.0775
 1653W        W19177   9.779   3.552  10.284 -0.3048 -0.1363 -0.1852
 1654W        W19178   2.875   6.057  14.653  0.0079  0.2608  0.2060
 1655W        W19179   9.203   9.986   0.351  0.1912  0.1404 -0.2066
 1656W        W19180   6.612   7.906   0.249 -0.1182 -0.4530 -0.2190
 1657W        W19181   4.230  12.533  14.551  0.0608  0.0793 -0.1001
 1658W        W19182  17.262   8.893   4.292 -0.2105 -0.1725 -0.0773
 1659W        W19183   7.546   3.239  15.679 -0.2476 -0.0308  0.0533
 1660W        W19184   3.557  13.174   0.021  0.0120  0.0834 -0.0169
 1661W        W19185   2.735   2.760  13.676 -0.0101  0.2881  0.0551
 1662W        W19186   4.241   1.752  13.472  0.1010 -0.2109  0.4802
 1663W        W19187  14.319   5.490   2.495  0.3824  0.0452 -0.1227
 1664W        W19188  11.134   8.852  12.146  0.3264  0.1041  0.0704
 1665W        W19189  11.134   8.960   1.513  0.0737  0.1655 -0.2079
 1666W        W19190   2.554  13.199  12.376  0.2710  0.0436 -0.2515
 1667W        W19191   5.450   6.404   0.297 -0.1129 -0.1873 -0.0009
 1668W        W19192   7.853  14.263   3.818 -0.3872 -0.1751 -0.0070
 1669W        W19193  16.640   9.697  16.099  0.1454  0.0232 -0.2196
 1670W        W19194  16.855  15.375   1.165 -0.1052 -0.0023 -0.3596
 1671W        W19195  15.438  14.463   2.503  0.3401  0.2873 -0.4072
 1672W        W19196  16.693  12.037  13.116  0.1375 -0.2429 -0.2871
 1673W        W19197   2.547   7.250  11.549 -0.0824  0.1408 -0.1884
 1674W        W19198   2.222   2.934   4.627  0.0801  0.4076  0.0239
 1675W        W19199   0.640  15.734   1.215 -0.5391 -0.0626 -0.1092
 1676W        W19200   8.612  12.372  15.633  0.2491  0.1585  0.2128
 1677W        W19201   6.402   0.420   3.608  0.3589  0.0443  0.1804
 1678W        W19202   3.765  15.914   3.460  0.2587 -0.1763  0.3195
 1679W        W19203   8.471  17.668  11.460  0.0539 -0.1667 -0.1834
 1680W        W19204  11.379   6.285   3.855  0.1113  0.2414  0.1460
 1681W        W19205  14.065   2.452  15.267 -0.0041  0.1967 -0.1822
 1682W        W19206  14.150  15.397  15.129 -0.4533 -0.0954  0.0046
 1683W        W19207   8.309  14.584  11.620  0.0992  0.0080  0.4175
 1684W        W19208  14.963  14.384   0.117  0.0482 -0.0083  0.0252
 1685W        W19209  12.574   7.084   4.692  0.1041  0.1018 -0.1928
 1686W        W19210  14.357   7.635   2.860 -0.1618 -0.0918  0.0398
 1687W        W19211  13.429   3.623   4.505  0.2715  0.0168 -0.3372
 1688W        W19212   2.325   8.028  12.065  0.1039  0.3180  0.0499
 1689W        W19213   7.784   6.567   4.172  0.1589  0.1457  0.2524
 1690W        W19214   6.713   0.702   0.513 -0.2703 -0.0311  0.2518
 1691W        W19215   5.981  11.588  13.402  0.0358 -0.1758  0.2827
 1692W        W19216   3.231   8.492  16.371 -0.0700  0.2977  0.3608
 1693W        W19217   1.485  15.579   4.938  0.0696  0.1007 -0.1688
 1694W        W19218  14.929   1.886  15.632  0.0943 -0.0566 -0.2491
 1695W        W19219  14.801   4.461  11.789 -0.1297  0.2013  0.3075
 1696W        W19220  12.468  16.103   4.221 -0.3795  0.0285 -0.1257
 1697W        W19221  15.723   3.494  11.710  0.0561 -0.0584  0.2586
 1698W        W19222  16.230  14.527  13.180 -0.0539 -0.1404  0.0083
 1699W        W19223  11.490   1.411  14.842  0.0974  0.0414 -0.0023
 1700W        W19224   5.207   2.860  12.961 -0.0762 -0.2014  0.4214
 1701W        W19225   7.118   5.375   1.793  0.0017  0.3026 -0.0137
 1702W        W19226  10.758  13.049   2.125 -0.2839  0.2262 -0.1990
 1703W        W19227  11.187   6.806   4.519  0.1922 -0.1349 -0.2455
 1704W        W19228   7.870   2.236  15.338 -0.0728 -0.2783  0.2134
 1705W        W19229   1.374  12.620   0.806  0.0551  0.1433  0.1006
 1706W        W19230   0.897  13.983   4.242 -0.0111 -0.0122  0.1586
 1707W        W19231   8.838   5.783  13.404 -0.1411 -0.1426 -0.1101
 1708W        W19232   2.648  16.848   3.630  0.0347 -0.1629  0.1569
 1709W        W19233   3.313   8.763  12.676  0.0195 -0.0319 -0.0376
 1710W        W19234   4.105   3.112  15.118 -0.1886 -0.1726 -0.2871
 1711W        W19235  15.442  13.683  16.361  0.0186  0.0312 -0.2210
 1712W        W19236  13.684  14.987   1.215 -0.0798 -0.0426  0.1835
 1713W        W19237  14.892   1.646   1.342  0.1423  0.3332  0.0612
 1714W        W19238   9.131   1.907   4.437 -0.0241 -0.1759 -0.0886
 1715W        W19239   3.784  11.647  11.675 -0.0283  0.1984 -0.5172
 1716W        W19240  13.755  17.636   2.443  0.3677  0.0896  0.1933
 1717W        W19241  16.004   3.116  11.813 -0.3261 -0.0091 -0.0593
 1718W        W19242  14.486   9.722  14.598  0.2388 -0.0710  0.3259
 1719W        W19243  12.305   0.581  14.088  0.1693 -0.4092 -0.2123
 1720W        W19244  17.777  16.913   2.327 -0.0055  0.2081 -0.0595
 1721W        W19245   1.491   7.950  11.518 -0.2373 -0.2001  0.0579
 1722W        W19246   5.358   2.604  15.171  0.1050  0.5120  0.0477
 1723W        W19247   8.561  14.529  13.167  0.2321 -0.0529 -0.1279
 1724W        W19248   1.047  13.550   0.819 -0.0881 -0.0812  0.0568
 1725W        W19249  10.148   4.953  15.763 -0.2335  0.2990 -0.1662
 1726W        W19250  14.258   4.687   3.339 -0.0207 -0.3541 -0.0632
 1727W        W19251   6.931  17.293  11.903 -0.1872  0.0832  0.0373
 1728W        W19252  14.212   7.820   5.775 -0.1144 -0.3615  0.0168
 1729W        W19253  12.812  12.387   6.241 -0.0803 -0.2822  0.0738
 1730W        W19254   5.608  17.379   2.160  0.1257 -0.0096 -0.1387
 1731W        W19255   4.983  10.715  14.631  0.0113  0.0440 -0.1892
 1732W        W19256   6.872  15.656   2.469  0.0747 -0.2224  0.4521
 1733W        W19257   0.941  15.826  13.731  0.0775 -0.1739  0.4789
 1734W        W19258   8.574   5.594  14.442 -0.0252  0.4048  0.0796
 1735W        W19259   8.894   7.488   4.782  0.1771 -0.1166  0.0980
 1736W        W19260   6.823  14.927   2.567  0.4048 -0.4079 -0.3121
 1737W        W19261  13.621   6.241   4.497  0.2283 -0.1573 -0.2930
 1738W        W19262  16.381  13.439  15.865 -0.2456  0.2616 -0.0939
 1739W        W19263   2.472   6.131  15.336  0.1402 -0.2251 -0.1005
 1740W        W19264   8.529  16.142  11.820 -0.2068  0.1244 -0.3247
 1741W        W19265  12.235  16.357  14.493 -0.2741  0.3686  0.0439
 1742W        W19266   8.830   2.271   3.287 -0.0289 -0.1506 -0.0841
 1743W        W19267   4.069   7.529  14.195  0.2985  0.0827  0.0960
 1744W        W19268   0.646  15.350  16.261  0.1409 -0.0218 -0.0044
 1745W        W19269  10.442  11.128   3.190 -0.3103  0.1686 -0.3394
 1746W        W19270  17.546   2.933   3.471 -0.0837  0.0038 -0.0659
 1747W        W19271  14.897  10.413   2.493  0.5432  0.1213  0.1477
 1748W        W19272   5.513   6.522  13.990  0.0533 -0.2997  0.0765
 1749W        W19273  15.808   7.354   0.150 -0.0366  0.0109  0.0772
 1750W        W19274   3.691  16.316  13.988  0.1196  0.0185 -0.2279
 1751W        W19275   3.037   4.252   3.072  0.1446 -0.0546 -0.0463
 1752W        W19276  17.371  16.040   2.036  0.1956 -0.0905 -0.0891
 1753W        W19277   2.007   9.007   3.085  0.4716 -0.0961  0.0791
 1754W        W19278   0.615   6.963   2.045  0.0586 -0.3484  0.0764
 1755W        W19279   2.659   5.911   1.780 -0.0579  0.1591 -0.0485
 1756W        W19280  16.866  13.373   4.915 -0.1332 -0.1053  0.0024
 1757W        W19281   2.145   4.942   1.061 -0.3897  0.0984 -0.3481
 1758W        W19282  13.427  15.416   1.436 -0.0280 -0.0617  0.2851
 1759W        W19283   6.641  16.564  11.581  0.1042  0.0062 -0.0523
 1760W        W19284  11.341   8.171  10.714  0.1511 -0.2310 -0.0316
 1761W        W19285  13.492   8.575  12.535  0.0273  0.3060 -0.0990
 1762W        W19286   5.707   8.961  11.597  0.1723 -0.1901 -0.1336
 1763W        W19287  11.360  11.366   1.603 -0.3901 -0.1128 -0.0249
 1764W        W19288  10.079  10.210   0.141 -0.1440  0.2587 -0.1901
 1765W        W19289   2.389   1.915  13.324 -0.0886 -0.0396  0.0880
 1766W        W19290   2.321  10.178  12.259 -0.0157  0.6054 -0.1276
 1767W        W19291  17.550   7.116   1.778  0.2988 -0.1160  0.3079
 1768W        W19292  13.377   7.142   4.310  0.0466 -0.0785 -0.1334
 1769W        W19293  16.492  14.066  14.080  0.0014  0.2888  0.0824
 1770W        W19294   1.745   9.123   5.037  0.2981  0.1045 -0.0604
 1771W        W19295   2.825   7.078   4.463 -0.1160 -0.1963  0.1374
 1772W        W19296   5.774  14.790  13.278  0.2764  0.2017 -0.1111
 1773W        W19297   8.220   7.163   2.097  0.1229  0.0166 -0.2002
 1774W        W19298  14.630   9.869   4.963 -0.0253  0.0670 -0.1681
 1775W        W19299   9.008   5.813  15.061 -0.0079  0.1276 -0.0427
 1776W        W19300   3.326  17.308  13.331  0.1002  0.2467  0.1376
 1777W        W19301  12.087   9.847  13.726  0.2496  0.1689 -0.3387
 1778W        W19302   7.282   8.730  12.182  0.0186  0.2886  0.0751
 1779W        W19303   7.679  14.256   0.877  0.2418  0.3264 -0.2330
 1780W        W19304  15.868   5.572   1.128  0.2225  0.2399 -0.0283
 1781W        W19305   7.854   5.067   2.566 -0.2710  0.3600 -0.2545
 1782W        W19306   7.432   7.488  14.984  0.2758  0.0464 -0.0916
 1783W        W19307  17.175   9.491   1.781 -0.2977  0.1966 -0.1057
 1784W        W19308   2.717   8.311  11.896  0.1800 -0.3112  0.3148
 1785W        W19309   1.405   1.570   0.429  0.1168 -0.2409 -0.0668
 1786W        W19310   0.698  10.125   4.603 -0.0080 -0.1069  0.0532
 1787W        W19311  10.134   9.589   0.987 -0.0293  0.0122  0.2746
 1788W        W19312  16.595   9.492  13.119  0.0797  0.4635  0.0219
 1789W        W19313   9.110  17.527   2.728  0.0934  0.1737  0.0257
 1790W        W19314   6.089   9.625  15.704 -0.0932 -0.0035 -0.1862
 1791W        W19315  12.870   4.303  15.604 -0.1640  0.0953 -0.1555
 1792W        W19316   8.646   5.117  16.405 -0.0984  0.0215 -0.0403
 1793W        W19317  13.913   8.506   1.643  0.3260  0.3662 -0.0457
 1794W        W19318   0.981   7.987   2.973  0.0090 -0.2904  0.0284
 1795W        W19319   0.508   9.764  13.342 -0.0974  0.0800 -0.1830
 1796W        W19320  12.391   4.277   4.475  0.1238 -0.2057 -0.1494
 1797W        W19321   9.412   0.609   1.443 -0.2025  0.0988 -0.1078
 1798W        W19322   2.945  11.742   4.190  0.0551  0.0715  0.1707
 1799W        W19323  10.130   6.310  10.438 -0.1831 -0.1967 -0.1380
 1800W        W19324   1.261   2.413   3.798  0.0607 -0.0722  0.0432
 1801W        W19325   4.541  15.977  14.724  0.1133 -0.5147 -0.1089
 1802W        W19326   5.975   9.240   0.961  0.2626 -0.0934 -0.2741
 1803W        W19327  12.194  14.692   4.355  0.0992  0.0479  0.1582
 1804W        W19328  15.623  10.282  14.304 -0.0902  0.2138  0.1679
 1805W        W19329  14.073   6.105   4.999 -0.1429  0.0552 -0.2561
 1806W        W19330  10.837  11.520   2.947  0.0436 -0.0981  0.3132
 1807W        W19331  16.200   4.143   4.313 -0.0053 -0.0225  0.0177
 1808W        W19332   2.826  10.034   1.510 -0.0996 -0.2051 -0.3489
 1809W        W19333  14.623   7.611   0.917 -0.1207  0.2606 -0.1121
 1810W        W19334  15.021   2.840   3.679 -0.2062 -0.1140 -0.0889
 1811W        W19335   6.402   1.483   0.593 -0.2846 -0.2609  0.3991
 1812W        W19336  14.615  10.398  13.190  0.0704  0.0452 -0.0339
 1813W        W19337  13.615  14.457  13.479  0.2664 -0.2124 -0.1704
 1814W        W19338   6.973   7.663  15.177 -0.0763 -0.0083 -0.2754
 1815W        W19339  11.606   0.024  12.692 -0.0395  0.0549 -0.0852
 1816W        W19340  16.054  16.514  16.023 -0.3738 -0.1800  0.2051
 1817W        W19341   1.898  12.430  11.977  0.1552 -0.1325  0.0731
 1818W        W19342   2.098  15.062   0.261 -0.0970  0.0893  0.1459
 1819W        W19343  13.134   0.832  13.224 -0.0303  0.0307  0.1455
 1820W        W19344  14.830  11.554  13.149  0.2019 -0.0014  0.1432
 1821W        W19345   0.997   6.191  14.293  0.1055 -0.1571 -0.1771
 1822W        W19346  16.956  10.511  14.296 -0.0742 -0.1542  0.0235
 1823W        W19347  17.216   1.318  13.615  0.1106  0.2169 -0.0306
 1824W        W19348   8.981   5.616  15.943  0.0342 -0.3291 -0.2007
 1825W        W19349   4.627   2.720  12.326  0.1527 -0.3450  0.2620
 1826W        W19350   1.609   3.872   4.810  0.1410  0.1300  0.1790
 1827W        W19351   5.481   6.295  14.578  0.0464 -0.3743 -0.0604
 1828W        W19352   4.417   7.062  11.943 -0.0865 -0.2090  0.1226
 1829W        W19353   1.112   4.242  14.212 -0.0563 -0.1850 -0.0863
 1830W        W19354   0.333   5.271   4.667 -0.1671  0.0644 -0.2204
 1831W        W19355  15.007   8.616  11.013 -0.1973  0.1309  0.0673
 1832W        W19356  16.439  17.614  12.628  0.3086 -0.1079  0.0510
 1833W        W19357  17.496  15.911  16.008 -0.2746 -0.1536 -0.2677
 1834W        W19358   1.405  11.186  14.653  0.1097 -0.1992 -0.0880
 1835W        W19359   5.388  10.534  12.647 -0.4044  0.0056  0.1784
 1836W        W19360   7.265   3.368  15.280  0.2666 -0.2895 -0.2354
 1837W        W19361   3.937  10.633   2.129 -0.2595  0.4899 -0.0940
 1838W        W19362   4.166  17.327  15.202 -0.1311 -0.1021  0.0718
 1839W        W19363  13.189   6.859   1.740 -0.1371 -0.0612 -0.2139
 1840W        W19364   2.291   4.040   2.811 -0.3290 -0.4898  0.0931
 1841W        W19365  14.683   1.146  15.197 -0.0552  0.2232 -0.2663
 1842W        W19366  16.049  10.266  13.061 -0.2939 -0.1146 -0.0811
 1843W        W19367  13.643  17.896   3.239  0.0446 -0.0027  0.0759
 1844W        W19368   1.905  11.974  15.856 -0.0860  0.0691 -0.0312
 1845W        W19369  17.422  13.129  12.788  0.0435  0.6207  0.0716
 1846W        W19370   6.045  11.913   2.160  0.0788  0.1299 -0.2985
 1847W        W19371  10.204   0.316  12.195 -0.1476 -0.1406  0.1706
 1848W        W19372   7.269  10.663  13.638 -0.1731 -0.0980  0.1948
 1849W        W19373  12.740  16.150   0.288 -0.4017  0.0322 -0.1371
 1850W        W19374   5.000   0.550   3.158  0.0470 -0.1698 -0.1211
 1851W        W19375   4.812  17.909  14.648 -0.0883  0.0700  0.1202
 1852W        W19376   6.549   7.315   3.507  0.0270 -0.1671 -0.0659
 1853W        W19377   5.462  12.219  12.807  0.1620  0.1101  0.2919
 1854W        W19378   9.182  14.308  15.423  0.0089  0.1802 -0.2147
 1855W        W19379   0.391   6.950   3.706  0.0044 -0.0932  0.2598
 1856W        W19380  11.135   5.757  12.651  0.1576 -0.0122  0.0783
 1857W        W19381  14.709  14.274  14.700  0.3062 -0.1169 -0.0094
 1858W        W19382   8.350  13.396   1.380 -0.0161 -0.0855  0.1711
 1859W        W19383   9.372   6.323  11.018 -0.1290 -0.1107 -0.1339
 1860W        W19384  13.184   6.227   4.826 -0.1004  0.2316  0.0786
 1861W        W19385   9.566  16.762  11.126  0.1769 -0.1230 -0.0916
 1862W        W19386  17.292   3.961   4.801 -0.0766  0.0582 -0.0707
 1863W        W19387   0.457   1.589  13.205 -0.4565 -0.1643 -0.0030
 1864W        W19388  14.576   6.707  13.870 -0.3074 -0.0820  0.0839
 1865W        W19389   1.560   8.549  15.756  0.1951  0.1534 -0.1134
 1866W        W19390   6.378   4.665   2.352  0.1785  0.0350 -0.0003
 1867W        W19391  13.732   1.158  11.835  0.1689  0.1323 -0.1662
 1868W        W19392   9.835  12.950   3.506  0.0522 -0.0281  0.4796
 1869W        W19393   4.647  17.182   4.722  0.2356 -0.0824  0.2391
 1870W        W19394  12.279   5.763  13.571  0.2975  0.1171 -0.1875
 1871W        W19395   1.542  15.126  11.423 -0.2346 -0.0811  0.0769
 1872W        W19396  17.326   4.867  11.900  0.4510 -0.1307 -0.0201
 1873W        W19397  14.043   4.254  14.962 -0.0256 -0.1266  0.1040
 1874W        W19398   8.481   8.515  12.770  0.0706 -0.2290 -0.1549
 1875W        W19399  16.094   6.427   3.089  0.1094 -0.1293  0.3803
 1876W        W19400   5.193  17.918  15.227 -0.2718  0.7595 -0.0866
 1877W        W19401   9.027  15.960   2.391  0.0844  0.1777  0.2680
 1878W        W19402  11.619   7.672  15.775  0.1187 -0.2616  0.1307
 1879W        W19403  12.347   5.710   4.915  0.0974  0.0311 -0.2764
 1880W        W19404   2.505   1.178  12.407 -0.1382 -0.1729 -0.0392
 1881W        W19405   3.141   8.800  15.938  0.2765  0.2027 -0.0605
 1882W        W19406   7.829   0.760  13.346 -0.1533  0.1163  0.1461
 1883W        W19407   6.923  13.349  11.800  0.0520 -0.1929  0.1691
 1884W        W19408  15.163   7.364  12.426 -0.1804  0.1246  0.3010
 1885W        W19409   7.830  11.646   4.975  0.0314  0.2463  0.0366
 1886W        W19410   6.797   1.171  14.153  0.0187  0.0834  0.1989
 1887W        W19411   3.726   8.832  13.388 -0.0688  0.1133 -0.1209
 1888W        W19412   8.193  17.124   5.396  0.1392  0.1075 -0.1129
 1889W        W19413   7.099  11.015   0.409 -0.0673 -0.1173 -0.0289
 1890W        W19414   4.738  14.770   0.662  0.0446 -0.2118 -0.0424
 1891W        W19415  15.210   3.236   4.138  0.0284  0.0943  0.3116
 1892W        W19416   8.347   0.595  11.076  0.1122  0.0820  0.0773
 1893W        W19417   1.120   9.777   4.600 -0.3006  0.1368  0.1104
 1894W        W19418   9.087  10.575  11.604 -0.1315 -0.0510  0.4591
 1895W        W19419  16.649   9.883  13.452  0.2416  0.0203  0.0881
 1896W        W19420   6.761   3.546   1.162  0.1659 -0.2333  0.0052
 1897W        W19421  12.128   4.842  15.826  0.1441  0.2329  0.3602
 1898W        W19422  17.371   9.714  12.990  0.1343  0.2572 -0.1974
 1899W        W19423  12.507   3.836   5.256  0.0832  0.1243 -0.2023
 1900W        W19424  11.833  17.455   4.831 -0.0757  0.0765  0.1011
 1901W        W19425  13.334  15.325  11.720 -0.4211 -0.1419  0.2619
 1902W        W19426   9.047  10.631  14.510 -0.0804  0.0109 -0.3008
 1903W        W19427  14.604   7.446   0.343  0.0434  0.2283  0.1897
 1904W        W19428   6.232  15.061   3.502  0.1587  0.2833 -0.1640
 1905W        W19429   0.826  15.289   1.311 -0.0229  0.4446 -0.1220
 1906W        W19430  13.584  16.474  14.365 -0.0129  0.2467  0.0195
 1907W        W19431  11.986   7.496  14.813  0.1883 -0.3102  0.1398
 1908W        W19432   5.835   0.222  13.817  0.0483 -0.1024  0.1622
 1909W        W19433  12.603  15.195   1.809  0.2333  0.1926  0.1422
 1910W        W19434   6.611  11.890   2.327  0.1598 -0.1367 -0.3748
 1911W        W19435   4.278   5.371   1.474 -0.1251  0.2754 -0.1224
 1912W        W19436   2.201   1.587  12.926  0.1737 -0.0229  0.0606
 1913W        W19437   5.745  10.291  11.493  0.1668 -0.0802 -0.1762
 1914W        W19438   6.028  15.933  15.883  0.0185  0.3448 -0.1289
 1915W        W19439  15.047   4.547  12.845  0.0530 -0.1346 -0.0685
 1916W        W19440   5.254  17.737   0.385 -0.2790 -0.1795 -0.0667
 1917W        W19441   3.515   8.065   0.947  0.5131 -0.2070 -0.2419
 1918W        W19442   3.124   8.216   0.330 -0.0504 -0.2020  0.1083
 1919W        W19443  14.924  10.925   4.048  0.0066  0.2861  0.0943
 1920W        W19444   4.044  16.187   2.781 -0.0096  0.1019  0.0592
 1921W        W19445   9.071   7.632  15.195  0.0020 -0.1352 -0.2395
 1922W        W19446   0.202   0.062  12.723 -0.0252  0.0559  0.5182
 1923W        W19447  12.475  15.113  16.141  0.1086  0.1450  0.1233
 1924W        W19448  10.379  13.147  15.469  0.0649 -0.1407  0.2380
 1925W        W19449   2.649   2.640   3.872  0.1591  0.1012 -0.1811
 1926W        W19450   0.743   1.944   2.704  0.1455 -0.1805  0.0364
 1927W        W19451   4.464   7.801   5.627  0.2648 -0.2136 -0.1220
 1928W        W19452  16.471  14.251  12.738  0.0115 -0.2493  0.4318
 1929W        W19453   7.457  17.117  13.995  0.0683  0.0994  0.2075
 1930W        W19454   7.792   1.255   3.896  0.1401 -0.2910  0.0839
 1931W        W19455   9.861  15.612   0.289 -0.1708  0.0126 -0.1866
 1932W        W19456   3.984  12.515  11.820 -0.0658 -0.0181 -0.4449
 1933W        W19457  15.227   2.956  13.078  0.1177 -0.1592  0.0256
 1934W        W19458  11.648   2.562  13.723  0.1768  0.0285 -0.1034
 1935W        W19459  13.598   2.057  15.568 -0.2857 -0.1273  0.1121
 1936W        W19460  10.030  13.342  12.109 -0.1003  0.0368 -0.1012
 1937W        W19461   3.621  17.820   1.317 -0.2158 -0.0264  0.0512
 1938W        W19462   5.144   3.957   2.135  0.1731 -0.0254  0.3551
 1939W        W19463   9.601   2.914   1.432 -0.1052  0.0397 -0.0442
 1940W        W19464  12.043  14.542   3.253  0.0463 -0.1675 -0.0491
 1941W        W19465   0.725   5.292  15.468 -0.1237 -0.2273 -0.0400
 1942W        W19466   1.584   8.749  14.161  0.1402  0.1367 -0.0035
 1943W        W19467   7.455   9.326   2.980 -0.1057 -0.2108  0.3028
 1944W        W19468  10.544   0.215  11.336  0.0447 -0.0039 -0.0552
 1945W        W19469   4.377   6.335   0.655  0.0940 -0.0406 -0.1019
 1946W        W19470  15.877  13.546  14.555  0.1371 -0.0597  0.0007
 1947W        W19471   9.844  10.979  12.000  0.1497 -0.3548 -0.2694
 1948W        W19472   3.741  11.729   2.121 -0.0479 -0.3265  0.1674
 1949W        W19473  11.480   0.630   5.256  0.0040  0.1182  0.0863
 1950W        W19474   8.126   6.909   0.280  0.0446  0.0759 -0.0827
 1951W        W19475   7.332   5.225   0.790  0.1699 -0.1445 -0.0001
 1952W        W19476   0.768   3.358  13.081 -0.1942 -0.1114 -0.1238
 1953W        W19477   7.112   2.538   2.674  0.0508  0.0191  0.0535
 1954W        W19478  12.328   6.647   3.520 -0.1149  0.0464 -0.1099
 1955W        W19479  16.309  12.147   3.948  0.0603  0.1469  0.0919
 1956W        W19480  17.617   6.823  16.448 -0.1993 -0.2076  0.2908
 1957W        W19481  10.876   3.058  13.889 -0.0020  0.2963 -0.1644
 1958W        W19482   9.833  17.564  13.296  0.0015  0.1176  0.1667
 1959W        W19483  13.830  10.238  11.591  0.1235 -0.0593 -0.0794
 1960W        W19484   3.197  10.804  14.283  0.3006 -0.0467  0.0455
 1961W        W19485   8.924  11.396   2.212  0.3858  0.1339  0.0845
 1962W        W19486   6.557   6.575  14.845  0.1390 -0.0549 -0.0169
 1963W        W19487  13.987   6.161  15.273 -0.3278 -0.1723  0.0676
 1964W        W19488  13.668  15.420   3.676 -0.1634 -0.4730  0.0778
 1965W        W19489   1.117  10.022   0.422  0.1682  0.2160  0.0982
 1966W        W19490  15.843  11.034   0.332 -0.0871 -0.3100 -0.1509
 1967W        W19491   2.438   7.356   5.054 -0.0098  0.0707  0.0563
 1968W        W19492   2.636  12.755   0.804 -0.0992  0.1983 -0.1042
 1969W        W19493   6.448  11.329  14.138  0.2397 -0.0938 -0.2163
 1970W        W19494  12.082   4.379  12.062 -0.1322 -0.0073  0.1493
 1971W        W19495  16.815  17.114  12.620  0.0816  0.1734  0.1290
 1972W        W19496  10.797   9.275  14.296  0.1826  0.0239 -0.2801
 1973W        W19497  11.344   8.610  11.793  0.2458  0.2379 -0.0781
 1974W        W19498   9.581  16.628  13.140 -0.0637 -0.0378 -0.1924
 1975W        W19499   3.107   6.820  13.278  0.2439 -0.2196  0.0113
 1976W        W19500   3.038   4.081  14.358 -0.0763  0.1027  0.1357
 1977W        W19501  15.333  16.975   0.967 -0.4131 -0.0946 -0.1686
 1978W        W19502   1.815  17.546  10.719 -0.0478  0.0143 -0.1837
 1979W        W19503   8.216   9.822  15.086  0.1130 -0.1585 -0.0802
 1980W        W19504   5.315  10.419   0.162  0.0583 -0.1968  0.2158
 1981W        W19505  15.025  17.730  14.888  0.1331  0.0580 -0.0000
 1982W        W19506   1.898   8.260  11.746  0.0971  0.4639  0.1171
 1983W        W19507   7.014  14.312  14.959 -0.1133  0.0319 -0.1368
 1984W        W19508  12.779  12.749   3.522 -0.0500  0.0607  0.0562
 1985W        W19509   9.290   7.361   4.545 -0.1139 -0.0138  0.0505
 1986W        W19510   7.982   8.357   3.976  0.1248  0.1185 -0.0346
 1987W        W19511   3.813  15.143   2.666 -0.1250 -0.0232 -0.1457
 1988W        W19512   7.643   0.268  10.954 -0.0318  0.2562  0.1283
 1989W        W19513  15.299  17.001  16.009  0.1112 -0.0297 -0.0111
 1990W        W19514   7.217  15.602  15.741 -0.2656  0.1952  0.2563
 1991W        W19515  14.386  13.823  12.618 -0.1669  0.1455 -0.2252
 1992W        W19516   2.739  17.815   0.065  0.0771  0.0693 -0.1027
 1993W        W19517   9.088   8.886   2.472 -0.0884  0.1805 -0.1297
 1994W        W19518  13.785  10.006   3.818  0.0158  0.0893 -0.0118
 1995W        W19519  13.938   0.711  11.664  0.2093  0.1090  0.1755
 1996W        W19520  11.881   6.355  12.968 -0.1215 -0.2444 -0.1529
 1997W        W19521   3.847  15.343  14.249 -0.3427 -0.0923 -0.0593
 1998W        W19522  12.085  16.519  12.448 -0.0586 -0.0145  0.0203
 1999W        W19523   9.188   6.432   0.393 -0.1879 -0.0466 -0.0491
 2000W        W19524   1.306   1.639  16.363 -0.0837  0.1062 -0.1021
 2001W        W19525  15.017   9.288  11.697 -0.0847 -0.0921  0.1575
 2002W        W19526   1.120  17.032  13.152 -0.2427 -0.1688  0.0752
 2003W        W19527  12.500  11.568   1.530  0.1402 -0.0953 -0.1561
 2004W        W19528  10.294  10.048   4.749  0.2049 -0.2268 -0.0792
 2005W        W19529   2.484   4.464   2.401  0.0843 -0.1097  0.0502
 2006W        W19530  16.377  16.279   2.431 -0.2850 -0.3535  0.2997
 2007W        W19531  16.218   3.057   5.177  0.1792  0.1584  0.2977
 2008W        W19532   3.063  13.094   2.360 -0.1691  0.0770  0.0831
 2009W        W19533   3.071   6.305   3.288 -0.0826  0.0725 -0.1503
 2010W        W19534  12.118   2.352   5.770 -0.4006 -0.0138  0.0375
 2011W        W19535   2.050   6.274  14.716  0.0170 -0.0552 -0.1599
 2012W        W19536  10.811   3.466  14.775 -0.1831 -0.1353 -0.1401
 2013W        W19537  16.676  15.667   3.956  0.1432 -0.0569 -0.1339
 2014W        W19538  13.747   9.236  11.327  0.1677  0.1845 -0.0174
 2015W        W19539   6.790  17.369   4.006 -0.1699 -0.2856  0.1799
 2016W        W19540  17.607  10.860   2.339 -0.1456 -0.1688  0.1374
 2017W        W19541   9.316  13.660   0.914  0.1414  0.1848 -0.1659
 2018W        W19542   8.185  16.123  16.262  0.0815  0.1077  0.2964
 2019W        W19543  10.790  16.252   2.139  0.1585  0.0381  0.0020
 2020W        W19544  15.312  11.680  15.867  0.0810 -0.1613 -0.0054
 2021W        W19545  11.007   0.064   2.767  0.2062  0.3745 -0.1962
 2022W        W19546  15.770   1.458   4.229 -0.0930  0.0327  0.1875
 2023W        W19547   5.883  14.024  15.772  0.3687 -0.2021 -0.0631
 2024W        W19548   5.958   1.081  10.528 -0.1234  0.2667  0.2409
 2025W        W19549  17.245   5.953  13.763  0.1253 -0.0953  0.2328
 2026W        W19550   6.467   3.692  11.842 -0.2821  0.0477 -0.3491
 2027W        W19551   9.127  16.982  14.249  0.4488  0.0995  0.4114
 2028W        W19552  17.747   4.922   0.978  0.0499 -0.0434  0.1843
 2029W        W19553  16.075   4.474   3.928  0.0385  0.1796  0.1696
 2030W        W19554  10.367   7.953  13.982 -0.0438  0.0247 -0.2077
 2031W        W19555  14.359   0.086  15.454 -0.1844 -0.0820  0.1221
 2032W        W19556   0.799   1.401  11.971  0.1811 -0.1805  0.2074
 2033W        W19557   7.950   4.317  15.584 -0.1819 -0.0111 -0.0342
 2034W        W19558   9.816   2.103   1.188  0.1473 -0.1591  0.1188
 2035W        W19559  16.075   6.406   5.121 -0.0065  0.1781  0.2606
 2036W        W19560   2.192  16.797   3.258 -0.1094 -0.1751  0.0637
 2037W        W19561   3.713   1.531  15.725  0.4536 -0.2135  0.1295
 2038W        W19562   8.825   1.911  13.754  0.1067  0.1477  0.1345
 2039W        W19563   6.675  12.201   0.436 -0.2423 -0.0834  0.3209
 2040W        W19564   3.214   1.615  13.529 -0.0876  0.2982 -0.5538
 2041W        W19565  17.639   8.652  16.134 -0.2197 -0.2021  0.1341
 2042W        W19566   0.703   2.756   5.880  0.1858 -0.1486  0.0745
 2043W        W19567  13.578   6.463   0.306 -0.0745  0.2059 -0.0187
 2044W        W19568  13.239   1.508  16.166 -0.1892  0.3591 -0.1056
 2045W        W19569  10.142  10.309   2.834 -0.1578 -0.5264 -0.0777
 2046W        W19570  11.834  15.148   0.652 -0.0885  0.1128  0.0388
 2047W        W19571  12.140  17.567  13.016 -0.2588 -0.1700 -0.1478
 2048W        W19572   5.686   4.479   3.431 -0.1382  0.0056 -0.2930
 2049W        W19573  13.089   1.785  11.849 -0.0057 -0.1666  0.0491
 2050W        W19574  16.523   3.630  15.926 -0.2785  0.1507 -0.1407
 2051W        W19575   6.366  13.675  13.313 -0.0780 -0.1316 -0.0893
 2052W        W19576   8.837   1.238  13.236  0.1263  0.1873 -0.2325
 2053W        W19577  12.719  16.118   2.890 -0.2222  0.1992 -0.0260
 2054W        W19578   4.594  13.501   2.100 -0.1806 -0.0185 -0.2811
 2055W        W19579   3.239  15.387  10.719 -0.4391  0.2664 -0.0400
 2056W        W19580  14.606  13.836   2.247 -0.1307  0.1917  0.0849
 2057W        W19581  12.029   7.242   0.324  0.0333  0.0207 -0.1545
 2058W        W19582  11.411   2.988   3.827  0.0740 -0.0814  0.1905
 2059W        W19583   7.738  15.830  14.786 -0.1903  0.1621  0.0186
 2060W        W19584  11.494  11.718  15.538  0.0291 -0.0827  0.1296
 2061W        W19585   5.109   9.560  16.014  0.0136  0.0461 -0.4466
 2062W        W19586   5.051  10.320  12.929  0.0805  0.3605 -0.0590
 2063W        W19587  16.226  11.274  16.306  0.1322 -0.2870  0.1411
 2064W        W19588   1.499  14.123  11.596  0.2790  0.3795 -0.1198
 2065W        W19589  11.119  14.016  13.359 -0.0711 -0.2302  0.1908
 2066W        W19590   3.767  15.927  12.706 -0.0647 -0.1442 -0.3442
 2067W        W19591  17.566   5.817   1.398 -0.1336 -0.1901  0.0104
 2068W        W19592   3.268   7.534  11.032 -0.3205  0.2540  0.0531
 2069W        W19593  13.549  11.663  13.494 -0.0988  0.0855 -0.2985
 2070W        W19594   6.018   6.203   2.443 -0.0604  0.0140 -0.0518
 2071W        W19595  11.476  16.744  13.171 -0.0381  0.3183  0.1929
 2072W        W19596  10.216  14.135  16.401 -0.0148 -0.3276  0.3448
 2073W        W19597   4.763   8.963   5.147 -0.4671  0.0675  0.0785
 2074W        W19598   9.853   9.388   0.520  0.0454  0.1941 -0.2887
 2075W        W19599   6.295  11.460   2.179 -0.0608  0.1811 -0.1833
 2076W        W19600   4.969  15.579  11.782  0.2288 -0.4915 -0.0985
 2077W        W19601  10.984  16.226  12.371 -0.0296 -0.1084 -0.0826
 2078W        W19602  17.701   7.624  12.163 -0.2026  0.1614 -0.3868
 2079W        W19603   2.037  12.129  12.382 -0.1324 -0.0955 -0.0275
 2080W        W19604  17.713  10.177   5.018 -0.1863 -0.0452  0.0670
 2081W        W19605  12.631   0.874   0.225  0.3664 -0.1545  0.0985
 2082W        W19606   9.021  16.133   3.003 -0.1307  0.0921 -0.0992
 2083W        W19607   1.752   7.178   3.465 -0.0974 -0.1619  0.0983
 2084W        W19608   0.774   8.916  16.255 -0.2810  0.0904 -0.2528
 2085W        W19609   2.073   8.432   0.875 -0.0811  0.1519  0.1158
 2086W        W19610   6.482  12.622  12.319  0.0813  0.2143  0.2336
 2087W        W19611  13.247   2.734   4.164  0.0881  0.0213 -0.0096
 2088W        W19612   6.611  14.220   3.920 -0.0431  0.0568 -0.4071
 2089W        W19613   6.102   2.939  15.619 -0.1314  0.0472  0.3464
 2090W        W19614  16.977   8.911  12.065  0.0406 -0.1049 -0.1006
 2091W        W19615  13.513   8.811  14.688  0.0028 -0.0779 -0.0474
 2092W        W19616   2.183   7.047   0.908 -0.1580 -0.0953 -0.2503
 2093W        W19617  10.704   4.072  15.027 -0.0562  0.0623 -0.2472
 2094W        W19618  17.825  10.354   2.628 -0.1749  0.2205 -0.1880
 2095W        W19619   7.970  13.072   3.690 -0.1685 -0.0623  0.0746
 2096W        W19620  15.468  15.138   3.863  0.1468  0.3959  0.1449
 2097W        W19621  10.698   0.809   2.305 -0.0416  0.0622 -0.1355
 2098W        W19622   4.892   4.536  16.276 -0.0475  0.1409 -0.0355
 2099W        W19623   2.888  17.027  15.756 -0.2868  0.0164 -0.0427
 2100W        W19624   3.293   3.357   0.131  0.0887 -0.0270  0.0002
 2101W        W19625   6.841   6.843  15.936  0.0712 -0.1759 -0.0700
 2102W        W19626  11.543   2.054   0.289  0.0128  0.1309 -0.1409
 2103W        W19627   9.509   9.432   4.866  0.2103  0.2184  0.0617
 2104W        W19628   3.349   3.264  14.238  0.0132  0.1203 -0.1180
 2105W        W19629  14.320   6.761   0.848  0.1118 -0.1912 -0.1601
 2106W        W19630   3.597   6.754  13.350  0.1712 -0.2314  0.0702
 2107W        W19631  10.353   0.064  14.850  0.4442 -0.2711  0.0522
 2108W        W19632  15.296   0.872   2.384  0.2016  0.0168 -0.2851
 2109W        W19633   0.824  15.349   0.729 -0.2529 -0.1557  0.1118
 2110W        W19634   7.549   8.529   2.649  0.0001 -0.3351  0.2496
 2111W        W19635  10.374  16.258  16.234 -0.0494 -0.1629 -0.3864
 2112W        W19636  10.113   3.039  11.883  0.2020  0.2263  0.0511
 2113W        W19637   6.402   0.636   5.315  0.0861 -0.2516  0.0530
 2114W        W19638  11.026   6.366   4.346 -0.0833 -0.0363 -0.2264
 2115W        W19639   9.189  10.406   3.436  0.0168  0.2435  0.0026
 2116W        W19640   2.157   1.057   3.209  0.3269 -0.1166  0.0436
 2117W        W19641  12.445   4.589   6.094  0.0492  0.4596 -0.1897
 2118W        W19642  15.215   5.211  12.225  0.2184 -0.1686  0.1571
 2119W        W19643  14.704  16.849  12.130 -0.3367 -0.1020  0.2098
 2120W        W19644   4.441   7.859   0.025 -0.0392  0.0700 -0.0869
 2121W        W19645   7.475  14.659  15.693 -0.0211 -0.2307 -0.2301
 2122W        W19646  15.908   8.456  14.854 -0.1063 -0.1526 -0.2440
 2123W        W19647   4.142  16.428   4.157  0.2710  0.0533 -0.0366
 2124W        W19648   1.654  10.691   5.147 -0.1045 -0.2423 -0.1044
 2125W        W19649   3.132   0.729   4.528 -0.0319  0.1285  0.2058
 2126W        W19650   9.642   6.693   2.388  0.2348  0.3793  0.1976
 2127W        W19651  11.257   1.650  15.302  0.2043  0.0966 -0.1439
 2128W        W19652   9.955   2.145   0.680  0.0884  0.5185 -0.0023
 2129W        W19653   4.435   5.688  13.413  0.2614 -0.0135  0.0195
 2130W        W19654  13.894   5.411  11.910 -0.1832  0.3858  0.3975
 2131W        W19655   9.019   2.689  15.735  0.1804 -0.0600  0.3741
 2132W        W19656  13.279  14.231   1.077 -0.0929  0.0872  0.2999
 2133W        W19657   3.296   9.857  14.097  0.0530 -0.0142 -0.0852
 2134W        W19658  16.358   7.519  15.109  0.0559 -0.4373  0.1601
 2135W        W19659   4.426  12.232   2.775  0.0493 -0.0827  0.0268
 2136W        W19660  10.105   6.249  12.800  0.1296 -0.1675  0.2240
 2137W        W19661   7.806   1.406  15.500 -0.2687 -0.1619  0.1266
 2138W        W19662   0.581   6.265  15.015  0.2149 -0.1389  0.2149
 2139W        W19663  13.384   8.203   2.788 -0.0808  0.2463 -0.0619
 2140W        W19664   8.692  13.634   0.088 -0.3514 -0.0712  0.0644
 2141W        W19665  17.892   6.087   4.710  0.4260 -0.0475 -0.0727
 2142W        W19666   9.525  11.806  14.788  0.0074 -0.1589 -0.2601
 2143W        W19667  11.193   9.068   4.925  0.0766 -0.0280  0.0506
 2144W        W19668   6.887   1.607  11.850 -0.0817 -0.0614  0.0949
 2145W        W19669   7.073   2.908  13.866 -0.0323  0.0882 -0.0377
 2146W        W19670   7.215  12.686  12.996  0.2343 -0.2213  0.2364
 2147W        W19671  16.619  12.460  11.207 -0.2853  0.1594 -0.2478
 2148W        W19672   3.619   3.239  15.761  0.0840 -0.3941  0.0304
 2149W        W19673   1.239  15.221   4.717 -0.0787  0.0043 -0.1460
 2150W        W19674   0.942  11.713   3.284 -0.1859 -0.0950 -0.0903
 2151W        W19675   5.519  13.708   2.799 -0.0166 -0.0653  0.0196
 2152W        W19676   9.571  12.162   4.162 -0.5183 -0.3572  0.0378
 2153W        W19677  15.739   6.701  11.184 -0.1362  0.1828  0.2591
 2154W        W19678   6.614  12.701   5.323  0.1263 -0.1738  0.0746
 2155W        W19679  10.126  13.717  15.842  0.3037  0.2979 -0.0881
 2156W        W19680  14.633   4.383  14.505  0.3389 -0.1509 -0.0091
 2157W        W19681  13.540  10.425   1.487  0.1114  0.1021  0.1111
 2158W        W19682  16.480   0.258   1.964  0.0519  0.0718  0.2992
 2159W        W19683  10.757   3.536  11.374  0.2781 -0.2133 -0.4396
 2160W        W19684   6.597   8.006  12.205 -0.0400 -0.0577  0.0075
 2161W        W19685  16.523  12.195   2.404  0.0662 -0.0168 -0.0204
 2162W        W19686   3.883   4.154   0.651 -0.0733  0.1384  0.5483
 2163W        W19687  13.292  15.695  12.516  0.1145  0.1404 -0.1928
 2164W        W19688  14.585   8.750  14.123  0.2782 -0.5085 -0.0777
 2165W        W19689  12.327  11.873  15.423 -0.1707  0.1604 -0.2795
 2166W        W19690  14.346   0.787   1.926  0.0479 -0.2452 -0.4627
 2167W        W19691   8.574  11.598  14.386  0.0806  0.0906 -0.1119
 2168W        W19692  11.117  14.117   1.371 -0.0148  0.0877 -0.0224
 2169W        W19693  11.498   6.899   2.657 -0.3590  0.0645 -0.0288
 2170W        W19694  16.062  17.232   1.393  0.2236 -0.0952  0.0236
 2171W        W19695   0.783  16.287   5.545  0.1692 -0.1167  0.1152
 2172W        W19696   1.074   2.911  12.955  0.1934 -0.0373  0.0271
 2173W        W19697   3.837   1.041  15.601 -0.0247 -0.2084  0.0739
 2174W        W19698  16.585   6.128   1.667 -0.0465 -0.2505  0.0597
 2175W        W19699  15.153  14.733   1.299  0.4712 -0.4038 -0.1037
 2176W        W19700   1.383  11.399   0.903  0.0618  0.0968 -0.2046
 2177W        W19701  17.849  16.989   2.902  0.1169  0.0791 -0.2950
 2178W        W19702  10.902   7.892   1.272  0.0386 -0.3565 -0.0544
 2179W        W19703  17.929  16.669  12.412  0.0351  0.1191  0.0885
 2180W        W19704   3.223   3.870   3.391 -0.2876 -0.1110  0.0849
 2181W        W19705  11.689  16.429   4.244 -0.1015  0.1828 -0.1447
 2182W        W19706   5.891   6.889   2.250 -0.0343  0.1294 -0.1227
 2183W        W19707   2.022   0.023  15.618  0.0825  0.4434  0.1942
 2184W        W19708   4.134   5.128   0.421 -0.2433  0.0689 -0.2075
 2185W        W19709  14.033   0.930   2.288 -0.4207  0.1192  0.2104
 2186W        W19710   7.884   1.679   3.636 -0.0075  0.1510 -0.2845
 2187W        W19711  17.462   9.742  10.747 -0.0058  0.3112  0.0808
 2188W        W19712  15.154   8.456  11.728 -0.2428 -0.1301 -0.1932
 2189W        W19713  11.937  14.411  12.536 -0.1140  0.1398 -0.0120
 2190W        W19714   4.671   5.622   1.203  0.4505  0.1668 -0.1692
 2191W        W19715   8.950  15.871   1.892  0.1664 -0.0727  0.2662
 2192W        W19716   9.546   3.232   1.007  0.2483 -0.2540 -0.1495
 2193W        W19717  12.045   3.338  15.673 -0.0834 -0.0161  0.2793
 2194W        W19718   4.417   4.924   1.610  0.0446  0.0339 -0.1406
 2195W        W19719  12.221   8.989   4.651  0.3111  0.0759 -0.0400
 2196W        W19720   2.864   4.934   0.556  0.0889 -0.2255 -0.3743
 2197W        W19721  12.124   8.672  14.815 -0.1877  0.0463  0.2670
 2198W        W19722   5.744   6.900   0.209 -0.0168 -0.1983 -0.1617
 2199W        W19723  16.249  11.182  13.275  0.0075 -0.0666  0.2742
 2200W        W19724  16.491   5.556  12.535 -0.2736 -0.0864 -0.0907
 2201W        W19725  13.140   9.406  12.335  0.1315  0.3142  0.1318
 2202W        W19726  10.577  12.146   2.353 -0.0913  0.1073 -0.0341
 2203W        W19727   5.985   2.399   4.981  0.0279  0.0577 -0.1783
 2204W        W19728  15.721   9.377  14.971 -0.3004  0.2504  0.2650
 2205W        W19729   0.946   0.429  11.280 -0.1042  0.0843 -0.0387
 2206W        W19730  15.903   8.774  12.991  0.1195 -0.3207  0.0128
 2207W        W19731   6.717   8.470  12.261  0.0050 -0.1783  0.2175
 2208W        W19732  11.103  17.942   5.994 -0.0054 -0.0267  0.3464
 2209W        W19733   1.059  10.907  11.931 -0.1657  0.0533 -0.3471
 2210W        W19734   9.662   7.717  15.959 -0.4919  0.1677 -0.3113
 2211W        W19735   1.183  13.935   2.916 -0.0759  0.5088 -0.1168
 2212W        W19736   4.041   0.388  15.773  0.2681 -0.3381  0.1864
 2213W        W19737  11.742   8.478  16.454 -0.0031 -0.0124  0.0997
 2214W        W19738  10.942  14.091   4.279  0.1383  0.1614  0.5864
 2215W        W19739  16.132   8.780   4.003  0.2718 -0.0236 -0.0045
 2216W        W19740   2.505   7.612  15.769  0.4431  0.0701 -0.0478
 2217W        W19741   7.923   2.414  12.938 -0.1822  0.3860  0.0514
 2218W        W19742   2.580  16.143   0.171 -0.2539 -0.4503  0.1849
 2219W        W19743   8.935  17.664   4.619  0.0299  0.1944  0.2848
 2220W        W19744   6.576   4.953  13.913 -0.1249  0.3447  0.3651
 2221W        W19745  12.541   8.586   3.692  0.1266  0.1415  0.0609
 2222W        W19746  14.174   3.395   2.837 -0.3030 -0.1417  0.0907
 2223W        W19747   7.306   1.350   1.426 -0.0001  0.2542  0.4245
 2224W        W19748  11.931   8.926   2.089  0.2261 -0.1364  0.2724
 2225W        W19749  16.218   6.902   3.342  0.1522 -0.0791 -0.0249
 2226W        W19750  11.445  16.850  15.818  0.1314  0.0438 -0.1892
 2227W        W19751   8.484  17.785  15.184  0.0594 -0.1509 -0.2309
 2228W        W19752   6.778   5.604  14.540  0.0389  0.0136 -0.3290
 2229W        W19753  15.317  14.263  16.135 -0.1269  0.0982 -0.1267
 2230W        W19754   4.708  13.954   0.401 -0.0527 -0.3618  0.0385
 2231W        W19755   9.180   4.753  12.562  0.2042 -0.0783 -0.1793
 2232W        W19756   9.798   3.550  13.069  0.0180  0.0435 -0.0618
 2233W        W19757  17.593   0.519  14.696 -0.1739 -0.2430  0.2259
 2234W        W19758  11.199   9.265   0.326 -0.2027  0.1773  0.0241
 2235W        W19759  10.714  15.313   3.408 -0.3444 -0.2516 -0.0896
 2236W        W19760  13.842   7.281  13.538 -0.1818 -0.0473 -0.1329
 2237W        W19761  16.727  13.792   2.888  0.0511 -0.1614 -0.1567
 2238W        W19762  10.554  14.418  15.556 -0.2321 -0.1061  0.1791
 2239W        W19763  14.434  16.852   4.310 -0.2455  0.0566 -0.1085
 2240W        W19764  14.752   7.526   6.064  0.0576  0.2662  0.3590
 2241W        W19765   6.882   7.730   2.991 -0.1216 -0.0300  0.1881
 2242W        W19766   2.203   2.590  11.909 -0.1238  0.2567  0.3497
 2243W        W19767   1.969   4.689   2.258  0.1534 -0.2796  0.0473
 2244W        W19768  14.554   3.117   3.152 -0.0426  0.1447  0.1350
 2245W        W19769   2.399   0.809   2.873 -0.0186 -0.0713 -0.0930
 2246W        W19770   0.554  10.291   4.161  0.0798  0.0501  0.1941
 2247W        W19771  17.522   9.661   3.213 -0.3715  0.2363 -0.0372
 2248W        W19772   8.713   9.510  16.284 -0.3334 -0.0711 -0.4459
 2249W        W19773  12.406  17.464   2.866  0.0888 -0.2119  0.3202
 2250W        W19774  16.843   1.004   4.083 -0.1832  0.1289  0.0965
 2251W        W19775   4.689  16.122   4.406  0.1424 -0.1833 -0.0673
 2252W        W19776   5.879   6.868  13.384 -0.3998  0.2093  0.1528
 2253W        W19777   9.510   1.077   5.239 -0.2556  0.0418  0.1522
 2254W        W19778   8.996   3.071   0.445  0.0300 -0.1194 -0.1089
 2255W        W19779   3.646   7.773   4.297  0.4092 -0.2934 -0.1845
 2256W        W19780   7.300  10.562   0.278 -0.1047  0.0400  0.0566
 2257W        W19781  13.232   0.550   4.960  0.0536  0.2371 -0.0985
 2258W        W19782   3.716   3.615  16.163 -0.0427  0.1748 -0.3290
 2259W        W19783   3.759  13.399   0.905 -0.0831  0.0766 -0.0580
 2260W        W19784  16.128   1.367   2.507 -0.1019  0.2651  0.2111
 2261W        W19785  11.446   5.062  12.183  0.0439  0.1793 -0.1203
 2262W        W19786  13.779  12.378   2.265  0.2303 -0.0272 -0.1871
 2263W        W19787  15.330   4.292  11.553 -0.1582  0.2822 -0.0535
 2264W        W19788  10.514  12.227   4.353  0.0149  0.3392  0.0424
 2265W        W19789  11.538   8.312  12.760  0.2172 -0.0597  0.1313
 2266W        W19790   5.874  17.436  12.775  0.0336 -0.0392 -0.2174
 2267W        W19791  13.330  10.812   1.220  0.0497  0.3989  0.0947
 2268W        W19792  17.816  13.320   2.834 -0.0351 -0.0132 -0.1168
 2269W        W19793   7.651  11.359   3.084  0.0607 -0.1871  0.1329
 2270W        W19794  14.983   2.494   2.787  0.1248 -0.1930 -0.2609
 2271W        W19795   3.033  11.952   0.132 -0.1501  0.0658  0.0372
 2272W        W19796  12.233   1.282   2.646  0.3988 -0.1973 -0.3596
 2273W        W19797   9.575   6.063   0.255 -0.0840  0.1144  0.1542
 2274W        W19798   2.088   2.073   0.873  0.0507  0.1355  0.0660
 2275W        W19799  10.538   6.272   2.707  0.1036 -0.0172  0.2514
 2276W        W19800  15.312   6.422   1.721  0.0033  0.3247 -0.6023
 2277W        W19801   2.261   7.762   5.982  0.1228 -0.0569  0.1180
 2278W        W19802  16.457   1.962   2.047 -0.0591 -0.2011  0.0380
 2279W        W19803   2.042  16.513  14.776 -0.2316  0.0679 -0.2624
 2280W        W19804   3.095   8.952  13.988  0.3255 -0.0641  0.2704
 2281W        W19805  14.492  17.476  13.233 -0.0417  0.0225  0.1621
 2282W        W19806  13.898  10.539   0.925  0.1170  0.1131 -0.2005
 2283W        W19807  15.999  15.755  14.778 -0.0204  0.1587  0.0573
 2284W        W19808   0.773  17.410  15.079  0.0332 -0.0361 -0.0007
 2285W        W19809   0.669  13.446  10.951 -0.1430 -0.2246  0.1318
 2286W        W19810   9.192  11.334  15.002  0.1260 -0.2189 -0.0829
 2287W        W19811   5.863  17.115  12.015 -0.1190  0.0188  0.1913
 2288W        W19812  13.782  16.778   4.473  0.0413 -0.1064  0.2113
 2289W        W19813   3.789  10.970   0.051  0.2130  0.0603  0.1059
 2290W        W19814   5.113   0.842   0.536  0.2434 -0.2636  0.1673
 2291W        W19815  13.983  14.607  13.162 -0.4130  0.0200 -0.3673
 2292W        W19816   6.180   6.664   0.213 -0.0659 -0.2623 -0.1531
 2293W        W19817   3.275   1.518   0.459  0.0589  0.1165  0.1761
 2294W        W19818   0.416  11.766  12.114 -0.2772  0.3626 -0.2537
 2295W        W19819   4.579   8.857  13.688 -0.1536 -0.1786 -0.2939
 2296W        W19820   3.470  11.679   1.354  0.0937  0.0368 -0.2170
 2297W        W19821  16.884  15.551  14.368 -0.0619  0.1095 -0.1212
 2298W        W19822   9.414  17.192   5.739  0.1861  0.1982 -0.1961
 2299W        W19823   5.214  14.396   1.398  0.0601  0.0208 -0.1165
 2300W        W19824   6.728   5.166  13.128 -0.0685 -0.3099  0.3870
 2301W        W19825   4.567  16.900  15.383 -0.1753 -0.1461 -0.1353
 2302W        W19826   0.964   6.114   2.539  0.2415  0.1300 -0.0927
 2303W        W19827  14.328   8.441   0.832  0.1398  0.3595  0.0987
 2304W        W19828   5.116  17.904   4.378  0.0745  0.3398  0.0037
 2305W        W19829  16.087   1.556  15.859 -0.0584  0.1114  0.1128
 2306W        W19830   4.641  15.572  15.463  0.1019  0.0043 -0.0787
 2307W        W19831  14.680  11.568   0.502  0.0259 -0.2388  0.0523
 2308W        W19832   5.628   1.050  15.051  0.0249 -0.0066 -0.1046
 2309W        W19833  16.790  12.743  16.017  0.0182  0.1349  0.0553
 2310W        W19834  17.367   3.347   2.034 -0.0752  0.1840  0.0742
 2311W        W19835   5.257  17.629   3.949  0.5410 -0.2137 -0.1087
 2312W        W19836   7.484   4.523   0.763 -0.2160 -0.0732  0.1152
 2313W        W19837   2.039   9.898   4.042 -0.1311 -0.1108  0.1157
 2314W        W19838   4.866   4.023  14.491 -0.1933 -0.1579  0.0674
 2315W        W19839   5.390   6.527   3.017  0.1011  0.1157  0.1914
 2316W        W19840   0.736   3.258  13.859 -0.0713  0.1224  0.0220
 2317W        W19841   9.863  17.093  13.090 -0.1416  0.4175  0.3147
 2318W        W19842  11.674  13.953  16.122 -0.0263  0.1377  0.2458
 2319W        W19843  10.679  11.108  11.946 -0.0096  0.0314  0.0617
 2320W        W19844   7.675   1.518   4.679 -0.0392  0.0377  0.0798
 2321W        W19845  15.488   8.987  12.193  0.1015  0.1182 -0.1539
 2322W        W19846   1.889   4.204   1.012 -0.2215 -0.2043  0.0038
 2323W        W19847   5.599  13.267  14.192 -0.1686  0.2408  0.3795
 2324W        W19848   7.041  17.766  13.210 -0.1633  0.3947 -0.2815
 2325W        W19849   2.381  14.962  16.217  0.0062  0.1515  0.0892
 2326W        W19850   2.112  11.523   2.165 -0.0621 -0.2086  0.1345
 2327W        W19851  12.164  14.128   1.770 -0.0908 -0.1016  0.1014
 2328W        W19852  15.955   6.017   2.850  0.0006  0.1777 -0.1148
 2329W        W19853  17.964  16.024   1.942 -0.2564  0.0221  0.0340
 2330W        W19854  16.526   8.888  15.328  0.1384  0.0616  0.1268
 2331W        W19855   5.942  16.304   3.955 -0.2686 -0.0604 -0.1619
 2332W        W19856   5.890   4.345  15.491  0.1365  0.1124 -0.1173
 2333W        W19857   4.852   8.421   3.855  0.2970 -0.0103  0.1726
 2334W        W19858   6.722  17.629   2.293 -0.2621  0.1358  0.1470
 2335W        W19859  16.608   9.646   4.405  0.0979  0.1910  0.1185
 2336W        W19860  14.925   9.582   0.426 -0.0384 -0.1085  0.3493
 2337W        W19861  10.060  17.831   0.137 -0.2416  0.0988 -0.0114
 2338W        W19862   7.455  14.344  11.260  0.1157  0.0958 -0.3333
 2339W        W19863  16.946  13.616   4.190 -0.0727  0.0148  0.1365
 2340W        W19864  10.359  12.091  11.776  0.1849 -0.3752 -0.1651
 2341W        W19865   7.225   6.307   2.011  0.1096 -0.0888 -0.0717
 2342W        W19866   3.434  10.693   3.339 -0.3113 -0.4703 -0.2592
 2343W        W19867   0.057  13.643   0.412  0.0932 -0.0083 -0.0233
 2344W        W19868  14.059   5.820   1.857 -0.1762  0.2038 -0.2629
 2345W        W19869   5.964  13.149   4.307  0.2934  0.0418  0.0921
 2346W        W19870   8.463  17.563   1.878  0.1756  0.1240  0.0554
 2347W        W19871  16.547  11.964  12.199  0.0149 -0.0303  0.1599
 2348W        W19872   8.851  15.744   2.771  0.0907  0.1210 -0.1462
 2349W        W19873  16.706   5.466   2.798  0.3333 -0.2164  0.1142
 2350W        W19874  16.470   5.369   4.260  0.3509 -0.0792  0.0013
 2351W        W19875  16.583  10.609  16.454 -0.1560 -0.0026 -0.1642
 2352W        W19876  11.698   8.576  14.111 -0.2687  0.1639  0.1498
 2353W        W19877   4.358  17.114  12.324  0.2357  0.0187 -0.0009
 2354W        W19878  13.226   8.608   1.462  0.1335 -0.0780  0.0518
 2355W        W19879   1.837  15.530   3.560  0.1308  0.1101  0.1545
 2356W        W19880  13.002  10.426   0.401 -0.0298  0.2290 -0.1603
 2357W        W19881   7.138  10.760  15.248  0.2614  0.2198 -0.0024
 2358W        W19882   4.471   6.649  13.837 -0.2451 -0.0692  0.0637
 2359W        W19883  17.288   1.688   3.680 -0.1878 -0.0386 -0.1985
 2360W        W19884  12.893   8.407  14.129 -0.1789  0.2391  0.1912
 2361W        W19885  11.866   1.519   4.263  0.1574 -0.0068  0.1204
 2362W        W19886   7.588   7.541  11.093 -0.0611 -0.1338  0.0303
 2363W        W19887  12.832   7.636   3.050  0.1707 -0.3370 -0.2675
 2364W        W19888   3.134   4.345  13.513 -0.2833 -0.2464 -0.1501
 2365W        W19889  16.592   3.306   2.407 -0.2771 -0.3952 -0.0002
 2366W        W19890   2.256   1.824   4.764  0.0344  0.2011 -0.0391
 2367W        W19891  11.224  12.498   4.829  0.0252 -0.1032  0.0488
 2368W        W19892   8.009   9.374  15.196  0.1385  0.2026 -0.1353
 2369W        W19893   5.069   2.566   0.634  0.2598 -0.4766  0.0253
 2370W        W19894   5.296  12.564   2.333 -0.0577 -0.0965 -0.0232
 2371W        W19895   9.270   6.987  13.764 -0.1665  0.1927  0.0713
 2372W        W19896   6.566   9.898   3.181  0.0724  0.0192  0.2443
 2373W        W19897   6.865  12.322  12.234 -0.1596  0.1508  0.1717
 2374W        W19898   7.978  11.351   2.311  0.0571  0.0049 -0.0746
 2375W        W19899   9.955   7.722  16.429  0.5813  0.0229  0.0065
 2376W        W19900   7.927  11.008  15.793 -0.1220 -0.0346 -0.1307
 2377W        W19901  10.416   8.767  14.076  0.2138  0.2492 -0.0112
 2378W        W19902  11.889   5.959   1.708  0.1111 -0.1444  0.2550
 2379W        W19903   6.072   1.050   2.876 -0.0222  0.2762  0.0020
 2380W        W19904  11.558  10.436   3.007  0.1651  0.2222  0.0732
 2381W        W19905   6.881   6.387  12.338 -0.1018 -0.2515 -0.4702
 2382W        W19906   9.998  14.695   4.961  0.1484 -0.2918 -0.0765
 2383W        W19907  12.916  11.832   4.902 -0.3092 -0.0677  0.0308
 2384W        W19908   3.236   4.874  12.576 -0.0171 -0.0023 -0.0471
 2385W        W19909   0.754  17.411   4.235  0.3360 -0.1279 -0.0610
 2386W        W19910   5.992  13.747   2.766  0.1416 -0.1238 -0.0667
 2387W        W19911   2.686   6.300   1.485  0.2730  0.0236  0.1085
 2388W        W19912  13.929   5.850  16.084  0.0589  0.1411  0.2380
 2389W        W19913   4.912   0.271  13.224  0.1218 -0.3975  0.2035
 2390W        W19914   8.519  17.834   4.296  0.1932  0.0624  0.3420
 2391W        W19915  14.324  16.291  14.746 -0.1134 -0.0305  0.0495
 2392W        W19916   6.528  14.050  12.441 -0.1670 -0.3064 -0.5031
 2393W        W19917  10.405  17.089   2.337  0.0512 -0.0853  0.0819
 2394W        W19918   6.095   5.361  15.079 -0.0331 -0.2504 -0.4743
 2395W        W19919   2.956  12.804  14.332  0.1460 -0.0029  0.0170
 2396W        W19920  17.566   3.655  13.891  0.0672 -0.1080 -0.5313
 2397W        W19921  15.744   1.724   2.727  0.0684  0.0739  0.1417
 2398W        W19922  14.221   8.316   4.983 -0.1040 -0.1428 -0.0056
 2399W        W19923  17.152   4.711   0.676  0.0436  0.0306 -0.2120
 2400W        W19924   3.643   0.707   2.090 -0.0019  0.1645  0.0742
 2401W        W19925   0.207   2.641   3.185  0.0868 -0.0775 -0.1100
 2402W        W19926   8.556   8.687   4.606 -0.1703  0.1045 -0.0257
 2403W        W19927   8.561  16.143   3.683  0.4057 -0.0928 -0.0211
 2404W        W19928  16.030  13.457   4.053 -0.0827 -0.1988 -0.2193
 2405W        W19929   0.728   8.972   1.143 -0.0409  0.0820  0.1003
 2406W        W19930   0.117   6.855  13.688  0.2125 -0.1842 -0.1228
 2407W        W19931   4.210   7.173  15.763  0.0156 -0.2577  0.1291
 2408W        W19932   6.880   7.211   3.168  0.0795  0.4177  0.0433
 2409W        W19933  11.005   3.937  12.966 -0.1107  0.0529  0.1058
 2410W        W19934   5.284  14.045   1.006 -0.0700 -0.1381  0.0249
 2411W        W19935   8.814  13.472   2.143  0.1295  0.0493 -0.0247
 2412W        W19936  15.114   7.550   0.861 -0.2957  0.1313 -0.0889
 2413W        W19937  16.767   5.437  12.068 -0.4433  0.0809 -0.2531
 2414W        W19938   9.619  17.883  16.238  0.3657 -0.2463 -0.1070
 2415W        W19939   3.973  15.774  14.486 -0.1535 -0.2082 -0.1769
 2416W        W19940  16.126   6.246  12.086  0.0046  0.2071  0.0076
 2417W        W19941   2.271  15.437  11.005  0.0990  0.3464  0.1556
 2418W        W19942   9.885   7.592  14.163  0.2084 -0.2423  0.0961
 2419W        W19943  16.595  16.116   5.315  0.1467  0.0774 -0.1915
 2420W        W19944   6.638   5.106   0.358 -0.0346 -0.1014 -0.3552
 2421W        W19945  15.094  16.829  15.574 -0.1131 -0.1016 -0.1153
 2422W        W19946   1.513  17.237  12.517  0.0282  0.3448 -0.0210
 2423W        W19947  11.469  13.537  15.758  0.2389 -0.1298 -0.1801
 2424W        W19948   8.695  16.349   1.210  0.0662  0.2731  0.0402
 2425W        W19949   5.185   8.091   0.488  0.0226  0.2458  0.1238
 2426W        W19950   7.716   9.378   4.592  0.3229  0.3183 -0.2471
 2427W        W19951  17.008   9.611   1.272 -0.0730 -0.0535  0.2024
 2428W        W19952   4.344  15.124  16.335 -0.0211 -0.0777  0.2232
 2429W        W19953   7.665   2.272  11.544 -0.0294  0.0950  0.0053
 2430W        W19954  13.836   8.341   4.481  0.0662  0.0589 -0.0233
 2431W        W19955  16.128  13.466  15.361  0.1501 -0.2606  0.0628
 2432W        W19956   6.741   3.204  13.269 -0.2799  0.1060 -0.0569
 2433W        W19957  12.175  12.265  15.118 -0.0632  0.1597  0.2152
 2434W        W19958  14.721   5.441   0.234  0.0455  0.0739  0.1670
 2435W        W19959   1.861  16.776   4.691 -0.4608 -0.0432 -0.0882
 2436W        W19960   2.355  16.539   4.444 -0.1269 -0.2339 -0.1478
 2437W        W19961  16.039   3.825   5.535  0.1072 -0.1141  0.1416
 2438W        W19962   7.118  10.152  13.339  0.0850  0.0186 -0.0047
 2439W        W19963  16.707  15.472  16.035  0.0234  0.3192 -0.0960
 2440W        W19964   5.195  14.043  11.581 -0.1851  0.0531 -0.0777
 2441W        W19965   3.991   0.214  15.259 -0.0923 -0.0051 -0.1124
 2442W        W19966  10.816   0.153   0.553 -0.1939  0.3019  0.0206
 2443W        W19967   1.195   2.929   4.488  0.2354 -0.0357  0.2291
 2444W        W19968   1.932   0.534  12.317  0.0282 -0.0490 -0.5024
 2445W        W19969  15.884   7.029  15.577 -0.1129 -0.2433 -0.0895
 2446W        W19970  13.259  15.185   3.965  0.2127  0.3374  0.2234
 2447W        W19971   6.215   3.136  16.077 -0.1990  0.1317  0.2108
 2448W        W19972  11.899   5.896  11.119 -0.0818  0.2189  0.0585
 2449W        W19973   5.747   6.834   3.885  0.1397  0.1914  0.1809
 2450W        W19974  17.858   3.253   4.783  0.0009 -0.0092 -0.1476
 2451W        W19975  10.455   4.518  11.423  0.4532 -0.2562 -0.1785
 2452W        W19976   7.241   0.386  13.219 -0.0821 -0.0523  0.1019
 2453W        W19977  13.808  14.050  12.528 -0.1881  0.3271 -0.3349
 2454W        W19978  12.778  15.949  15.812 -0.1511  0.2415  0.2292
 2455W        W19979   5.121   7.271  13.599  0.0191 -0.0567  0.0182
 2456W        W19980  12.677  10.044  16.075 -0.1440  0.1008  0.0230
 2457W        W19981   1.405  17.303  16.453  0.3154  0.2753  0.1635
 2458W        W19982   2.073  15.068  11.262  0.2153  0.2092  0.0504
 2459W        W19983   8.539   4.516   0.354 -0.5303  0.0286 -0.1138
 2460W        W19984  17.110  10.883   1.432 -0.3200 -0.3512  0.2526
 2461W        W19985  12.783  10.840  12.241 -0.2307 -0.0638 -0.2350
 2462W        W19986  13.559   5.219  12.208  0.2156 -0.2240  0.0929
 2463W        W19987   6.150  14.687   3.171  0.0661  0.1416 -0.2863
 2464W        W19988   5.204  17.845  12.278 -0.0950  0.2571 -0.2793
 2465W        W19989  15.347   5.251  16.194 -0.2524  0.1145  0.1653
 2466W        W19990   9.512  10.814   3.256 -0.0313  0.0243  0.1300
 2467W        W19991  13.207   7.406   2.691  0.2802 -0.1016  0.1014
 2468W        W19992  15.877   5.736   0.647  0.1098 -0.1018  0.1940
 2469W        W19993  16.167   9.000  15.629  0.0585 -0.2639  0.2851
 2470W        W19994   4.194   1.128  15.272 -0.2011 -0.1097  0.0783
 2471W        W19995  11.027   0.174   1.037  0.1968  0.2864  0.0418
 2472W        W19996  17.088   7.127  14.583 -0.0339 -0.0669  0.1064
 2473W        W19997  17.938   4.392   1.276  0.0597 -0.0394 -0.1586
 2474W        W19998   5.642   1.632   4.247 -0.5945 -0.1987  0.0961
 2475W        W19999  14.318   1.185  13.715 -0.1330  0.2947  0.1469
 2476W        W20000  16.808  16.309   4.666 -0.1113  0.1896  0.1538
 2477W        W20001   4.680   0.534   1.175 -0.0296  0.0442  0.1625
 2478W        W20002   0.683  14.837   3.985 -0.2136  0.1905  0.0879
 2479W        W20003   8.272  15.112   1.011 -0.0479 -0.2534  0.1957
 2480W        W20004  12.628  11.428   2.350 -0.1697 -0.3344  0.1101
 2481W        W20005  13.026  17.327   3.444 -0.0059 -0.3580  0.2606
 2482W        W20006   9.685  12.773  16.186  0.2491  0.0549  0.0099
 2483W        W20007   6.174  16.208   5.391  0.0645 -0.0225 -0.0053
 2484W        W20008   6.355   9.078   4.937  0.1678 -0.0506 -0.2001
 2485W        W20009   6.166  15.110   4.726 -0.0110 -0.1130  0.4992
 2486W        W20010   2.957  10.906   2.016  0.1091  0.1913  0.0698
 2487W        W20011   2.880   7.714   3.576  0.0526  0.3263  0.2436
 2488W        W20012   4.201   3.168  12.146  0.1550  0.2573  0.1624
 2489W        W20013  16.333   6.087   3.451  0.1850  0.2668 -0.0144
 2490W        W20014   0.610   6.442   5.305  0.1258 -0.1130  0.4558
 2491W        W20015   2.621   5.181   1.788 -0.1198  0.0340 -0.1856
 2492W        W20016  17.703   7.490   5.017 -0.1747 -0.0383 -0.1554
 2493W        W20017   6.551  14.664   2.280  0.1431 -0.1870  0.2951
 2494W        W20018   8.560   7.664   2.861  0.3101 -0.2755 -0.1895
 2495W        W20019  16.577   2.302  12.200  0.3022 -0.1664  0.3238
 2496W        W20020  15.522  15.543  14.691 -0.1134  0.2626  0.2168
 2497W        W20021   0.969  15.133  15.364  0.2635 -0.2830 -0.1606
 2498W        W20022   0.141   3.451  14.353 -0.1207  0.0130  0.0674
 2499W        W20023  11.658   9.706  14.149  0.2789  0.0679  0.0081
 2500W        W20024   6.052   5.821   5.405  0.0148  0.0619  0.4177
 2501W        W20025   4.423   3.118  16.383 -0.0952 -0.0468 -0.3166
 2502W        W20026   6.853  11.574  16.078 -0.1010  0.1293 -0.0123
 2503W        W20027  11.240  13.860  12.041  0.1151  0.1701 -0.1828
 2504W        W20028  14.642   6.410  15.244  0.0123  0.1731 -0.3376
 2505W        W20029   7.953   7.046   4.201 -0.1497  0.3373 -0.0321
 2506W        W20030   2.461   8.974   3.760  0.2432  0.2063  0.1271
 2507W        W20031   3.186  13.975  15.322 -0.2282  0.0917  0.1472
 2508W        W20032   6.066   1.467   3.991  0.1144  0.1701 -0.0030
 2509W        W20033   8.930   5.500   4.185  0.0827 -0.1556 -0.1117
 2510W        W20034   9.193   8.474   2.869 -0.2274  0.0109  0.0598
 2511W        W20035   5.721   2.390  16.433  0.3817 -0.4858 -0.0562
 2512W        W20036   8.448   4.914  12.229  0.2183  0.0754 -0.2447
 2513W        W20037  11.528   0.220  13.295 -0.0886 -0.1114  0.1010
 2514W        W20038   6.166  12.668   4.065  0.0203  0.0275 -0.0400
 2515W        W20039  16.625   5.602   1.625  0.2229 -0.0351  0.1707
 2516W        W20040   9.367   4.877  15.167 -0.0694  0.1614  0.1068
 2517W        W20041  13.627  10.935  16.395  0.0596  0.0460 -0.2862
 2518W        W20042   7.496   1.071  12.232  0.0382  0.3152  0.0882
 2519W        W20043   3.039   1.339  16.381  0.0564 -0.3728  0.1311
 2520W        W20044   7.062   6.935   0.382  0.1080 -0.2138 -0.0501
 2521W        W20045  16.707   2.633  16.457 -0.0952 -0.1412 -0.0056
 2522W        W20046  11.696   9.731  12.892  0.1719 -0.2074 -0.0033
 2523W        W20047  15.524   2.065  13.771 -0.0994 -0.0719  0.0285
 2524W        W20048   0.020  10.306  11.237 -0.1689  0.1101  0.3114
 2525W        W20049   8.522   1.969   1.526 -0.0037  0.2147  0.0576
 2526W        W20050  11.024   3.040  12.752 -0.1775  0.0031  0.1380
 2527W        W20051  11.118   9.904  13.168  0.1840 -0.4709 -0.2158
 2528W        W20052  10.388  10.590   4.614 -0.2834  0.2716  0.3344
 2529W        W20053   5.055   9.444   1.520 -0.0093 -0.1958 -0.0116
 2530W        W20054   0.124  17.611  13.045  0.2583  0.0319  0.2145
 2531W        W20055   5.120   5.679  12.671 -0.0371  0.3410 -0.2328
 2532W        W20056   3.634  15.459  13.719 -0.1048  0.0549 -0.1268
 2533W        W20057  17.935  10.043  15.682  0.0655 -0.0021  0.0772
 2534W        W20058  12.673   5.672   2.188  0.1678 -0.6069  0.0528
 2535W        W20059   3.538  17.054  15.347  0.1758 -0.1140 -0.0309
 2536W        W20060  14.667   3.791  16.173 -0.0683 -0.1594 -0.3121
 2537W        W20061   9.383  12.343  13.296  0.0049 -0.1779 -0.1893
 2538W        W20062  12.359  15.671   3.067  0.2077  0.2613 -0.0164
 2539W        W20063  17.235   3.231   3.709  0.0857 -0.1580 -0.0640
 2540W        W20064   8.806   3.961  11.505  0.2402 -0.0971  0.1918
 2541W        W20065   7.854  11.477  14.946  0.1280  0.3622  0.0075
 2542W        W20066  14.789   2.340   2.026  0.0162  0.0074  0.2828
 2543W        W20067  10.438  14.118   3.680  0.1737  0.1387  0.1677
 2544W        W20068   9.165   2.585   0.254  0.0905 -0.2230 -0.1383
 2545W        W20069   1.090   1.411  14.134  0.1187  0.2257  0.1990
 2546W        W20070   7.607   0.948   1.188 -0.0262  0.3649 -0.0137
 2547W        W20071   0.131   4.166   0.715 -0.2745 -0.0359 -0.3869
 2548W        W20072   3.045   8.430   4.238 -0.1795 -0.2341  0.2688
 2549W        W20073   4.241  10.098  12.884 -0.0055  0.0146  0.2174
 2550W        W20074   0.146   0.413   1.257 -0.2347 -0.0972 -0.1911
 2551W        W20075   5.821   9.542  14.670  0.2652 -0.0797  0.0979
 2552W        W20076   7.464  12.202   1.934 -0.1425 -0.1576 -0.1491
 2553W        W20077  13.031   4.871  16.135 -0.0805  0.2203 -0.1672
 2554W        W20078  12.028   4.590  13.782  0.1453 -0.0698 -0.0237
 2555W        W20079   1.157  11.309  15.528  0.1848 -0.0372 -0.2714
 2556W        W20080   8.694   9.209   2.678 -0.0724 -0.0142  0.1494
 2557W        W20081  10.120  11.004  11.065 -0.1894 -0.1307  0.1058
 2558W        W20082   7.404  15.528   2.448 -0.0490  0.0367 -0.4153
 2559W        W20083  17.874   8.500  13.397 -0.1063 -0.2943 -0.0117
 2560W        W20084  16.960  14.149  12.795  0.0003 -0.2206  0.1585
 2561W        W20085  14.099   4.207   4.430 -0.1848  0.0220  0.2769
 2562W        W20086  11.358   7.691   3.683 -0.3276  0.0571 -0.0279
 2563W        W20087   9.056  15.246  12.554  0.3204 -0.0192  0.1278
 2564W        W20088   3.825  17.696   3.613  0.0859  0.2159  0.3688
 2565W        W20089   1.456   7.361  14.024 -0.0523  0.1640 -0.0098
 2566W        W20090   8.883   1.283   3.298 -0.1122  0.2211  0.1414
 2567W        W20091  17.448   5.844   3.470  0.0541  0.0740  0.0163
 2568W        W20092  15.158   7.023   0.086  0.0068  0.1835  0.3239
 2569W        W20093   1.108  12.295  11.424  0.2910 -0.1933  0.0225
 2570W        W20094   8.935  14.043   3.031  0.1669  0.2665  0.0668
 2571W        W20095   3.393   6.511   2.135 -0.2185 -0.2656  0.0967
 2572W        W20096  14.535  17.009   1.425  0.2259 -0.0180  0.1694
 2573W        W20097   0.913   2.508   2.527  0.2839  0.2195  0.1055
 2574W        W20098  10.301  13.069   3.602 -0.1546  0.2631  0.2057
 2575W        W20099   4.819   5.403  13.250  0.0813 -0.0257 -0.0092
 2576W        W20100  12.234   1.553   1.291 -0.0365 -0.0026 -0.1706
 2577W        W20101   9.667  11.973  15.734 -0.1183 -0.2593  0.0992
 2578W        W20102  14.833   3.918   0.171 -0.1413  0.1010  0.0994
 2579W        W20103   1.239  12.821   4.930 -0.0063 -0.0237  0.1600
 2580W        W20104   0.058   5.713   0.863 -0.0981 -0.1622  0.1136
 2581W        W20105   2.893  14.072   4.712 -0.1591 -0.3530 -0.0093
 2582W        W20106   2.575  16.589   2.481 -0.3598  0.2687 -0.0562
 2583W        W20107   0.157  12.692   3.340 -0.1231 -0.1160  0.2696
 2584W        W20108  12.701   3.695   0.002  0.1314 -0.0746 -0.0133
 2585W        W20109   8.410  10.211   1.465  0.2690 -0.1781 -0.1276
 2586W        W20110   5.222   5.204  13.560  0.2517 -0.0108  0.0235
 2587W        W20111  13.646   1.344   4.274  0.1757 -0.0441  0.0029
 2588W        W20112  12.253   3.175  11.665  0.1750 -0.2250  0.0256
 2589W        W20113  12.560  10.339  15.471  0.0296  0.1243  0.2816
 2590W        W20114  16.938   2.832  15.945 -0.0598 -0.3665 -0.0888
 2591W        W20115  10.684   7.153   3.876  0.1759 -0.0098 -0.0202
 2592W        W20116   3.454   8.849  14.338  0.0931 -0.2841 -0.0115
 2593W        W20117  16.916  14.502  11.676  0.0258  0.2143 -0.1651
 2594W        W20118   7.738  16.280   3.144  0.0020  0.0327  0.2605
 2595W        W20119   4.816  16.529  13.457  0.1385  0.0156 -0.3573
 2596W        W20120   2.584  16.286  16.137 -0.1894 -0.2030  0.0797
 2597W        W20121   8.311   3.756   3.915 -0.1759 -0.1033 -0.1843
 2598W        W20122   5.725  11.110  12.673 -0.3949  0.0338 -0.3871
 2599W        W20123  16.635   0.979   2.206  0.0158 -0.0165 -0.0959
 2600W        W20124   0.398  12.797   0.592 -0.1721  0.0243 -0.1564
 2601W        W20125   7.224   5.107  13.311  0.0623  0.0890  0.0618
 2602W        W20126   5.889   1.275   4.653  0.1266 -0.1084  0.0899
 2603W        W20127   3.983  15.760  14.968 -0.2111 -0.0032  0.2554
 2604W        W20128  10.165  16.294  14.368  0.1877  0.3319 -0.2138
 2605W        W20129   3.573   1.508  14.013 -0.1223  0.1176 -0.0778
 2606W        W20130   7.368  13.132  12.589  0.2042  0.0873 -0.2845
 2607W        W20131  14.573   5.564  15.428  0.2811 -0.1438  0.4056
 2608W        W20132  16.725   7.439   3.997  0.0027  0.1327  0.0382
 2609W        W20133   2.985   2.716   3.531  0.4260 -0.0956  0.1900
 2610W        W20134   5.841   9.651   0.183  0.0184 -0.1088  0.1206
 2611W        W20135   7.205  11.880   2.553  0.0038  0.0881  0.0530
 2612W        W20136   1.912   5.938   1.682 -0.0108  0.0953 -0.1867
 2613W        W20137  14.779  17.758  16.293 -0.1860 -0.2916 -0.0911
 2614W        W20138  15.618   4.028  14.688  0.0232  0.1018  0.0151
 2615W        W20139  11.996  12.531   0.421  0.1155  0.0679 -0.1601
 2616W        W20140   5.574   1.344   2.219  0.1724  0.2596 -0.0810
 2617W        W20141  10.671  13.527   5.029 -0.0892 -0.1002  0.3329
 2618W        W20142  12.185  10.515   1.004  0.4631  0.1710 -0.1141
 2619W        W20143   8.153  11.762   4.009  0.0177 -0.3207 -0.1136
 2620W        W20144  15.437   3.125  13.878  0.2931  0.1670 -0.1119
 2621W        W20145   8.156   9.274   1.792  0.0690 -0.2461 -0.2481
 2622W        W20146   7.413   9.727   3.810 -0.1498  0.2216  0.0713
 2623W        W20147   8.083  16.930   2.829 -0.0371  0.1363 -0.1494
 2624W        W20148   4.541  17.516  13.242 -0.0824 -0.0428  0.0321
 2625W        W20149  15.868   1.029   1.661  0.0435  0.0758 -0.0043
 2626W        W20150  16.431  14.836  15.002 -0.1547 -0.2163  0.3401
 2627W        W20151  17.327  11.913   2.081 -0.4540  0.0410 -0.1087
 2628W        W20152   8.987   7.599  11.012 -0.0999 -0.1793 -0.0425
 2629W        W20153  10.542   0.054   2.578 -0.0875 -0.2395 -0.2235
 2630W        W20154  11.024   1.697   1.140  0.1554 -0.1017  0.3212
 2631W        W20155   2.485   3.051  15.687  0.1138 -0.5046 -0.1958
 2632W        W20156  10.398   0.735   0.185  0.1091  0.2267  0.0613
 2633W        W20157   6.802   3.110  15.216  0.0800  0.0515  0.1038
 2634W        W20158   3.934   6.223   5.659 -0.0869 -0.1741  0.1520
 2635W        W20159   3.724   1.771   2.864 -0.0410  0.1538  0.0217
 2636W        W20160   0.364   3.090   1.263 -0.1428  0.1506 -0.1237
 2637W        W20161  12.904  13.560  13.474 -0.2105  0.2357  0.3051
 2638W        W20162   0.239  10.127   3.215  0.2001  0.0574  0.1998
 2639W        W20163  10.955  17.685   0.894  0.0324  0.0389 -0.2196
 2640W        W20164   1.281  13.730   3.376  0.0676  0.1676  0.2529
 2641W        W20165   9.688   9.840  16.430  0.0057  0.0914 -0.0547
 2642W        W20166   5.246  14.612   0.969 -0.0343  0.1231 -0.1036
 2643W        W20167  15.147   0.223  13.541 -0.2478 -0.0930  0.2895
 2644W        W20168   2.410   2.985  14.643  0.0218 -0.2647 -0.1134
 2645W        W20169   2.423   1.500  14.928  0.1171 -0.4737  0.1114
 2646W        W20170   1.069  16.293   5.032 -0.0272 -0.0527 -0.0651
 2647W        W20171   9.424  16.074  13.179  0.0383  0.2314  0.0036
 2648W        W20172   3.254   0.235   4.123 -0.1234 -0.1217  0.1162
 2649W        W20173   5.297   1.966  11.855  0.1551  0.1854 -0.1374
 2650W        W20174   4.777  10.137  11.882 -0.0074 -0.1949 -0.1983
 2651W        W20175  12.462   5.273  13.505  0.0941  0.0376 -0.3255
 2652W        W20176  10.290  13.205  13.969  0.1515  0.0553 -0.3151
 2653W        W20177   3.771   7.446   0.091  0.1992  0.0351 -0.1051
 2654W        W20178   5.515  11.855   0.533 -0.1459  0.3992  0.3700
 2655W        W20179   4.366  11.172   1.963 -0.0709 -0.4469 -0.1131
 2656W        W20180   1.188   4.362   2.153 -0.1959  0.2869  0.1985
 2657W        W20181   3.901   1.805  12.227 -0.1489 -0.1002 -0.0737
 2658W        W20182   1.555   2.219  13.972 -0.1007  0.2716  0.0880
 2659W        W20183  13.513   8.604   3.268  0.3142  0.0512 -0.0074
 2660W        W20184  12.032  13.681   3.515  0.1421  0.1688  0.0934
 2661W        W20185   8.408   3.064  12.784  0.3549  0.3613  0.0057
 2662W        W20186   3.309  13.542   1.095  0.1332 -0.1347  0.0068
 2663W        W20187  15.585   3.577   4.075 -0.0881 -0.0407  0.0690
 2664W        W20188   1.338   4.313  16.057 -0.1469  0.1708  0.1598
 2665W        W20189   3.411   3.187  14.845  0.3214 -0.0515 -0.3128
 2666W        W20190   2.943   9.953   2.552 -0.0765 -0.1404 -0.1850
 2667W        W20191   8.295   2.575  16.462  0.1259 -0.0092  0.0546
 2668W        W20192  11.242  10.149  11.670  0.0532  0.2646  0.0632
 2669W        W20193   1.631   6.006  15.986  0.3556 -0.1125  0.1132
 2670W        W20194   1.859  10.209  13.637 -0.3142  0.1645  0.3528
 2671W        W20195   1.751   4.725  14.739  0.4189 -0.1054  0.3106
 2672W        W20196   5.966   1.828  13.527 -0.2063  0.3455  0.1376
 2673W        W20197  16.773   2.363   2.546 -0.3818  0.1216  0.0923
 2674W        W20198  15.984   4.608   0.211 -0.2456 -0.0245 -0.0802
 2675W        W20199   5.152   1.398  14.087  0.2579  0.2032 -0.2901
 2676W        W20200   0.938   3.794   2.462 -0.1598  0.0096  0.2412
 2677W        W20201   6.834  12.331   5.571 -0.1987  0.0865  0.1192
 2678W        W20202  10.192   2.740  13.274 -0.4081 -0.0259  0.0411
 2679W        W20203   2.970  15.102  14.236  0.0479 -0.0068 -0.1991
 2680W        W20204  17.632  17.751  15.594  0.3682  0.0594 -0.2090
 2681W        W20205  10.276  13.415   3.214  0.1115 -0.1795  0.1604
 2682W        W20206   9.898   6.205  11.860 -0.1718 -0.0590 -0.0355
 2683W        W20207   0.867  15.345   2.082 -0.0098  0.0467 -0.0925
 2684W        W20208   6.417   6.144  15.175 -0.1124 -0.0619  0.0886
 2685W        W20209   4.729  17.548  12.135 -0.1631  0.0492 -0.0228
 2686W        W20210   7.547  11.715  14.126  0.4758  0.1041 -0.0226
 2687W        W20211   8.048   6.150   2.364 -0.1008  0.1898 -0.0301
 2688W        W20212   1.744   9.901   3.150 -0.0885 -0.1869 -0.0882
 2689W        W20213  10.939   0.007   3.305 -0.0584  0.1500  0.2549
 2690W        W20214  12.099  14.112  13.866 -0.4029 -0.1333  0.1256
 2691W        W20215  14.343   4.656  14.828  0.4320 -0.0865  0.5188
 2692W        W20216   8.925  15.202  12.032  0.1111  0.0825 -0.1610
 2693W        W20217   7.597  16.469   4.270 -0.0019  0.1467 -0.1302
 2694W        W20218  10.956   7.171   4.268 -0.2108  0.0836 -0.1023
 2695W        W20219   5.982  13.293  12.171 -0.2535  0.1514  0.1287
 2696W        W20220   9.766   0.808  12.973  0.1817 -0.0326 -0.2848
 2697W        W20221  12.117  17.369  13.637  0.0280  0.0239 -0.0940
 2698W        W20222  11.272  16.584  12.032  0.0707  0.1697 -0.3500
 2699W        W20223  11.726   3.114   4.251 -0.0382 -0.3196  0.1741
 2700W        W20224   8.505   2.114   2.934 -0.3185  0.0954 -0.0740
 2701W        W20225   3.741  17.532  13.481 -0.2223 -0.0762  0.2642
 2702W        W20226   5.161   8.480  12.393 -0.0298 -0.0602 -0.2939
 2703W        W20227   1.369   0.404  13.462 -0.2029 -0.0043  0.0709
 2704W        W20228  15.119   1.802  14.380  0.1617 -0.3710 -0.0686
 2705W        W20229   1.673   2.948   1.816  0.2414 -0.1937 -0.1715
 2706W        W20230  10.721   8.372   3.486 -0.2009  0.2067  0.0984
 2707W        W20231  17.567  14.765  13.320  0.1570  0.0823 -0.0016
 2708W        W20232   9.500   1.583   4.401 -0.4261 -0.1732 -0.1852
 2709W        W20233  13.908   8.652  15.183  0.1267  0.0927 -0.0987
 2710W        W20234  12.446   0.313  15.987 -0.1062 -0.1376  0.2205
 2711W        W20235   0.611  10.427  12.514 -0.0276  0.1942 -0.0531
 2712W        W20236  11.724   4.970  15.546 -0.0799  0.0257  0.0403
 2713W        W20237   8.538  10.406  14.281  0.3193  0.0854 -0.0854
 2714W        W20238   0.542  14.180   3.512 -0.1100 -0.2114 -0.0129
 2715W        W20239   2.493  11.775   3.417 -0.1631  0.1339  0.0603
 2716W        W20240  11.059  11.838  11.691  0.1103  0.1027  0.0289
 2717W        W20241   2.686  15.134  14.666  0.1988 -0.1402 -0.0374
 2718W        W20242  12.550   1.790  13.657  0.2392  0.0112  0.1544
 2719W        W20243  15.725  16.746  11.412 -0.0449 -0.2805  0.1042
 2720W        W20244  14.069  12.280  14.457 -0.0722 -0.0448 -0.0062
 2721W        W20245   8.784  16.361   1.774 -0.0835  0.1331 -0.2445
 2722W        W20246  14.521   5.252   1.114 -0.1019  0.0179  0.0002
 2723W        W20247   7.048  10.366  12.704  0.3218  0.1743  0.2383
 2724W        W20248  11.153  10.271   4.955 -0.2483  0.0492 -0.1699
 2725W        W20249   2.644  14.477  11.691 -0.0096 -0.0674 -0.2718
 2726W        W20250   3.766  10.639   3.951  0.0231  0.3658  0.0535
 2727W        W20251   9.645   7.110  15.866  0.0676  0.2559  0.2744
 2728W        W20252   4.882   4.840   1.432 -0.1909 -0.0674 -0.1336
 2729W        W20253  14.928  11.971  11.312  0.2159  0.1910 -0.1691
 2730W        W20254   3.044   1.299   5.348  0.0464 -0.1681 -0.0742
 2731W        W20255  10.230   3.268   5.912  0.0843 -0.1829  0.2712
 2732W        W20256   9.164   2.432  16.112 -0.0110 -0.0825  0.2015
 2733W        W20257  15.084   8.850   0.513  0.1929 -0.1689  0.0028
 2734W        W20258  14.085  16.513   4.075  0.0840 -0.1033 -0.0635
 2735W        W20259   3.919   0.842  13.251 -0.1362 -0.2416  0.0568
 2736W        W20260   3.570  14.068  12.070 -0.2288 -0.3435  0.0586
 2737W        W20261   5.501  10.817   1.492 -0.0838  0.1287  0.1927
 2738W        W20262   1.604  10.971   3.224 -0.1696 -0.0585  0.1509
 2739W        W20263  16.586   2.863   6.200 -0.0981 -0.0713 -0.0890
 2740W        W20264  12.675   5.747  12.655 -0.2211 -0.4589 -0.1690
 2741W        W20265   4.626   3.833  15.165 -0.1768  0.4252 -0.1164
 2742W        W20266   0.179  14.943   3.873  0.2059 -0.0899 -0.3154
 2743W        W20267  12.930   2.315   1.065 -0.1335 -0.1440 -0.0697
 2744W        W20268  12.953  17.788  12.739  0.0034  0.3352 -0.0437
 2745W        W20269  12.472   0.847   2.725  0.3552  0.0367  0.0402
 2746W        W20270   7.047   2.679   0.080 -0.0225  0.1272 -0.0714
 2747W        W20271   9.195  12.901  11.082  0.1524 -0.1114 -0.1057
 2748W        W20272  15.718  12.031  14.108  0.1562 -0.1940 -0.1768
 2749W        W20273   4.746  12.920   4.061 -0.0146  0.2790 -0.0915
 2750W        W20274   5.326   4.493  11.108 -0.1978  0.0164 -0.2439
 2751W        W20275  13.977  13.575  15.703  0.0930  0.1442 -0.1037
 2752W        W20276   5.637  11.497   0.215 -0.0779  0.2412 -0.0562
 2753W        W20277   4.655   7.660  12.312  0.0259  0.2776 -0.2878
 2754W        W20278   1.358  17.844  12.025 -0.0781 -0.3333 -0.0832
 2755W        W20279   8.188   4.044   3.298 -0.2051 -0.0397  0.1847
 2756W        W20280  12.836  16.664   2.037 -0.1634 -0.0812  0.2583
 2757W        W20281   1.384  12.685  12.065  0.3023  0.2047  0.3177
 2758W        W20282  16.807   1.993  14.835  0.0157 -0.2687  0.0622
 2759W        W20283   8.375  11.637   3.551 -0.0551  0.0205  0.0808
 2760W        W20284   2.891  15.858  16.074  0.1377 -0.1263 -0.0597
 2761W        W20285   6.576  10.464   2.535 -0.3025 -0.1331  0.5332
 2762W        W20286   9.405   3.193   4.478 -0.3251  0.2286 -0.1108
 2763W        W20287   9.616   6.741   1.081  0.0096  0.1003 -0.0957
 2764W        W20288   6.479   1.709   1.402 -0.1186  0.1325  0.1200
 2765W        W20289  13.436   1.413   1.488 -0.3598  0.2308  0.0114
 2766W        W20290   5.617  17.956   1.952  0.0018 -0.2303  0.0421
 2767W        W20291  16.956   9.854  12.597  0.2939  0.0487 -0.0156
 2768W        W20292  11.640   3.294  14.517  0.0481 -0.0089  0.0634
 2769W        W20293  13.235   4.146   4.117 -0.0440  0.0704  0.1280
 2770W        W20294  11.502   7.010  11.713  0.1181 -0.0937  0.0799
 2771W        W20295  13.823   7.003   1.208  0.1487  0.1162 -0.0191
 2772W        W20296   0.525   7.124   2.961  0.2303 -0.0373 -0.1755
 2773W        W20297   4.229  13.283  14.578 -0.1185  0.0311 -0.1083
 2774W        W20298   7.036  12.382   5.035 -0.0803  0.0106  0.1277
 2775W        W20299  13.574   3.644  14.539 -0.1171 -0.2145 -0.2109
 2776W        W20300   0.993   3.597  14.666  0.1595 -0.1508  0.3779
 2777W        W20301   1.459  11.167  15.127  0.1438 -0.0931  0.0092
 2778W        W20302   4.819  12.696   3.534  0.1870  0.1567 -0.0078
 2779W        W20303   7.276   4.314   3.193  0.0643 -0.1732  0.1034
 2780W        W20304   3.449   0.777  14.767 -0.0383  0.0250  0.3301
 2781W        W20305  10.382  15.281   1.810 -0.1150  0.3224 -0.2624
 2782W        W20306  10.954   0.138   1.876  0.0372  0.3040 -0.1161
 2783W        W20307  17.616  10.755   2.830  0.2728 -0.0916  0.0957
 2784W        W20308  17.441   6.299   1.232 -0.2087 -0.1234  0.2690
 2785W        W20309  15.517  13.391   4.094 -0.2346 -0.0453  0.1187
 2786W        W20310  14.665   8.479  11.883  0.0704 -0.1051 -0.0281
 2787W        W20311   2.125   2.713   5.148  0.0516 -0.1990 -0.3807
 2788W        W20312  14.418   2.245  14.669  0.3515 -0.0300  0.1916
 2789W        W20313   9.723  12.497  13.669  0.4624  0.1369  0.2851
 2790W        W20314   4.683   5.454  11.737  0.1186 -0.2115 -0.0793
 2791W        W20315  12.645   1.715   1.518  0.2860 -0.3723 -0.2038
 2792W        W20316   5.580  16.707   1.982  0.1656  0.2607  0.0976
 2793W        W20317   9.187   5.679  12.444 -0.1271  0.1182 -0.4266
 2794W        W20318   3.648  10.627   2.913  0.0426  0.0010  0.0256
 2795W        W20319  15.416  12.808  14.340  0.1566 -0.0049  0.0070
 2796W        W20320   6.262  17.109  14.317  0.1195  0.1586  0.1383
 2797W        W20321   8.721  13.013   1.381 -0.2012 -0.1616  0.4389
 2798W        W20322   7.429  11.196   2.131 -0.1305  0.2138  0.2789
 2799W        W20323  13.741   9.512   2.918  0.3279 -0.2313 -0.0000
 2800W        W20324  17.659   8.724  14.023 -0.1605 -0.2840 -0.1598
 2801W        W20325   5.336   2.166   2.014  0.0819  0.0670  0.0262
 2802W        W20326   3.541   0.490   0.193 -0.1852  0.0458 -0.0054
 2803W        W20327  16.675  14.265  16.217 -0.0285  0.0490  0.0566
 2804W        W20328   9.602  12.213   5.076  0.1489 -0.2587  0.3545
 2805W        W20329   8.679   6.872  14.951  0.0879 -0.0065  0.2027
 2806W        W20330  12.389  17.395  15.510  0.0777 -0.1578  0.1362
 2807W        W20331   3.345  11.339   3.447 -0.2014  0.1899 -0.1939
 2808W        W20332  16.965   9.798   0.236 -0.1056 -0.1798  0.0758
 2809W        W20333  15.182  13.345   3.627  0.2028 -0.1584  0.0843
 2810W        W20334  17.238   1.692  12.374 -0.3310  0.0921  0.2336
 2811W        W20335   4.892  11.433  14.461  0.1288  0.1610 -0.2674
 2812W        W20336   6.853  14.409   3.103  0.1836  0.0937  0.2438
 2813W        W20337   5.129   1.535  16.132  0.2089  0.2046 -0.2347
 2814W        W20338   5.566   0.845  15.558  0.0568  0.0326  0.2626
 2815W        W20339   6.149  14.049   5.642  0.1482 -0.0056  0.0729
 2816W        W20340   0.085  11.540   3.317  0.3904 -0.3479  0.1339
 2817W        W20341  10.785   9.034  15.529  0.0601 -0.1452  0.3627
 2818W        W20342   9.107  13.064   4.668  0.0685 -0.2314 -0.0095
 2819W        W20343  11.566  14.858  16.377  0.0753 -0.0932  0.0086
 2820W        W20344  14.692  14.715  15.342  0.0701 -0.0342  0.2514
 2821W        W20345   6.091   3.946  14.772 -0.1349  0.0898 -0.1160
 2822W        W20346   8.389   0.198  16.183  0.4289  0.0790 -0.2073
 2823W        W20347   6.451   1.168   4.346 -0.0794  0.0302  0.2538
 2824W        W20348  11.717  12.689   4.388 -0.4764 -0.1064 -0.1068
 2825W        W20349   3.378   1.733   4.694 -0.2074  0.3188 -0.0060
 2826W        W20350   7.654  13.495   1.164  0.2459  0.3134 -0.2831
 2827W        W20351   6.031  11.262  14.639  0.1350  0.0435  0.1491
 2828W        W20352   8.808   5.589  12.904  0.2290  0.1556 -0.3600
 2829W        W20353   0.478  16.464  14.992  0.2069  0.1929 -0.1259
 2830W        W20354  13.828  11.038   3.936  0.0011  0.3059  0.1025
 2831W        W20355   9.497  12.694   2.784  0.0350 -0.0081  0.1953
 2832W        W20356  14.455  17.743   2.756  0.1578  0.2097  0.0844
 2833W        W20357  10.730   3.223  14.330  0.0167 -0.2601 -0.1060
 2834W        W20358   9.331  17.254   3.375  0.2099  0.2936  0.0423
 2835W        W20359   9.985  10.805  13.028  0.0477 -0.3488 -0.1183
 2836W        W20360  13.364   1.243   3.448  0.0561 -0.3264  0.0226
 2837W        W20361   2.431   8.199  10.466  0.0684  0.1276 -0.0119
 2838W        W20362   4.979   5.919   2.959 -0.0055 -0.3092 -0.1477
 2839W        W20363  17.830  13.244   2.353 -0.3230  0.1784  0.0459
 2840W        W20364   8.934  13.446   4.425 -0.1690  0.2213 -0.1857
 2841W        W20365  12.750   0.205   4.093  0.1769  0.0785 -0.3364
 2842W        W20366  16.611   2.797   2.439  0.3279 -0.0081  0.1220
 2843W        W20367   8.903   7.309  14.555 -0.2326 -0.0012 -0.0701
 2844W        W20368   7.349  14.492  14.053 -0.0639  0.0588 -0.1164
 2845W        W20369  17.709  13.814  12.491 -0.1791  0.0271  0.3081
 2846W        W20370   7.455   7.541  11.583 -0.0352 -0.0436 -0.2183
 2847W        W20371   1.878  14.088  15.323 -0.1202 -0.2053 -0.2126
 2848W        W20372  13.082  10.045   3.282  0.0848  0.1759 -0.1053
 2849W        W20373  11.759   5.260   4.938  0.2575  0.0666  0.0666
 2850W        W20374  15.349   1.986  11.817  0.0353 -0.0961 -0.5749
 2851W        W20375   7.443  12.143   4.281 -0.0288 -0.4862 -0.1471
 2852W        W20376   1.479   4.443   1.302  0.1083  0.0333  0.0990
 2853W        W20377   3.956   5.797   1.326 -0.0618 -0.0563  0.2163
 2854W        W20378   7.501   2.513  13.217  0.1458  0.1069  0.1585
 2855W        W20379  10.997  17.018   0.590 -0.3180  0.0781 -0.0104
 2856W        W20380   4.740  11.517  12.376 -0.2428  0.0323  0.1355
 2857W        W20381  16.405  12.008   1.154  0.1922  0.4314  0.0056
 2858W        W20382   6.849  17.419   4.944 -0.1630  0.1015  0.1021
 2859W        W20383  13.928  12.406   2.868  0.1349 -0.1507 -0.2595
 2860W        W20384  14.001  15.225  16.128 -0.1557  0.0095  0.1009
 2861W        W20385   6.381  13.431  15.104  0.0586 -0.2085  0.1831
 2862W        W20386   7.975   2.888   2.575 -0.1136 -0.1913 -0.1647
 2863W        W20387  14.282  11.845  14.297  0.1079 -0.2381  0.0706
 2864W        W20388   9.349   7.580  11.500  0.1300  0.2989  0.0031
 2865W        W20389  15.972  11.707  11.272 -0.3258 -0.1904  0.3300
 2866W        W20390   1.972   8.160   1.730  0.0570 -0.1512  0.1510
 2867W        W20391   7.157   0.081   1.401  0.0719 -0.0759 -0.1204
 2868W        W20392   2.974  10.614   0.695 -0.0965  0.1504  0.1029
 2869W        W20393   6.681   0.426   4.608 -0.3245 -0.1923  0.1950
 2870W        W20394   7.130   6.877  16.339  0.0527 -0.1956 -0.1284
 2871W        W20395  14.915   4.451   0.191  0.0794 -0.1676 -0.0183
 2872W        W20396  13.831  11.859  15.736  0.2775  0.3421 -0.1464
 2873W        W20397  11.240  11.478   3.810  0.3993  0.4327 -0.2481
 2874W        W20398  17.497   4.345   2.033  0.0045 -0.0821 -0.0342
 2875W        W20399  12.950   6.630   4.488 -0.1281 -0.0305  0.1646
 2876W        W20400  16.127   2.142  12.090 -0.0023  0.0446 -0.1962
 2877W        W20401   0.895  12.678   0.447  0.0707  0.0495  0.0052
 2878W        W20402  13.031  13.434  15.818 -0.2055 -0.0489  0.0824
 2879W        W20403   1.314   9.594  11.993  0.0323 -0.2801  0.0756
 2880W        W20404  13.663   8.066   1.925  0.0135 -0.1603  0.0065
 2881W        W20405  17.227   7.294   1.279 -0.3435  0.1507 -0.1673
 2882W        W20406   6.208   9.341   3.798  0.3215 -0.3526  0.0252
 2883W        W20407  14.754   6.080  13.679  0.0692  0.0622  0.1752
 2884W        W20408  16.657   1.765   5.199 -0.1940 -0.1211  0.0640
 2885W        W20409  12.767  10.857  13.190 -0.1270 -0.0909  0.0528
 2886W        W20410   4.955  15.697   2.145  0.2369 -0.0686 -0.0902
 2887W        W20411  11.767  12.661  15.444  0.1160  0.0285 -0.1399
 2888W        W20412   7.222  12.145   3.138  0.2587 -0.0250 -0.4837
 2889W        W20413   1.277  10.159  13.720  0.2469 -0.2909 -0.1187
 2890W        W20414  12.183  12.304   6.456  0.1543 -0.1628  0.0205
 2891W        W20415  12.502   2.782  14.943 -0.0604 -0.0954  0.0452
 2892W        W20416   0.765  11.064  13.384 -0.0729 -0.0085  0.1133
 2893W        W20417  14.439   5.591  15.934  0.3761  0.0670  0.2257
 2894W        W20418   0.809   2.975   2.714  0.0568  0.3226  0.1886
 2895W        W20419   2.688   0.571   4.232  0.2594 -0.0269 -0.1517
 2896W        W20420   4.685   2.693   3.230  0.3949  0.2898  0.0803
 2897W        W20421  15.516  16.337   5.090  0.0251 -0.1226  0.3341
 2898W        W20422   2.354   9.198   0.317 -0.1921 -0.3661  0.2845
 2899W        W20423   1.749  11.497  13.399  0.1116  0.0358 -0.0515
 2900W        W20424  15.778  10.403  16.079  0.1982  0.2836  0.2725
 2901W        W20425  13.192   7.856  12.577 -0.0408 -0.0874 -0.0432
 2902W        W20426   0.271  11.385   1.957 -0.0870 -0.0572 -0.0221
 2903W        W20427   5.284  10.390   0.684  0.0081 -0.0616  0.2107
 2904W        W20428  15.715   2.277  15.173  0.3552 -0.0186  0.1432
 2905W        W20429   9.142  13.274   3.555 -0.0772 -0.1351 -0.1271
 2906W        W20430   6.609   4.113   5.502  0.0209 -0.2356 -0.1860
 2907W        W20431   1.514   0.847  13.706  0.2137  0.2136  0.0230
 2908W        W20432  16.434  10.647  14.753  0.3572  0.2043 -0.3226
 2909W        W20433   9.091   0.778   5.366  0.2459  0.0005 -0.1396
 2910W        W20434   1.615   2.580   2.451 -0.2134  0.1590 -0.0974
 2911W        W20435  10.535   2.340  13.090  0.0989  0.0456  0.0500
 2912W        W20436  16.565  14.512   0.793  0.1402 -0.1592 -0.0011
 2913W        W20437   7.485  15.331  16.053 -0.4442  0.2733 -0.3690
 2914W        W20438   4.963  11.532   1.014 -0.0857 -0.2068  0.0716
 2915W        W20439   5.862  12.461  14.009 -0.2216  0.0396  0.1665
 2916W        W20440   6.365   3.325   1.930 -0.3001 -0.1211 -0.0649
 2917W        W20441   9.584   9.171   4.394  0.0163  0.1453 -0.0800
 2918W        W20442   8.822   4.184  13.431  0.3387 -0.0030  0.2354
 2919W        W20443  16.941  17.481   3.452  0.1368 -0.0128  0.0414
 2920W        W20444   3.159  16.929   3.951  0.3122  0.0319 -0.0369
 2921W        W20445  11.363  11.973   2.553  0.1000 -0.5042 -0.0789
 2922W        W20446   1.779   5.069  12.542  0.2281  0.0727 -0.2362
 2923W        W20447  10.814  17.182   5.453 -0.2394 -0.0689  0.0268
 2924W        W20448   6.166   4.128   0.029 -0.0812 -0.0332 -0.1472
 2925W        W20449   4.603  16.413   2.782  0.0025  0.2940 -0.0967
 2926W        W20450   0.331   9.254  13.094  0.1659  0.1730  0.0084
 2927W        W20451  13.333  15.319  13.195  0.1881 -0.1971 -0.1425
 2928W        W20452   4.453   1.419  14.406 -0.0216 -0.0343 -0.0714
 2929W        W20453   5.100   1.577   4.498 -0.1617  0.0101 -0.2455
 2930W        W20454  10.128   9.331  14.345 -0.3398 -0.2156  0.0904
 2931W        W20455   7.852   8.848   4.035 -0.2014 -0.1967 -0.0602
 2932W        W20456  13.420  11.348   3.189  0.2028 -0.0097 -0.0975
 2933W        W20457  10.787  13.759  11.143  0.1636  0.1842  0.0085
 2934W        W20458  10.965   4.282   4.473  0.4818 -0.1103 -0.1541
 2935W        W20459   0.205   6.514   2.882 -0.2761  0.1602 -0.4046
 2936W        W20460  12.456  10.950   1.661 -0.1422  0.0298  0.3141
 2937W        W20461  13.060   0.756   1.602 -0.0359  0.2544 -0.3073
 2938W        W20462   5.146  15.504   0.756  0.1629  0.3840  0.0670
 2939W        W20463   4.601  16.823   5.021  0.3810 -0.1102 -0.1330
 2940W        W20464   7.927  10.482  11.325  0.2177  0.1245  0.1854
 2941W        W20465   6.398   3.976  12.907 -0.3072 -0.2635 -0.2124
 2942W        W20466  16.274   9.068  11.314 -0.4304  0.1623 -0.1595
 2943W        W20467   9.777   9.941   1.052  0.0062  0.0758 -0.0983
 2944W        W20468  13.779   9.480  15.446 -0.2932 -0.2925  0.0608
 2945W        W20469  14.484   5.076  12.133  0.0473  0.0888  0.1177
 2946W        W20470   1.495  13.932   0.828 -0.0925 -0.0778 -0.1148
 2947W        W20471   4.654  11.278   2.501  0.1900 -0.2030  0.1604
 2948W        W20472  12.030   1.933   4.489  0.3367 -0.0973  0.0886
 2949W        W20473  14.649   0.388  12.276  0.0653  0.2995 -0.1657
 2950W        W20474  13.695  14.225   4.913  0.1227 -0.2564  0.2135
 2951W        W20475  12.297  10.772  13.567  0.3051  0.1023 -0.0331
 2952W        W20476  16.902   1.941   0.102 -0.1411 -0.0835  0.1659
 2953W        W20477  17.403  16.946  13.959  0.0979  0.2102  0.1069
 2954W        W20478   6.429  12.442   3.674 -0.0013 -0.1771  0.1612
 2955W        W20479  13.974   3.857  15.407  0.2515  0.1098  0.0916
 2956W        W20480  10.175  16.792   1.966 -0.1388 -0.1179 -0.1552
 2957W        W20481  17.108   2.721   1.358  0.0373 -0.0625 -0.2811
 2958W        W20482  17.301   6.183  12.853  0.1002  0.1466  0.1050
 2959W        W20483   9.664   0.562  16.087  0.2872 -0.1741  0.1649
 2960W        W20484  13.785   9.039   1.029 -0.0920 -0.1651  0.0154
 2961W        W20485   3.635  14.529  12.664 -0.1960 -0.3472 -0.1178
 2962W        W20486   4.073  12.936  14.894  0.0046 -0.0948 -0.0142
 2963W        W20487   6.047  12.481  12.072 -0.3321 -0.0370 -0.1465
 2964W        W20488   7.994   7.091   2.547  0.1288 -0.0094 -0.2551
 2965W        W20489   8.264   4.497   3.148  0.1184 -0.0034 -0.0404
 2966W        W20490  10.453  14.080   4.215 -0.1576 -0.1824 -0.3717
 2967W        W20491  14.149   7.957  12.520  0.0965  0.1542 -0.1028
 2968W        W20492   1.557  14.297   0.508 -0.0745 -0.2497 -0.0463
 2969W        W20493   2.491  15.690   0.440  0.1443  0.0836 -0.4172
 2970W        W20494   1.983   2.088  11.561 -0.0366  0.1736 -0.0629
 2971W        W20495  11.822   6.716   0.179  0.1364  0.3197  0.1710
 2972W        W20496  16.390   4.773  12.328 -0.0146 -0.1132 -0.3179
 2973W        W20497  16.822   6.265  13.782 -0.0776  0.0498  0.1201
 2974W        W20498  13.738  12.257   3.830 -0.0869 -0.0405 -0.0846
 2975W        W20499  17.919   4.129   4.070 -0.2203  0.1176 -0.1469
 2976W        W20500  13.956  10.529  12.654 -0.3830  0.2005 -0.0322
 2977W        W20501  13.138   9.540   1.007  0.1480  0.1118 -0.1392
 2978W        W20502  13.275   9.042   0.278  0.0914  0.1073 -0.2862
 2979W        W20503  13.707   5.675  15.153 -0.1247 -0.0253 -0.3003
 2980W        W20504   7.211  16.871  11.437  0.2087  0.2574  0.1474
 2981W        W20505   2.732   5.514   1.440 -0.0303 -0.2531  0.1040
 2982W        W20506   6.590  11.797  14.174  0.0897  0.2898 -0.1752
 2983W        W20507   7.960  12.345  13.505 -0.2380 -0.2614  0.0074
 2984W        W20508   8.299   5.656  15.657  0.1644  0.0493  0.1483
 2985W        W20509  12.226   4.264  14.756 -0.2166  0.1769 -0.0020
 2986W        W20510  15.716   0.129   4.952 -0.2331  0.1221  0.2391
 2987W        W20511  17.580   8.438  12.993  0.2822 -0.2149  0.1587
 2988W        W20512  15.124  15.760   4.680  0.2866 -0.1041 -0.1254
 2989W        W20513   3.620  16.066   4.810  0.1606 -0.2034  0.5526
 2990W        W20514   6.236   4.288   1.167  0.0734 -0.3875  0.0110
 2991W        W20515  15.338   5.940   5.474 -0.0188 -0.0895  0.2244
 2992W        W20516   7.412  11.281   3.810  0.1204  0.0646  0.2081
 2993W        W20517   4.561   4.625   2.116 -0.1634  0.1389  0.3662
 2994W        W20518   7.367  11.879  13.107 -0.2054  0.0213  0.0052
 2995W        W20519   1.902  10.364   4.329  0.1727 -0.1809  0.3543
 2996W        W20520   4.750  14.790   0.110  0.0494  0.0489  0.1977
 2997W        W20521   7.512   3.796   3.832 -0.2830 -0.0029 -0.0213
 2998W        W20522   4.379   0.131   1.690  0.2030 -0.3329 -0.1113
 2999W        W20523  16.045   2.888   0.337  0.2087 -0.0355  0.2491
 3000W        W20524   0.001  14.554  14.748 -0.0831  0.0384  0.2250
 3001W        W20525  10.866  17.640   2.495 -0.0464  0.1438 -0.1564
 3002W        W20526  16.053  16.741  14.447 -0.2448  0.0723  0.2887
 3003W        W20527  17.186   2.538  16.319  0.2277 -0.0586 -0.0535
 3004W        W20528   4.006  15.495  16.443 -0.0889  0.0634  0.2248
 3005W        W20529  15.640  17.894   3.108 -0.0547  0.2476 -0.4750
 3006W        W20530  16.248   7.289  14.546 -0.2301 -0.1315 -0.1022
 3007W        W20531  15.359  14.432  11.142 -0.1883 -0.0432  0.3841
 3008W        W20532   4.486   6.755   5.815  0.1952  0.1969  0.0538
 3009W        W20533   3.327   6.406   1.670 -0.1936  0.0483  0.1244
 3010W        W20534  12.590   5.759   3.562 -0.1290  0.1131  0.2721
 3011W        W20535   2.852  10.326   1.128 -0.1601 -0.1567  0.1552
 3012W        W20536   3.046   8.090   3.252  0.4600 -0.1573  0.3103
 3013W        W20537   8.253   7.198  14.667 -0.2793 -0.2450 -0.0725
 3014W        W20538   5.693   8.582  11.254  0.0867 -0.0274  0.2936
 3015W        W20539  15.269   4.695   5.116  0.0158  0.0788  0.2754
 3016W        W20540  10.910   2.424  15.887 -0.0736 -0.2820  0.1821
 3017W        W20541  10.107   9.093   2.188  0.0004 -0.4302 -0.1914
 3018W        W20542  11.414   0.953   0.726  0.1038 -0.2221 -0.3721
 3019W        W20543   2.547   4.978   3.034 -0.1208 -0.0785  0.0708
 3020W        W20544   6.433   5.558   0.544 -0.3815 -0.2637  0.0071
 3021W        W20545  10.893  10.235  12.735 -0.0953  0.0278 -0.0439
 3022W        W20546   9.020  13.083   0.851 -0.1814 -0.0341  0.0201
 3023W        W20547  12.571  14.860  15.172 -0.1742  0.2209 -0.0885
 3024W        W20548  15.400   3.970   0.629  0.2686 -0.1288  0.2246
 3025W        W20549   5.415  15.016   4.603 -0.1534 -0.0032  0.0507
 3026W        W20550   5.717  12.481   4.884  0.0554 -0.1038  0.1005
 3027W        W20551  10.603   2.412   4.384  0.0598 -0.0908 -0.0266
 3028W        W20552  16.904   7.973  11.595  0.0056 -0.0486 -0.1779
 3029W        W20553  12.322  13.176  12.339 -0.0547 -0.0006  0.1554
 3030W        W20554  15.026   8.857  12.020 -0.1002  0.0014  0.0206
 3031W        W20555  15.648   6.398   2.985  0.0990 -0.1005 -0.4049
 3032W        W20556   5.940  10.957   0.044  0.0867 -0.0925  0.2030
 3033W        W20557   7.232  12.475   3.528 -0.0395 -0.0234 -0.0277
 3034W        W20558   3.986   0.756   0.092 -0.3511 -0.0140 -0.1353
 3035W        W20559   2.184  16.397   1.095  0.0932 -0.0659  0.2190
 3036W        W20560  14.800   4.969   0.249  0.1619  0.1696  0.1562
 3037W        W20561   5.650  16.746  13.580  0.1400 -0.3318 -0.1241
 3038W        W20562   3.230  10.692   1.423  0.0449 -0.4244 -0.1525
 3039W        W20563   2.374   0.795  13.546 -0.1370  0.0485  0.2139
 3040W        W20564  14.632   1.302   0.719 -0.0584  0.0306 -0.1517
 3041W        W20565   1.826   0.280   1.655 -0.1118 -0.1943 -0.1512
 3042W        W20566  15.097   1.458  16.004  0.3533 -0.3397  0.1506
 3043W        W20567  13.739   9.949  12.689 -0.2509  0.1061  0.1455
 3044W        W20568  13.073  13.022   4.690  0.1069  0.0171  0.1412
 3045W        W20569  17.207   2.834   1.815 -0.1036  0.0712  0.1718
 3046W        W20570  10.293  14.149  12.440 -0.0278 -0.1516 -0.1102
 3047W        W20571  14.653   7.879  12.591  0.1393  0.2320 -0.0360
 3048W        W20572   8.319  10.011  12.785  0.1867 -0.0660 -0.0344
 3049W        W20573  10.732   0.591   4.798  0.3320 -0.1346  0.2230
 3050W        W20574   3.337   4.327   1.338  0.1675 -0.0209 -0.2081
 3051W        W20575  14.749  12.809  14.636  0.2398 -0.2472 -0.0304
 3052W        W20576   6.481   6.009   2.357  0.0116  0.1595 -0.0180
 3053W        W20577  14.572  16.398   3.906 -0.2061 -0.2269 -0.0091
 3054W        W20578   6.995  16.789  13.994  0.3806  0.2310  0.2664
 3055W        W20579   3.982   3.138   3.492 -0.2124 -0.1159  0.0628
 3056W        W20580  16.340   7.099  14.061  0.1062  0.0336 -0.1189
 3057W        W20581   0.621  15.792   2.121 -0.0598 -0.2297 -0.2775
 3058W        W20582   3.786  10.291   4.769  0.1025  0.1069 -0.2397
 3059W        W20583   2.513   3.434  14.377 -0.1603  0.1560  0.1454
 3060W        W20584   8.464  13.171   0.152 -0.0845 -0.0389  0.1868
 3061W        W20585  16.565   0.686   0.425  0.1632 -0.0162 -0.0214
 3062W        W20586  13.565  11.848  13.058 -0.0450 -0.1712  0.1731
 3063W        W20587  16.229  11.232   1.257 -0.0199  0.0881 -0.2152
 3064W        W20588   0.780   5.518   3.434 -0.2319 -0.1943 -0.0373
 3065W        W20589   4.512  13.620  12.676  0.2286  0.2570 -0.1899
 3066W        W20590  11.964  13.478  16.128 -0.0057 -0.1033 -0.0103
 3067W        W20591  12.656  16.443  12.333  0.1545  0.1326  0.2072
 3068W        W20592  13.732   5.917  13.053 -0.5239  0.0454 -0.0254
 3069W        W20593  13.572   7.319   1.950 -0.2047 -0.4158  0.0833
 3070W        W20594   6.986  10.370   1.581 -0.3047  0.1314  0.2186
 3071W        W20595  14.911   6.516   4.556  0.0091  0.0821  0.0253
 3072W        W20596  12.316  11.930  12.136 -0.5268 -0.2608  0.0092
 3073W        W20597  12.528   2.456   1.303  0.1588  0.0818 -0.2748
 3074W        W20598   1.521   5.068  15.017 -0.0083  0.0663 -0.0977
 3075W        W20599   2.332  15.195  12.948 -0.0371 -0.2935  0.2017
 3076W        W20600   9.676   9.708  15.000 -0.0913  0.1172  0.0555
 3077W        W20601   7.483   0.781  12.952  0.1371  0.1024 -0.2742
 3078W        W20602   9.032   9.023  11.893  0.0397 -0.0486  0.0322
 3079W        W20603   4.089   9.490   4.214  0.1066  0.1032 -0.1514
 3080W        W20604   1.669  12.122  15.436  0.1496 -0.2072  0.0483
 3081W        W20605  10.893   8.426   0.971  0.1171  0.1420  0.2804
 3082W        W20606   3.017   9.784   0.157  0.0023 -0.0932  0.0116
 3083W        W20607   0.853   7.860  14.718 -0.0845 -0.2089  0.0603
 3084W        W20608  10.410   6.756   1.325 -0.0522  0.0097  0.0475
 3085W        W20609   1.659  14.156  14.674  0.1702 -0.1182 -0.0089
 3086W        W20610   9.693   8.814  14.940  0.0074 -0.0304  0.1153
 3087W        W20611   6.023  17.298   1.246  0.0302 -0.0114  0.3824
 3088W        W20612  11.288   2.213   3.222 -0.1628 -0.1726 -0.0643
 3089W        W20613  14.514   1.790  14.446  0.1489 -0.1587 -0.1016
 3090W        W20614   7.724  16.376   3.726  0.0716 -0.1406 -0.3236
 3091W        W20615  15.434   4.347   3.005 -0.0525 -0.0875  0.0220
 3092W        W20616  12.800   6.309  11.793  0.1994 -0.0412 -0.1876
 3093W        W20617   7.537   3.144  11.316  0.2037  0.0392 -0.2495
 3094W        W20618  11.229  17.563   3.484 -0.1390  0.0015 -0.0606
 3095W        W20619  11.721   4.463   4.956 -0.2239  0.1924  0.0443
 3096W        W20620   3.200   3.447   4.221 -0.0802  0.1850 -0.0247
 3097W        W20621  12.039   8.273  14.548 -0.4937 -0.0829  0.0949
 3098W        W20622   0.051   7.211   2.482  0.3349  0.0861  0.0681
 3099W        W20623  16.026   1.899  13.798  0.0020  0.0841  0.1081
 3100W        W20624  12.147  10.725  10.777  0.2205  0.0671  0.0613
 3101W        W20625  13.414   4.159  11.977 -0.0114  0.2081  0.0152
 3102W        W20626  10.002   1.661   4.303 -0.0639 -0.2233  0.2292
 3103W        W20627   5.670  14.270   2.228  0.1562  0.3096 -0.2209
 3104W        W20628   2.755   7.256   3.479 -0.1165  0.0845 -0.0011
 3105W        W20629   4.269   7.698   5.182 -0.4506 -0.1127  0.2815
 3106W        W20630  10.606  16.174  14.059  0.0007 -0.1522  0.0920
 3107W        W20631   7.392   8.612  13.684 -0.2621 -0.2421 -0.1578
 3108W        W20632  15.174  11.223  11.280  0.2482  0.1496  0.0902
 3109W        W20633  15.163  16.301   4.657  0.1503 -0.0388 -0.5058
 3110W        W20634  15.064  16.554   5.095 -0.0534 -0.3239  0.1880
 3111W        W20635   3.378   8.596   0.570 -0.0603 -0.4767  0.2847
 3112W        W20636   6.301  10.339   1.213 -0.1421 -0.0129 -0.1430
 3113W        W20637   2.577   1.529  15.441  0.1851 -0.2259 -0.0064
 3114W        W20638   2.895   1.301   3.634 -0.0895  0.0398  0.0343
 3115W        W20639  14.797  10.459  12.680  0.0089 -0.0416 -0.0981
 3116W        W20640  17.570  16.137  13.182  0.3323 -0.1943  0.1181
 3117W        W20641   6.008  11.640   0.569 -0.1304 -0.0127 -0.3723
 3118W        W20642   9.802  14.480  11.434 -0.1225  0.0800 -0.2066
 3119W        W20643   1.320   7.523  13.479 -0.3219  0.1108 -0.0750
 3120W        W20644  10.883  11.626   1.666 -0.0491 -0.2007  0.0218
 3121W        W20645  16.103  11.655   0.250  0.0286 -0.1760  0.0571
 3122W        W20646  11.130  13.483  15.368  0.0388 -0.3674 -0.2696
 3123W        W20647   7.629   3.494   0.303  0.0945  0.2600  0.0476
 3124W        W20648   2.059  12.164  13.976  0.1622  0.2096 -0.1002
 3125W        W20649  13.295   8.187   2.257 -0.1961  0.0977 -0.0517
 3126W        W20650  10.494  13.770   1.968 -0.1607  0.1746 -0.3623
 3127W        W20651  17.676   1.200  11.920  0.2660 -0.0048  0.2149
 3128W        W20652   8.628   8.229  14.197 -0.1141  0.1829 -0.0945
 3129W        W20653  12.771   2.478   0.487  0.3426  0.0079  0.1849
 3130W        W20654  17.497   9.957   0.376  0.1347 -0.1013 -0.3330
 3131W        W20655  13.901  12.694   4.041  0.0448  0.0398  0.1686
 3132W        W20656  12.188   9.460   4.326  0.1358 -0.2163  0.0527
 3133W        W20657   4.497  14.711  12.970  0.3194  0.1169 -0.4654
 3134W        W20658   4.978  13.751   1.938 -0.1172  0.2577 -0.2343
 3135W        W20659  13.451   2.272   1.072 -0.4288 -0.0906  0.0175
 3136W        W20660   2.020   7.846  15.164  0.2453  0.2459 -0.1373
 3137W        W20661   4.376   0.630   5.022 -0.3241  0.2658 -0.1430
 3138W        W20662  12.819   1.088  12.572 -0.0036  0.4701 -0.0615
 3139W        W20663   2.896   5.912  15.339 -0.0775  0.1819  0.1554
 3140W        W20664   5.411   5.820  12.282  0.0065 -0.1178  0.0815
 3141W        W20665   3.500  10.878  13.889 -0.0277  0.1331 -0.1434
 3142W        W20666  13.847  13.539  11.756 -0.3293 -0.1421  0.2689
 3143W        W20667   2.021   4.044   5.702  0.2321  0.2216 -0.2025
 3144W        W20668   4.549  13.072  14.893 -0.4670 -0.1910 -0.0833
 3145W        W20669  10.700   6.477  14.402  0.2360  0.1050 -0.1767
 3146W        W20670   6.083  15.473  15.611 -0.5360 -0.1404 -0.2090
 3147W        W20671   5.162   2.117  15.919 -0.0072 -0.0757  0.0465
 3148W        W20672  10.777  13.980  12.251 -0.1780 -0.0286 -0.0130
 3149W        W20673  15.755   5.652  13.768 -0.1818 -0.2380 -0.0390
 3150W        W20674   1.595   1.918   3.697  0.0044  0.2689  0.0366
 3151W        W20675  15.755   3.706   2.671 -0.1610  0.2079 -0.0614
 3152W        W20676   4.500   5.574   3.257  0.0460  0.0424 -0.0630
 3153W        W20677  11.085   4.517  13.778 -0.0838 -0.1954  0.1709
 3154W        W20678   1.423  16.575  11.558  0.2282  0.1277 -0.1038
 3155W        W20679   4.357   2.307  11.622  0.0442 -0.0543 -0.0066
 3156W        W20680  11.391   7.895  10.324 -0.0848 -0.3698  0.0567
 3157W        W20681  13.373   6.414   1.759 -0.0443 -0.0677  0.0585
 3158W        W20682   2.136   4.797   3.192 -0.1153  0.1106  0.0285
 3159W        W20683   9.415   0.235   1.142 -0.2132  0.0710  0.4144
 3160W        W20684   1.544  13.934   1.565 -0.0830 -0.3174 -0.0842
 3161W        W20685   8.055   6.265  13.867 -0.0407 -0.1394 -0.2264
 3162W        W20686  14.284   7.324   1.852  0.3316 -0.2001  0.0919
 3163W        W20687   1.586   0.697   4.120 -0.3738 -0.1128 -0.0336
 3164W        W20688   2.025   0.971  14.857 -0.0240 -0.2689  0.0911
 3165W        W20689  13.887  16.936   5.486 -0.1982  0.0943  0.1677
 3166W        W20690   0.112  12.076  15.763 -0.3351 -0.0215  0.1759
 3167W        W20691  17.595   8.103   2.485 -0.0290  0.1588 -0.3005
 3168W        W20692   1.264   7.189  12.282 -0.3936 -0.2693 -0.0743
 3169W        W20693  14.415  12.821  12.101 -0.0162 -0.2810  0.1988
 3170W        W20694  16.526   2.392  15.133  0.0977 -0.0498  0.0294
 3171W        W20695  12.767   9.063  12.400  0.1703 -0.0453  0.2034
 3172W        W20696   5.685   1.872   2.348  0.1570 -0.0304 -0.0053
 3173W        W20697   5.874   1.821   0.846  0.1632  0.1758  0.0310
 3174W        W20698   7.714  17.591   1.990  0.0083 -0.1825  0.0045
 3175W        W20699   3.485   0.723   0.983 -0.0115 -0.1529 -0.2362
 3176W        W20700  11.522   4.165  15.834 -0.0659  0.5290 -0.0268
 3177W        W20701   0.465  13.970   3.960 -0.2195  0.1533  0.0904
 3178W        W20702  14.658   8.478  13.173  0.1787 -0.0913  0.1992
 3179W        W20703   7.231   4.435   2.248  0.1994  0.2410  0.0998
 3180W        W20704   0.554   0.942  15.270 -0.0480  0.1137  0.0619
 3181W        W20705  16.574  11.434  14.723 -0.0777  0.5237 -0.3061
 3182W        W20706   6.438   7.842  16.203  0.1321 -0.1509  0.2093
 3183W        W20707  13.240   5.171   3.794  0.1048 -0.1147  0.1469
 3184W        W20708   6.704   9.019   1.549 -0.2118 -0.1246 -0.1176
 3185W        W20709   8.890  14.712   5.431 -0.1318  0.2420 -0.0263
 3186W        W20710   8.012   1.450   0.042 -0.0311  0.1390  0.0772
 3187W        W20711   2.467   5.111   4.561 -0.1905  0.0647  0.2521
 3188W        W20712  10.495   9.937   3.068  0.0339  0.3020  0.1601
 3189W        W20713   5.788   4.160  11.869  0.0498 -0.0962  0.3261
 3190W        W20714   8.129   6.201   1.820  0.2438  0.0954  0.0260
 3191W        W20715   5.854  15.386   3.411  0.1948 -0.1683 -0.3507
 3192W        W20716   5.893  11.106   0.997  0.0157 -0.0735 -0.1969
 3193W        W20717   2.217  15.664   3.083 -0.0271 -0.0344 -0.2673
 3194W        W20718   8.913  16.830   1.468  0.2618 -0.2377  0.0618
 3195W        W20719  12.165   6.090  14.606 -0.2771 -0.0670  0.0085
 3196W        W20720   4.512  13.588   3.033 -0.0731 -0.0322 -0.0026
 3197W        W20721  14.075  11.752   3.605  0.0514 -0.1398  0.0689
 3198W        W20722   0.811  14.844  11.679 -0.0111 -0.2077  0.2365
 3199W        W20723  11.700  16.345   3.351 -0.3280 -0.2853 -0.1941
 3200W        W20724   1.596  15.234  13.901 -0.2136 -0.1452 -0.2222
 3201W        W20725   8.830  15.043   1.175  0.1956  0.0664 -0.0987
 3202W        W20726   2.302  14.970   1.340  0.0146  0.0120 -0.0576
 3203W        W20727  12.580   1.897   1.019  0.1205 -0.1280  0.1710
 3204W        W20728   4.701  11.124   1.432  0.0991 -0.1256 -0.1528
 3205W        W20729   8.515  15.301   3.333 -0.1019 -0.0948 -0.0399
 3206W        W20730  14.434   8.011  12.118  0.0553 -0.0448 -0.0697
 3207W        W20731  10.204   5.682   3.812 -0.1064  0.1020  0.1111
 3208W        W20732   3.625   4.123   3.629 -0.1157  0.1931 -0.0177
 3209W        W20733  17.742   2.528  11.972 -0.3402 -0.1876 -0.1838
 3210W        W20734  14.675  17.934  14.400 -0.0863  0.1217  0.0389
 3211W        W20735  12.566   0.956   3.846 -0.2911  0.0357  0.2925
 3212W        W20736  14.372  13.732   0.385 -0.0076 -0.0737 -0.0146
 3213W        W20737   9.873   9.025   3.140  0.0128 -0.2854  0.0046
 3214W        W20738   7.086   2.871  13.300  0.0976 -0.0300  0.1730
 3215W        W20739  10.501   2.293  14.847 -0.1324 -0.0257  0.2470
 3216W        W20740   1.738  10.392  11.404 -0.0235 -0.3260  0.0437
 3217W        W20741   1.967  11.482  15.703 -0.1172  0.4342 -0.0166
 3218W        W20742   4.867  14.374  13.360 -0.0627  0.0414  0.2070
 3219W        W20743   5.112   5.042   0.191 -0.1414 -0.0343  0.0321
 3220W        W20744  17.556   7.069  13.589 -0.0119  0.1869 -0.0859
 3221W        W20745   9.782  10.547  16.273 -0.1205 -0.1205 -0.3646
 3222W        W20746   9.174  12.213  15.584 -0.0889 -0.1557  0.1598
 3223W        W20747   4.669   8.640  12.272  0.3200 -0.1238 -0.1972
 3224W        W20748   8.361   0.906   0.699 -0.0827  0.0295  0.2590
 3225W        W20749   3.727   2.006  14.367  0.0038 -0.1896  0.1011
 3226W        W20750   1.647   9.459   0.832  0.2283 -0.3288  0.3203
 3227W        W20751   9.751   9.189  12.996  0.4359  0.0566 -0.6093
 3228W        W20752   0.439   3.278   5.020 -0.4048 -0.0571 -0.0332
 3229W        W20753   8.444   0.495   1.140 -0.0508 -0.0814 -0.0562
 3230W        W20754   2.812   9.317   0.219 -0.3880  0.2962 -0.1779
 3231W        W20755  17.573  16.921  12.837 -0.2542  0.1523  0.0951
 3232W        W20756  14.151   8.903   2.684  0.1690 -0.0249 -0.2143
 3233W        W20757   7.124  10.964  13.249  0.1782  0.0409 -0.0553
 3234W        W20758   0.389   6.577  13.046 -0.1299  0.1389 -0.1246
 3235W        W20759   6.138   0.421  16.143  0.1801 -0.2297 -0.3681
 3236W        W20760   5.289   4.503   4.619 -0.1595 -0.0622 -0.0764
 3237W        W20761   6.437  15.190   5.143  0.2024  0.0018 -0.1701
 3238W        W20762   7.008   4.633  13.047 -0.3849 -0.1603  0.2748
 3239W        W20763  16.071   6.891   5.294 -0.1662 -0.1222 -0.1056
 3240W        W20764   7.597  12.856  13.196  0.2024 -0.1240  0.2826
 3241W        W20765  14.926  17.538   4.820 -0.1078  0.2284 -0.0867
 3242W        W20766   3.115   7.958  11.537  0.0703 -0.3332 -0.1182
 3243W        W20767  14.912  17.039   2.717  0.1470  0.0072 -0.3034
 3244W        W20768  11.198   7.746  15.462 -0.1220 -0.2296  0.0086
 3245W        W20769   7.994  17.421   4.422  0.2139 -0.2150 -0.3519
 3246W        W20770  10.233  15.238  14.169 -0.2165  0.1656  0.1944
 3247W        W20771  17.899   4.478   1.774 -0.0693  0.1029  0.0348
 3248W        W20772  16.369  10.728  11.199  0.0616  0.0340  0.0657
 3249W        W20773  13.290   1.033  15.798  0.0353 -0.0895  0.0453
 3250W        W20774  14.072  13.062  15.881  0.0052  0.1368  0.1984
 3251W        W20775  13.725   0.090   1.719  0.1371  0.1681 -0.0824
 3252W        W20776   9.068  10.673  15.514  0.1149  0.1340 -0.1841
 3253W        W20777   7.974  16.830   0.399  0.1269  0.2071 -0.0466
 3254W        W20778  17.893  15.352  13.503 -0.1219  0.1736  0.1309
 3255W        W20779   3.824   7.097  12.243 -0.2180  0.1868  0.1861
 3256W        W20780   5.231   8.279  14.619 -0.1523  0.3561 -0.3290
 3257W        W20781  11.865  17.243  14.092 -0.0442  0.0056  0.1318
 3258W        W20782   9.301   5.104   4.048 -0.3708 -0.1846 -0.2046
 3259W        W20783   9.248  10.175  15.681  0.1435 -0.0362  0.2630
 3260W        W20784  12.642  14.596   3.489  0.1530  0.2035  0.0192
 3261W        W20785   1.684   3.719   0.800 -0.1098  0.1810  0.0807
 3262W        W20786  13.873   6.785  15.207 -0.1644 -0.0056  0.0296
 3263W        W20787   2.767  15.028   4.414 -0.0954 -0.2482  0.0996
 3264W        W20788   8.383   1.083  12.457 -0.0006 -0.0306  0.1243
 3265W        W20789   0.261   0.903   2.805  0.0592  0.1958  0.2452
 3266W        W20790   4.903   6.759   0.028  0.1796 -0.2425  0.0941
 3267W        W20791   5.634   5.948   0.474  0.2203 -0.0761  0.0883
 3268W        W20792  11.016  17.943   5.367 -0.0914 -0.1367 -0.0130
 3269W        W20793  16.505  11.591  11.487 -0.0195 -0.0265 -0.0185
 3270W        W20794   2.413  12.083  14.319 -0.3907  0.1913 -0.1711
 3271W        W20795  15.949   5.972  13.403 -0.1720 -0.0076 -0.3229
 3272W        W20796   6.630   9.909   1.344 -0.0726  0.2112  0.0428
 3273W        W20797  16.930  17.904  14.396 -0.2674 -0.1479 -0.0729
 3274W        W20798   7.188  10.927   4.912  0.1375 -0.2547  0.1704
 3275W        W20799   8.149   5.817   4.767  0.0111 -0.2363 -0.0830
 3276W        W20800   2.427   8.382   1.911  0.1646  0.3658 -0.1033
 3277W        W20801   5.676  17.466   3.750 -0.0144  0.0638  0.1424
 3278W        W20802  10.083   3.428   2.945  0.2698 -0.1814 -0.1310
 3279W        W20803  17.824   6.129  15.812  0.0952 -0.1704 -0.0127
 3280W        W20804   5.428   2.416   4.455 -0.1634 -0.0080  0.2990
 3281W        W20805  14.367  15.713   5.834 -0.2564 -0.0684 -0.0064
 3282W        W20806   8.853  10.231  16.454 -0.2391  0.4658  0.0300
 3283W        W20807   9.658   5.447   1.644 -0.0230 -0.0991  0.1525
 3284W        W20808  16.428   6.077   0.064 -0.0101 -0.0397 -0.4382
 3285W        W20809   2.101   9.644   2.071  0.2026  0.0583  0.2209
 3286W        W20810  12.727   4.453  12.547  0.0975 -0.4427  0.0555
 3287W        W20811  16.504   5.178  14.618 -0.1283  0.1304 -0.1017
 3288W        W20812  10.355  17.291   0.413 -0.1236  0.0045  0.2908
 3289W        W20813  13.141   8.535   0.316  0.3738 -0.2865 -0.2063
 3290W        W20814   8.279   9.815   5.073 -0.0240  0.0437 -0.1401
 3291W        W20815  17.271   3.178   1.336  0.0132  0.1205  0.2467
 3292W        W20816   8.019   9.455  11.377 -0.1040  0.1358  0.4351
 3293W        W20817   5.271   0.310  14.160  0.1252 -0.5563  0.0554
 3294W        W20818  14.676  14.878   2.073 -0.1653  0.0291 -0.0272
 3295W        W20819   0.017  17.380  15.431 -0.0445 -0.2456 -0.1624
 3296W        W20820   3.717   8.224  16.047  0.1307 -0.2631  0.0741
 3297W        W20821  12.415  10.793  11.794 -0.1230  0.1035 -0.0527
 3298W        W20822  10.588   9.416  13.855  0.1558 -0.0122 -0.1472
 3299W        W20823  17.117  11.435  11.500  0.0628 -0.0079 -0.1586
 3300W        W20824   5.919   1.009   0.487 -0.0001 -0.1158 -0.0104
 3301W        W20825   4.346   4.679  15.476  0.1998  0.1372  0.1173
 3302W        W20826  16.964   3.813   0.167  0.0588 -0.1447  0.3087
 3303W        W20827  12.297   0.361   4.999 -0.3281  0.0841  0.0551
 3304W        W20828  17.822   8.589  12.131  0.0325  0.0866  0.0469
 3305W        W20829   5.385   5.988   4.784 -0.1257  0.3459  0.3329
 3306W        W20830  17.201  15.071   4.545  0.0732 -0.0915 -0.0238
 3307W        W20831  11.102   4.262   3.754  0.1766 -0.2400  0.1286
 3308W        W20832   3.880  12.337   4.366 -0.0228 -0.1033 -0.2966
 3309W        W20833  15.433  13.091  11.660 -0.0987  0.0030 -0.0453
 3310W        W20834   2.703   0.970   3.236  0.0116 -0.1774 -0.2052
 3311W        W20835   9.579   6.908   3.627 -0.0518 -0.1891  0.0937
 3312W        W20836   8.296  10.437  16.417 -0.1443  0.1994  0.1121
 3313W        W20837  14.261  13.098   1.100 -0.0612  0.0868 -0.2633
 3314W        W20838  16.653   4.469  16.189  0.4146 -0.1734  0.1398
 3315W        W20839  11.613   0.078  14.874  0.4772 -0.0182  0.1338
 3316W        W20840  11.618   2.428   1.213  0.2937  0.0518 -0.1378
 3317W        W20841   6.667  10.688   1.358 -0.0198 -0.3220  0.2884
 3318W        W20842  11.960   1.777   5.198  0.0515  0.1924 -0.0496
 3319W        W20843   4.178  11.975  12.037  0.1702  0.2427 -0.1101
 3320W        W20844   0.774   2.232   3.897 -0.2894 -0.0124  0.0273
 3321W        W20845   8.993   9.417   5.070 -0.1036  0.2622  0.0437
 3322W        W20846  16.279  12.134   0.137 -0.2095  0.0741 -0.0865
 3323W        W20847  11.040  15.547  13.029  0.1150  0.1595  0.5810
 3324W        W20848   9.668   9.125   5.553  0.1157  0.0571 -0.3710
 3325W        W20849   3.572  12.043   1.015 -0.0936 -0.0352  0.1664
 3326W        W20850  14.781  11.465  11.385 -0.1062 -0.0410 -0.0332
 3327W        W20851   9.809  10.245  14.384 -0.2102  0.1794  0.0336
 3328W        W20852   9.824   5.901  15.898 -0.1305  0.2345 -0.2861
 3329W        W20853  17.283  13.637  14.998  0.0058  0.1776 -0.1072
 3330W        W20854   2.449  16.349  12.401 -0.1000  0.1420  0.2059
 3331W        W20855   9.136   8.447  14.224 -0.1750  0.0028  0.0161
 3332W        W20856  17.513  13.904  15.971  0.0932  0.4343 -0.1930
 3333W        W20857   8.138  10.889  14.268 -0.2125 -0.1456 -0.1267
 3334W        W20858  12.681   5.036  15.291 -0.0644 -0.3612  0.3475
 3335W        W20859   9.145   2.451   2.565  0.3602 -0.2789 -0.0791
 3336W        W20860  12.686  10.484   1.586 -0.0697 -0.0943 -0.2324
 3337W        W20861  16.402  10.310   5.642 -0.1522  0.0192 -0.6282
 3338W        W20862  16.951   9.963  13.075  0.2155  0.0285 -0.1753
 3339W        W20863   5.938   1.288  12.264 -0.1141  0.0420  0.1840
 3340W        W20864   3.229   7.463  16.213 -0.1486 -0.0210 -0.0297
 3341W        W20865  17.468   1.368   1.046  0.0944 -0.0793  0.0769
 3342W        W20866  13.862  13.495  15.142 -0.2004 -0.0428  0.0758
 3343W        W20867  14.477   4.582  12.132 -0.2313  0.0660  0.2539
 3344W        W20868  10.643  15.638  13.350 -0.1022 -0.2707 -0.1488
 3345W        W20869  12.771  15.920   5.158 -0.0166 -0.1303  0.2291
 3346W        W20870   2.062   5.206   4.910 -0.2151  0.2346 -0.1679
 3347W        W20871  11.238   5.654   1.955 -0.4055  0.0112  0.1595
 3348W        W20872  10.948   6.665  15.940  0.1012  0.0036  0.1835
 3349W        W20873  15.968   5.176   3.673  0.1580  0.1817 -0.2063
 3350W        W20874   2.948   2.288  13.880 -0.3929 -0.1150  0.0969
 3351W        W20875   2.095   1.475  13.840  0.1722 -0.2655 -0.1838
 3352W        W20876  14.084  12.306   3.461  0.1228 -0.2146  0.0935
 3353W        W20877  12.979   5.907  16.075  0.4183 -0.1847  0.1365
 3354W        W20878  16.377  16.454   4.944 -0.0522  0.1714  0.0800
 3355W        W20879   5.345   2.781  14.693  0.0149  0.2024  0.1651
 3356W        W20880  11.275   7.719  13.583 -0.1929 -0.0442  0.1323
 3357W        W20881  13.639  13.230   6.000  0.1626  0.0562  0.0018
 3358W        W20882  17.363   8.988   2.652 -0.2504 -0.2181 -0.1951
 3359W        W20883  17.113   0.659   0.533  0.1175  0.1473  0.2506
 3360W        W20884   5.629  13.166  13.390  0.0220  0.2431  0.0668
 3361W        W20885   9.741   8.348   3.815  0.1914  0.0992  0.1007
 3362W        W20886   3.918   5.519   4.968  0.2901  0.2407 -0.0146
 3363W        W20887   2.627  13.679  13.992  0.1274 -0.1520  0.1213
 3364W        W20888  13.211  11.781  15.808 -0.2938 -0.0541  0.0923
 3365W        W20889  11.784   2.979   2.275  0.1534  0.3931  0.3287
 3366W        W20890   0.095  15.919  13.329  0.3589  0.0622 -0.0145
 3367W        W20891   6.573  16.442  13.541 -0.1192 -0.1053  0.2298
 3368W        W20892  14.359  16.758  14.514  0.1697 -0.0461 -0.0135
 3369W        W20893  14.096   2.932   3.621 -0.0554  0.0159  0.0175
 3370W        W20894   4.998   8.880  15.767 -0.1500  0.3481  0.0274
 3371W        W20895  17.444   8.794   3.789 -0.0371 -0.0620  0.0638
 3372W        W20896   5.913   0.758  12.131  0.0761  0.1601 -0.1542
 3373W        W20897   8.002   2.573  13.563 -0.0212  0.0075  0.0365
 3374W        W20898  16.160  15.575  16.032 -0.0885  0.0745  0.0432
 3375W        W20899  11.412   6.645  12.895 -0.1270 -0.0690 -0.0498
 3376W        W20900   2.220   4.228  15.818  0.3254  0.0580 -0.0431
 3377W        W20901   0.344   7.650  16.434 -0.0181  0.3787  0.0926
 3378W        W20902  16.513   0.619  15.255  0.2789  0.1552  0.0234
 3379W        W20903   7.700  11.976  14.558 -0.1203  0.2075  0.0122
 3380W        W20904   5.283  12.688   2.829 -0.2158 -0.2378  0.1535
 3381W        W20905   4.711   2.234  12.564 -0.0105 -0.0266 -0.1129
 3382W        W20906   3.730   5.437  15.052  0.1351 -0.1296  0.2915
 3383W        W20907  14.232   3.377   3.869  0.0618  0.0654 -0.1075
 3384W        W20908   4.983   4.433  15.749 -0.0922 -0.1761  0.1416
 3385W        W20909   3.023   3.393   5.368  0.0196 -0.5856  0.2855
 3386W        W20910   8.780   1.947   2.157 -0.1080  0.1444 -0.2754
 3387W        W20911   8.838   1.789   3.158 -0.3482 -0.0063  0.0985
 3388W        W20912   3.443   2.642   4.996  0.0945  0.0893 -0.2894
 3389W        W20913   2.186  12.682   0.999 -0.1723  0.0461  0.0447
 3390W        W20914  13.411  14.848  14.014 -0.0320  0.2599  0.0893
 3391W        W20915  16.957   3.863  16.088  0.3079  0.0997  0.1189
 3392W        W20916  11.254   1.197   2.333 -0.2191 -0.0454 -0.2089
 3393W        W20917   1.892   9.307  14.242 -0.2069  0.2833  0.1732
 3394W        W20918  14.296  12.253   4.862  0.1399  0.1097 -0.0714
 3395W        W20919   8.018  17.380  15.386 -0.2838  0.2292  0.1492
 3396W        W20920  14.546   1.430   4.077  0.4858  0.0255 -0.0503
 3397W        W20921  13.501   1.168  12.252  0.2590 -0.1978  0.0146
 3398W        W20922   9.634  17.647  13.726 -0.2139 -0.0478 -0.1088
 3399W        W20923   4.875  12.461   0.983 -0.0970  0.0491 -0.0184
 3400W        W20924   1.060   8.307  14.862 -0.4423 -0.3207  0.0300
 3401W        W20925  13.274   4.847  14.781  0.1888 -0.0652 -0.0131
 3402W        W20926   2.794  17.163   2.059  0.0744  0.3675 -0.1304
 3403W        W20927  10.200  15.426  16.196 -0.3780  0.1374  0.2753
 3404W        W20928  17.462   1.320  12.664  0.0459 -0.2002 -0.0228
 3405W        W20929   9.928   3.768  15.395 -0.1511  0.1568 -0.1324
 3406W        W20930   3.319  16.096   3.698  0.2562 -0.1583  0.0272
 3407W        W20931   6.592   1.055   2.813 -0.0479 -0.0217  0.2014
 3408W        W20932   1.931   8.504  12.682 -0.3469  0.0383  0.1207
 3409W        W20933  13.066  13.380   4.212 -0.3202  0.2399  0.1093
 3410W        W20934  15.716  11.042  15.049 -0.0889  0.2185  0.1552
 3411W        W20935   4.415  16.485  14.598  0.1887 -0.3281 -0.0938
 3412W        W20936  16.049   6.773  13.827  0.0575  0.0058 -0.1731
 3413W        W20937  17.717   3.986  11.794 -0.0226  0.0740  0.2968
 3414W        W20938  16.179   1.051   4.949  0.0407  0.0005  0.0010
 3415W        W20939   3.140  13.802   1.587 -0.1657  0.1052  0.1231
 3416W        W20940  17.052   4.044   5.257  0.0804 -0.0593 -0.2258
 3417W        W20941   2.785   5.313  13.383  0.0951 -0.2303 -0.1431
 3418W        W20942   5.146  13.224  13.229 -0.0344 -0.0204 -0.2109
 3419W        W20943   0.960   1.203  15.568  0.0242 -0.0015 -0.1336
 3420W        W20944  17.800  15.643   0.216  0.2296  0.0831  0.4017
 3421W        W20945  11.025   6.743   2.141 -0.0892 -0.2912  0.2948
 3422W        W20946  17.261  13.446  15.940 -0.0115 -0.2593 -0.2854
 3423W        W20947  14.448   5.099   0.655 -0.3881  0.1918 -0.0825
 3424W        W20948   7.466  16.621  14.088 -0.1255 -0.0714 -0.1214
 3425W        W20949  11.321   8.472  16.088  0.1726 -0.0938  0.1926
 3426W        W20950   0.733   5.869  13.545  0.1278 -0.0214 -0.2372
 3427W        W20951   6.922   5.063  14.281  0.0296 -0.2134 -0.1103
 3428W        W20952  15.175  14.837   2.220  0.2852  0.0512 -0.1766
 3429W        W20953   7.180  11.301   1.321  0.0906 -0.0059  0.3478
 3430W        W20954   8.773   9.787   2.849  0.0859  0.0894 -0.1135
 3431W        W20955  16.743  14.055  10.824  0.0729 -0.2120 -0.2708
 3432W        W20956   0.484   1.181  14.859  0.0345  0.3479  0.0084
 3433W        W20957   7.254  16.179  13.954  0.1324  0.0691 -0.0251
 3434W        W20958   1.626  13.384  11.934  0.0628  0.4763  0.1960
 3435W        W20959   7.702   3.115   4.710  0.1683  0.1405  0.0949
 3436W        W20960   0.071  14.725  13.408 -0.1440  0.1657  0.0239
 3437W        W20961  14.637  12.527  11.716 -0.1179  0.1008  0.3029
 3438W        W20962  15.308   4.993  12.817  0.0017  0.3299 -0.3390
 3439W        W20963   5.343   2.423  13.328  0.0692  0.2093 -0.2149
 3440W        W20964  13.806   7.572   2.883 -0.0679 -0.2555 -0.1043
 3441W        W20965   1.456   9.011   3.042 -0.0695  0.1481 -0.2457
 3442W        W20966   7.805   1.023   5.635 -0.3135  0.0205  0.0215
 3443W        W20967  10.094  16.717  14.064 -0.2518 -0.2001 -0.0274
 3444W        W20968   8.472  14.355   1.743  0.1751  0.2210 -0.0722
 3445W        W20969  10.894  14.524  13.246  0.2664 -0.0045  0.1758
 3446W        W20970   2.984  13.353  12.206 -0.4040  0.0109 -0.1591
 3447W        W20971   2.971  17.960   3.118  0.1763 -0.0152  0.3061
 3448W        W20972  11.824   7.271  16.026  0.2260  0.3583  0.1918
 3449W        W20973  13.728  15.893   0.828 -0.2296  0.1879 -0.2118
 3450W        W20974   7.641   2.217  15.902 -0.0512  0.4305 -0.2264
 3451W        W20975  10.166  14.246   3.294  0.0028 -0.0827  0.0118
 3452W        W20976   8.338  13.944   3.105 -0.1074  0.0410  0.0983
 3453W        W20977  12.603  12.186   5.062 -0.1796 -0.2695 -0.0397
 3454W        W20978  17.118   2.561   2.214  0.3614  0.1005  0.1700
 3455W        W20979  13.142  14.520   2.422 -0.0647  0.0003  0.1464
 3456W        W20980  13.509  11.316  11.876  0.0879 -0.0068  0.2552
 3457W        W20981   9.978  13.145  15.035  0.1130 -0.0284  0.0909
 3458W        W20982   7.002   9.545  15.780 -0.0572  0.1577 -0.0161
 3459W        W20983  17.749  13.633  14.808 -0.0127 -0.0968  0.2141
 3460W        W20984   9.813   8.611  12.858 -0.2879  0.2411 -0.2235
 3461W        W20985  14.397  10.214   0.765  0.2738 -0.1844  0.3005
 3462W        W20986   9.929  11.177   3.211  0.2172 -0.0812 -0.0566
 3463W        W20987  14.620   1.526   3.466 -0.0690  0.0737 -0.0205
 3464W        W20988   7.987   7.030  14.283  0.2517  0.0936  0.3175
 3465W        W20989   6.437   7.541  13.413  0.0029 -0.1772  0.3372
 3466W        W20990  17.848  17.193   0.389 -0.0568  0.3456 -0.1257
 3467W        W20991   6.869   5.910   1.955 -0.3030 -0.0629 -0.0160
 3468W        W20992   9.239  11.163   2.840 -0.0348  0.0429  0.1497
 3469W        W20993   0.951   4.696   2.573  0.0474  0.0051  0.1843
 3470W        W20994   8.755  15.665  13.429 -0.2307  0.0458 -0.2223
 3471W        W20995   0.248   4.566  16.124 -0.2325 -0.0045  0.3228
 3472W        W20996   5.385  17.370   0.895  0.1276  0.2269  0.0129
 3473W        W20997   5.938  13.095  15.031 -0.0939  0.1555 -0.3111
 3474W        W20998  17.146   8.619  15.923 -0.1355  0.0130 -0.1160
 3475W        W20999  17.960  13.289   0.030  0.2564  0.1531 -0.2778
 3476W        W21000   1.129   4.259   1.028 -0.2048 -0.3694 -0.3167
 3477W        W21001   1.307   9.169  13.357 -0.0201 -0.1799  0.0952
 3478W        W21002  13.407  17.898  15.156 -0.2582  0.1359 -0.2901
 3479W        W21003   7.079  17.779  16.260 -0.1784  0.1798  0.4385
 3480W        W21004   9.810   1.899  14.265 -0.2710 -0.0385  0.0408
 3481W        W21005  13.081  15.374  14.439 -0.1172  0.0447 -0.0050
 3482W        W21006   0.528   0.149  14.091 -0.0907 -0.1805  0.0064
 3483W        W21007  12.214  15.605  16.188 -0.0787 -0.0908  0.2467
 3484W        W21008   5.307   8.187   5.264 -0.1096  0.1459  0.2899
 3485W        W21009   8.335  13.198  15.668  0.1881  0.2207 -0.0641
 3486W        W21010   4.911  12.334   3.152 -0.0087 -0.1048 -0.3065
 3487W        W21011  16.178   2.320  15.524  0.2898 -0.2842 -0.0014
 3488W        W21012  13.252   3.270   2.686  0.1368  0.1309  0.1859
 3489W        W21013  13.293   0.302  14.279  0.1433 -0.0296 -0.0966
 3490W        W21014   1.868  12.892  11.819  0.2588  0.2127 -0.1365
 3491W        W21015   7.961  17.035  13.999  0.3592  0.0965  0.0448
 3492W        W21016   7.364  15.719  15.109 -0.2190  0.0064 -0.1731
 3493W        W21017   5.224   3.692   1.067 -0.0190  0.2089 -0.0859
 3494W        W21018   8.928   2.705   3.597  0.1461 -0.0032 -0.2907
 3495W        W21019  17.495  15.631  14.213  0.1906 -0.0041  0.0008
 3496W        W21020  14.737   7.240  13.029 -0.1596  0.3703  0.1295
 3497W        W21021   8.761  11.595   5.319  0.4019 -0.0649  0.0460
 3498W        W21022   1.466  12.052  14.597  0.0091 -0.2240  0.1635
 3499W        W21023   3.123  10.083  13.308  0.1239  0.0671 -0.4478
 3500W        W21024   4.165  10.937  14.048  0.0337  0.0093 -0.4875
 3501W        W21025  12.478   0.044  14.547  0.1057  0.1906 -0.1867
 3502W        W21026   8.798   3.077   4.029 -0.3070 -0.0541 -0.2707
 3503W        W21027   0.848   6.655   2.697  0.2150 -0.0515  0.0078
 3504W        W21028   0.293   9.735  11.919  0.1462 -0.0102 -0.1238
 3505W        W21029   5.337   7.134   3.840  0.0284  0.0579  0.0544
 3506W        W21030  10.561   0.998   4.106 -0.1919 -0.0422 -0.3315
 3507W        W21031   3.172  15.343   0.450  0.2371  0.1488  0.1203
 3508W        W21032  11.655   8.055   4.029  0.1624  0.0585  0.1020
 3509W        W21033  11.409   1.332  12.167  0.1333  0.0814  0.1889
 3510W        W21034   0.996  12.674  12.990 -0.1803  0.4660 -0.0890
 3511W        W21035  12.585   7.257  16.302 -0.1987  0.2190 -0.1228
 3512W        W21036  15.639  14.435  11.827  0.2330  0.1647 -0.2746
 3513W        W21037   3.855   6.797   4.658 -0.0004 -0.0757  0.0141
 3514W        W21038   1.053  10.792  12.474 -0.0532  0.2564  0.0346
 3515W        W21039   1.976  13.702   0.792  0.4339  0.1831  0.2303
 3516W        W21040  15.851   4.627  15.837 -0.1184  0.3550  0.0897
 3517W        W21041   9.776   3.870  13.916  0.0328  0.1456  0.0368
 3518W        W21042  14.423  17.153   2.671 -0.0415  0.0343 -0.1934
 3519W        W21043  12.872  17.296   4.037  0.2579  0.0092  0.3555
 3520W        W21044   3.866  17.964  11.766 -0.2846 -0.3471  0.0759
 3521W        W21045  15.769   7.979  15.117 -0.3405  0.0224  0.2173
 3522W        W21046  15.405  12.941   0.661  0.0086 -0.0712 -0.0040
 3523W        W21047   7.056  10.382  11.799 -0.0052 -0.0592 -0.0808
 3524W        W21048   6.040   2.877   5.058 -0.0792  0.0575 -0.0097
 3525W        W21049  16.763   7.452   1.441  0.3783 -0.1535 -0.0650
 3526W        W21050  11.808   0.553  13.964 -0.3831 -0.0853 -0.2727
 3527W        W21051  10.464  13.914  15.523 -0.0210 -0.1828 -0.0963
 3528W        W21052  11.979  14.379  13.088  0.0443  0.4616 -0.1788
 3529W        W21053   4.882   4.667   4.407  0.0823  0.4696  0.1083
 3530W        W21054  15.078   9.720   3.313 -0.1818 -0.1715 -0.1484
 3531W        W21055   0.671   5.761   2.923 -0.1218  0.0480 -0.1851
 3532W        W21056  10.361  17.363  12.418 -0.1626  0.2322 -0.2888
 3533W        W21057   5.262  12.825   3.357  0.7460  0.1359  0.0324
 3534W        W21058  11.808   2.684   2.651 -0.3265  0.0249 -0.3849
 3535W        W21059  15.302   2.751   5.072  0.0961  0.1485  0.0158
 3536W        W21060  13.213   5.716   2.512  0.0332  0.2919  0.1860
 3537W        W21061  17.431  13.413   1.233  0.0912 -0.2091  0.2139
 3538W        W21062   7.099   2.160   4.016  0.0528  0.0288  0.0722
 3539W        W21063   1.222  14.690   4.125 -0.2545  0.1060 -0.1811
 3540W        W21064  12.151  16.851  13.397 -0.1299 -0.2215 -0.0353
 3541W        W21065  10.645   0.070  15.277  0.1387 -0.0594  0.0797
 3542W        W21066  14.887  12.648   0.229  0.1603 -0.0923 -0.1106
 3543W        W21067  14.604  15.911   5.288 -0.1920  0.2016  0.0596
 3544W        W21068   3.558  15.705  15.621  0.2898  0.2532 -0.0409
 3545W        W21069   5.153  16.934  16.326 -0.2385 -0.3087  0.1679
 3546W        W21070  14.849   6.678   3.537  0.2515 -0.1971  0.2173
 3547W        W21071  11.766   8.773  11.513  0.1871  0.2549 -0.2620
 3548W        W21072   9.606   8.062   4.265 -0.1648  0.2493  0.0240
 3549W        W21073  15.612   7.180   4.532  0.2107 -0.0692 -0.3707
 3550W        W21074   1.750   4.120  12.859  0.1385 -0.4150 -0.0563
 3551W        W21075   9.220   9.532  16.366 -0.1544 -0.1304 -0.2735
 3552W        W21076   8.119  12.148   0.972 -0.2580 -0.1539 -0.1487
 3553W        W21077  15.316  13.961   2.541  0.2964  0.2801 -0.1817
 3554W        W21078   5.262  14.880  16.377  0.3325 -0.0788 -0.0334
 3555W        W21079   3.392   7.056  12.992 -0.1376 -0.1810 -0.3763
 3556W        W21080   4.623  15.407  13.610  0.0172  0.0924 -0.2986
 3557W        W21081  15.792  16.776   1.283 -0.1422  0.2006 -0.4238
 3558W        W21082   7.195   1.773  13.692 -0.2142  0.0222 -0.2073
 3559W        W21083   5.219  13.989   0.539 -0.2050  0.2933 -0.2460
 3560W        W21084   1.904   9.938  11.223  0.1044  0.3241  0.1609
 3561W        W21085   6.415  12.481   3.120 -0.0734  0.3110  0.0255
 3562W        W21086   3.622  11.902   3.586  0.0947  0.0327  0.0626
 3563W        W21087  12.620  16.683  11.316  0.1185 -0.0290 -0.0483
 3564W        W21088  10.011   8.201  11.763 -0.1090 -0.2712  0.0294
 3565W        W21089   3.964   9.449  12.250 -0.2797 -0.0282  0.1167
 3566W        W21090   6.469   1.762  16.357  0.0171 -0.0715  0.5055
 3567W        W21091   0.025   7.440  14.578 -0.1216 -0.0598 -0.2118
 3568W        W21092  11.371   1.895  14.867 -0.2395  0.0695 -0.0045
 3569W        W21093  15.791  14.738  14.009  0.1059 -0.1214 -0.4309
 3570W        W21094  17.954  14.667   0.720  0.1034 -0.0312  0.1051
 3571W        W21095  13.789   8.908   3.621 -0.1270 -0.0596 -0.1026
 3572W        W21096  12.113   3.473  14.564 -0.0244 -0.3291 -0.1532
 3573W        W21097   6.466   9.394   1.022  0.3292 -0.5255  0.1227
 3574W        W21098  16.113   8.860   1.267 -0.1569 -0.2306 -0.2137
 3575W        W21099   6.724   3.471   4.802  0.0619  0.0758  0.1752
 3576W        W21100   1.062   8.723  15.860  0.0216 -0.1052 -0.1818
 3577W        W21101   1.473   8.095   4.968  0.0616 -0.2643  0.0478
 3578W        W21102  11.957   2.152   0.538 -0.2912 -0.3530  0.0402
 3579W        W21103   8.780   4.858  13.866 -0.3157 -0.1939  0.1292
 3580W        W21104   8.024  11.140   1.477  0.3043 -0.1870  0.0638
 3581W        W21105  14.364  16.542  11.894 -0.1349  0.0348  0.1998
 3582W        W21106  17.117   1.658  12.848 -0.0693 -0.1008  0.1420
 3583W        W21107   6.038   4.960  14.366  0.1373 -0.2739  0.0695
 3584W        W21108   6.181   1.115  11.803 -0.0619 -0.0824 -0.0752
 3585W        W21109  16.010   9.318   2.403  0.2155  0.1944 -0.2134
 3586W        W21110  11.191   4.116   0.198  0.1756  0.0311  0.0686
 3587W        W21111   5.976   3.653   3.065  0.0325  0.1241 -0.0371
 3588W        W21112   1.184  12.410  14.372  0.1021 -0.3339  0.0048
 3589W        W21113  15.428  16.218  16.332 -0.0687 -0.0981  0.2641
 3590W        W21114   1.190  14.142   1.840  0.1035 -0.0454  0.0399
 3591W        W21115   6.284   2.235  13.464  0.0392  0.2607  0.1249
 3592W        W21116   3.839  11.488   3.743 -0.0257  0.1668 -0.0633
 3593W        W21117  16.242   2.498   3.336  0.0355  0.3623 -0.2925
 3594W        W21118  12.862  14.255  16.084 -0.1448 -0.1106 -0.1111
 3595W        W21119  11.705   6.442   0.735 -0.2400 -0.1925  0.2053
 3596W        W21120   3.383   0.143  11.512 -0.0974  0.1898 -0.2415
 3597W        W21121   7.674  10.441  13.906  0.0567  0.1880  0.1038
 3598W        W21122   3.081   3.915  12.299  0.0436 -0.1999  0.2350
 3599W        W21123  17.648  11.286   0.805  0.0102 -0.0558 -0.0078
 3600W        W21124  14.416   9.123   3.231  0.0961  0.1949  0.1223
 3601W        W21125   9.486  11.903  11.729 -0.4182  0.1518 -0.2366
 3602W        W21126   7.906  16.177  12.391  0.2406  0.3265  0.0713
 3603W        W21127   9.006   9.054  16.143  0.0571  0.1097  0.0799
 3604W        W21128  17.335   9.430   2.447 -0.2211  0.0365 -0.0294
 3605W        W21129   0.994  17.222  14.670 -0.1357 -0.1992 -0.1293
 3606W        W21130  14.889   2.165  11.792 -0.3581 -0.1792 -0.2063
 3607W        W21131   2.609   4.514  13.658  0.2515  0.1056 -0.0963
 3608W        W21132   5.811   3.519  14.005  0.1774  0.1942 -0.1501
 3609W        W21133  12.221   9.564  11.372 -0.1774 -0.0098 -0.1100
 3610W        W21134   1.811   7.975   3.086  0.0726  0.0905 -0.2718
 3611W        W21135  12.181  11.661   2.484 -0.1155 -0.0782 -0.0415
 3612W        W21136   3.897   1.220   5.342  0.3305  0.1009  0.2159
 3613W        W21137  10.159  11.278  13.627  0.2180  0.1902 -0.1777
 3614W        W21138  14.077   5.763  12.694 -0.2224  0.0357 -0.2046
 3615W        W21139  17.014   5.696   3.609 -0.0794 -0.0453  0.2538
 3616W        W21140  17.514  15.008   5.644 -0.2415 -0.0668 -0.2830
 3617W        W21141  11.080  12.802   1.488 -0.1270 -0.2156 -0.0999
 3618W        W21142   0.262   4.709   3.993 -0.0649 -0.1312  0.3267
 3619W        W21143   4.374  16.709   1.385 -0.1598 -0.1645  0.0705
 3620W        W21144   1.860  14.828  16.257  0.0204 -0.2405  0.1573
 3621W        W21145   5.121   2.144   5.420 -0.0434  0.2250 -0.0350
 3622W        W21146  14.452  14.220   0.399  0.0237 -0.0458  0.0037
 3623W        W21147   3.208   9.933   1.162 -0.3419  0.2161  0.1246
 3624W        W21148  16.613  17.511  14.316 -0.0163  0.1841 -0.0475
 3625W        W21149   1.315   9.575  13.059 -0.0415  0.0108 -0.0423
 3626W        W21150   9.000   3.107  14.202  0.0982 -0.2479 -0.0490
 3627W        W21151   4.479  12.366   1.307 -0.0087  0.1777  0.0843
 3628W        W21152   5.428   3.753   4.131 -0.2251 -0.0345 -0.1110
 3629W        W21153  15.799  15.397  15.157 -0.3049 -0.1940  0.1771
 3630W        W21154  15.103   9.579   2.675  0.0733  0.0987 -0.6214
 3631W        W21155   2.002   0.512  16.272 -0.0853 -0.1971  0.0137
 3632W        W21156  12.874   2.499  15.054 -0.1562 -0.0297 -0.1217
 3633W        W21157   8.563   1.665   2.601  0.2698 -0.1291  0.2115
 3634W        W21158   9.449   0.963   2.736  0.1518 -0.2086 -0.1991
 3635W        W21159  15.597  11.383   2.927 -0.1048 -0.0235 -0.0123
 3636W        W21160  13.857  17.664   1.948 -0.4248  0.3708 -0.2674
 3637W        W21161   3.577   6.035   4.011  0.1230  0.0623  0.2694
 3638W        W21162   4.298   9.854   3.900  0.0832  0.2334 -0.0888
 3639W        W21163   4.678  10.318  14.409  0.1104  0.0592  0.1109
 3640W        W21164   7.400   2.034   4.440 -0.1520 -0.2984 -0.0184
 3641W        W21165   5.046   7.995  16.436  0.0545  0.1257 -0.1333
 3642W        W21166   4.602  11.308  11.840  0.1944 -0.0133  0.5706
 3643W        W21167   5.715  10.647   2.015  0.1629  0.2832 -0.1527
 3644W        W21168  13.834  15.889  12.618  0.1324 -0.3275 -0.0229
 3645W        W21169   3.487  14.352   0.446  0.0247  0.1863  0.2858
 3646W        W21170  12.551  14.928  13.856 -0.0163 -0.0311  0.3916
 3647W        W21171  15.174  10.263   3.314 -0.2602 -0.0251 -0.0338
 3648W        W21172   0.109   3.282  14.896  0.2286 -0.0032 -0.1636
 3649W        W21173   5.422   0.452  11.869 -0.1359  0.1905 -0.1043
 3650W        W21174   2.295   0.938   4.510 -0.1878 -0.1373 -0.0507
 3651W        W21175   9.470   9.652  13.797  0.3093  0.2711 -0.1754
 3652W        W21176  11.753  12.871   3.024  0.0252  0.1655  0.1208
 3653W        W21177   6.256  11.596   4.593 -0.0617 -0.1556 -0.2484
 3654W        W21178  17.936  11.780   4.209  0.2388 -0.0349 -0.0116
 3655W        W21179  12.411  11.399   2.862 -0.3232  0.3772  0.2843
 3656W        W21180   4.595  10.124   3.608 -0.1396 -0.2363  0.1592
 3657W        W21181   3.297   9.658  15.753 -0.1353 -0.3416 -0.1310
 3658W        W21182   0.742  16.671  10.799 -0.0329 -0.1864  0.1415
 3659W        W21183  10.887   1.143   1.984  0.0023 -0.4320 -0.1217
 3660W        W21184  15.530   7.866  15.541 -0.0286  0.0423 -0.0089
 3661W        W21185  15.316  15.844  13.783 -0.2393  0.1103 -0.0144
 3662W        W21186   9.418   3.521   3.290  0.1363 -0.2075 -0.0758
 3663W        W21187  16.457   5.393  13.514  0.0413  0.5143  0.1900
 3664W        W21188  13.909  15.768   3.479  0.4665  0.0724 -0.3209
 3665W        W21189  17.487  17.000  15.274  0.2592 -0.3714 -0.1141
 3666W        W21190  12.634  11.298   1.125 -0.0318  0.3063 -0.0142
 3667W        W21191   3.295  17.445  14.947  0.0102  0.1276 -0.2190
 3668W        W21192   3.318   8.566   1.365 -0.1111  0.0883  0.0732
 3669W        W21193  12.911   0.677   4.074  0.2308 -0.1712 -0.2567
 3670W        W21194   5.462   4.487  13.855  0.1513 -0.1376 -0.1994
 3671W        W21195   9.216  16.340  13.906 -0.0975  0.1572 -0.1091
 3672W        W21196  16.448  16.798   3.724  0.3122  0.2049 -0.1260
 3673W        W21197  15.565  14.951   1.503  0.2452  0.2585 -0.0273
 3674W        W21198  12.308   9.477  15.349  0.0757 -0.1968  0.0031
 3675W        W21199  16.040  15.167  12.994 -0.0535  0.0075  0.1630
 3676W        W21200   3.328   4.705   0.499  0.3032 -0.2230 -0.3388
 3677W        W21201   6.276  16.994  14.833  0.0093  0.1237  0.1704
 3678W        W21202   2.243  12.076   3.072  0.0315  0.0705  0.2382
 3679W        W21203   2.226  17.805   1.773  0.2662  0.1468 -0.3536
 3680W        W21204  15.284  11.718   2.703  0.0696 -0.0013 -0.1345
 3681W        W21205  15.838  12.399  12.629  0.2350 -0.1696 -0.0039
 3682W        W21206   6.183  15.096  13.473  0.1615 -0.2230  0.1367
 3683W        W21207  14.741   0.290   1.913 -0.3239  0.2557  0.0640
 3684W        W21208   6.500   3.767   2.600  0.0166  0.0906  0.0625
 3685W        W21209  15.177   0.669  14.628 -0.0065 -0.0841  0.0057
 3686W        W21210   0.520   2.925  11.611  0.1677 -0.3299  0.3331
 3687W        W21211   9.134   4.595   4.959 -0.3310  0.0007 -0.3508
 3688W        W21212  17.194   0.298   1.098  0.2543 -0.2363  0.0749
 3689W        W21213  15.799  13.450   3.170  0.1874 -0.0755  0.2196
 3690W        W21214  17.443  12.632   0.823 -0.2776 -0.0582  0.6953
 3691W        W21215   3.119   0.876   2.926  0.1802  0.1406  0.0093
 3692W        W21216   1.338   0.690  12.226 -0.0467  0.0817 -0.2674
 3693W        W21217  13.535  12.093   2.899  0.4526  0.0570 -0.3748
 3694W        W21218  15.808   9.732  11.016 -0.1905  0.0237 -0.1345
 3695W        W21219  13.087   1.865   0.813  0.1402  0.3380  0.2699
 3696W        W21220  10.510   4.136   0.865  0.0538 -0.1343 -0.2006
 3697W        W21221   2.596  10.226   2.845 -0.0753  0.0632  0.0933
 3698W        W21222  15.390   8.636  14.713  0.2656  0.1963  0.0417
 3699W        W21223   3.165  12.023  13.284  0.0230 -0.0361 -0.0240
 3700W        W21224  15.414   8.254   1.269 -0.1043  0.0216 -0.0746
 3701W        W21225   4.343  17.506   3.885 -0.0522  0.1060 -0.2805
 3702W        W21226   1.049  13.577  12.150 -0.0552  0.1317 -0.1577
 3703W        W21227   3.202   6.638  12.103  0.0578  0.0319  0.0672
 3704W        W21228  14.096  17.123  11.380 -0.2757 -0.1692 -0.0783
 3705W        W21229  16.933   5.184  13.072 -0.3322 -0.3417 -0.3016
 3706W        W21230   7.300   9.071  13.448  0.2296  0.0452 -0.3163
 3707W        W21231   6.922   7.546   1.618 -0.0189  0.0897 -0.0776
 3708W        W21232  14.338  11.184  15.196  0.1733  0.0999  0.0243
 3709W        W21233   4.722   8.963   1.514  0.2417  0.0071  0.1985
 3710W        W21234  10.426  14.114   1.170  0.2226  0.0487 -0.1358
 3711W        W21235  12.073   6.585  14.670  0.1823 -0.1240  0.1979
 3712W        W21236   2.992  14.465   0.864  0.2193 -0.1899 -0.2137
 3713W        W21237  10.058  15.423   2.672 -0.4793  0.0433 -0.4052
 3714W        W21238  15.340   1.809   4.468  0.1602  0.2098  0.3261
 3715W        W21239  12.526   7.743   0.824 -0.4229 -0.3897 -0.1206
 3716W        W21240   9.285  11.741  15.544 -0.0500  0.1322 -0.0708
 3717W        W21241   8.937  11.938  14.198 -0.1840  0.1778  0.3783
 3718W        W21242  15.767  12.762  15.178  0.2041  0.1701 -0.1594
 3719W        W21243   2.946   5.409  11.468  0.0843  0.1720  0.0851
 3720W        W21244  10.527   5.358  15.937 -0.2369  0.2223 -0.0202
 3721W        W21245  11.019  13.648   0.632 -0.0228  0.1452  0.1037
 3722W        W21246   0.264   2.392  15.051  0.1776 -0.0751  0.1589
 3723W        W21247  12.523  12.696  11.708  0.1178  0.0822 -0.3934
 3724W        W21248   1.187   7.835  16.270  0.0441 -0.2211  0.0420
 3725W        W21249   1.302   7.033  13.143 -0.0674  0.0425 -0.0425
 3726W        W21250  14.733   5.465  13.750 -0.1289 -0.0169 -0.2215
 3727W        W21251  12.295  16.548  16.156  0.1256  0.2469 -0.1372
 3728W        W21252   5.121  15.670  15.557 -0.1036 -0.0366  0.1416
 3729W        W21253   1.120   5.433   3.840  0.0191  0.2291  0.0817
 3730W        W21254  14.217   8.002  14.597  0.2358  0.0798  0.0860
 3731W        W21255   2.000  17.294   2.715  0.1209  0.2287 -0.0936
 3732W        W21256   4.928  15.685   4.681 -0.0179  0.1461 -0.2682
 3733W        W21257   2.029   9.713  13.543  0.0388 -0.1799  0.3007
 3734W        W21258  15.869   7.491  15.334  0.0220  0.1247 -0.1038
 3735W        W21259   4.421   2.830  11.859 -0.2796 -0.0488  0.1602
 3736W        W21260   3.135   5.748  14.897 -0.0312  0.0818  0.4142
 3737W        W21261   3.280   7.610   1.287  0.2254 -0.1136 -0.0055
 3738W        W21262  14.064   3.238  11.429 -0.0641 -0.0980 -0.3871
 3739W        W21263  17.857   9.174  14.054  0.2041 -0.0901  0.2187
 3740W        W21264  11.227  13.994   3.425 -0.0474 -0.0155 -0.3492
 3741W        W21265   2.632  14.612   1.252 -0.3538 -0.0528 -0.1012
 3742W        W21266  15.433   9.232   2.339 -0.2064 -0.0995 -0.1519
 3743W        W21267   8.510  14.879  14.670 -0.0850  0.0988 -0.2489
 3744W        W21268  15.157  10.433  11.389 -0.0758 -0.1380  0.2249
 3745W        W21269   9.261   8.863   3.768  0.1163 -0.0183  0.2114
 3746W        W21270   1.483   8.946   2.513  0.0819  0.0977 -0.0482
 3747W        W21271   5.126   8.233   2.567  0.2851 -0.0761 -0.0897
 3748W        W21272   5.903  16.298   1.246  0.2156 -0.2443  0.0555
 3749W        W21273   4.792  17.516   1.967 -0.1720  0.1077 -0.0714
 3750W        W21274  16.307   4.959   4.065  0.2585  0.0650 -0.2474
 3751W        W21275   2.053   4.770   4.459 -0.2558 -0.0708  0.2507
 3752W        W21276  10.518  16.032   1.384  0.2542  0.1230 -0.0558
 3753W        W21277   0.953   0.200  12.038  0.3352  0.0578  0.1680
 3754W        W21278  11.535   5.399   0.031 -0.0134 -0.0662 -0.0174
 3755W        W21279   6.923   8.355   0.458  0.2475 -0.0988  0.2342
 3756W        W21280  10.456   8.396   4.663  0.1862  0.1622 -0.2915
 3757W        W21281   5.559   1.084   1.263  0.0984 -0.2825 -0.0728
 3758W        W21282   3.618   0.097  16.386 -0.1153 -0.2360 -0.2726
 3759W        W21283   2.724   1.615   0.208 -0.1160 -0.1590 -0.0962
 3760W        W21284   6.551   8.580  14.257  0.0851 -0.2021 -0.0656
 3761W        W21285   2.941  13.746   4.273 -0.0960 -0.1273 -0.3750
 3762W        W21286   2.990   0.687  15.186  0.0516  0.0527 -0.2203
 3763W        W21287  14.081   3.871   2.799  0.2251  0.2149  0.3608
 3764W        W21288  17.288   1.751   4.756 -0.3784  0.0904 -0.2004
 3765W        W21289   0.696  13.699   1.119  0.0385 -0.1216 -0.1026
 3766W        W21290  10.261   4.165  15.319 -0.4129 -0.0952 -0.1740
 3767W        W21291  17.201   4.819   4.812  0.1302 -0.0633  0.0427
 3768W        W21292   7.199   1.530  12.310  0.0990 -0.2414 -0.0829
 3769W        W21293  14.996   5.578  13.002  0.0637  0.1568 -0.0476
 3770W        W21294  10.362  13.415   1.646  0.0858  0.0923 -0.1491
 3771W        W21295   1.683  13.512   0.188  0.0900 -0.1020 -0.0032
 3772W        W21296   1.185   5.140   4.374  0.0201 -0.0161 -0.1858
 3773W        W21297  14.027   9.342  16.390 -0.1998 -0.0470 -0.3002
 3774W        W21298  10.265   1.359  13.803 -0.0622 -0.1444 -0.0824
 3775W        W21299   3.524  13.974  13.604 -0.0171 -0.1442  0.1718
 3776W        W21300   5.882  11.411   5.386 -0.1948 -0.3806  0.2875
 3777W        W21301  12.324  13.470   2.475  0.1107  0.1468  0.2130
 3778W        W21302   4.784  16.094  16.336 -0.0847  0.0725  0.1636
 3779W        W21303  16.461   2.220   2.956 -0.0507 -0.4094 -0.2380
 3780W        W21304   1.590  12.614   5.733 -0.1673  0.3281 -0.1465
 3781W        W21305  16.738  17.826  15.824 -0.2382 -0.0337 -0.1819
 3782W        W21306  12.019  15.218   3.738 -0.2469 -0.1402  0.1535
 3783W        W21307  10.773   6.164  12.202 -0.1584 -0.1379 -0.2769
 3784W        W21308   7.251   1.064   0.378 -0.0730  0.0943  0.0944
 3785W        W21309   3.770   5.471   2.756 -0.1258  0.2582  0.1365
 3786W        W21310  14.880  13.362  13.998  0.0868 -0.1119  0.0223
 3787W        W21311  16.351   1.036  15.522  0.0523  0.0710 -0.0024
 3788W        W21312   0.043   8.159  12.454  0.2480  0.0866  0.0423
 3789W        W21313   9.423   8.689  12.510  0.0272  0.2008  0.5035
 3790W        W21314  11.616  12.691  13.320  0.2873  0.1310 -0.0783
 3791W        W21315  12.359   2.284   0.287 -0.0922  0.1944  0.0306
 3792W        W21316   9.311   6.899   1.449 -0.1701  0.2025 -0.0041
 3793W        W21317  15.856   2.686   3.710 -0.0686 -0.1232 -0.0553
 3794W        W21318   5.587   3.741  13.138 -0.2406 -0.1951 -0.0437
 3795W        W21319   7.011  17.675   1.085 -0.3306 -0.2857 -0.0458
 3796W        W21320   6.777   3.098   3.779  0.1494  0.0868  0.1552
 3797W        W21321  13.619   3.170   2.297  0.1839  0.1843 -0.2158
 3798W        W21322  16.144   1.844  16.339  0.1657 -0.1823 -0.1108
 3799W        W21323   7.502  16.115   1.644 -0.1110  0.2035  0.0017
 3800W        W21324   1.575  15.430   2.944 -0.1078  0.1334  0.0650
 3801W        W21325   3.533  15.432  12.903  0.2677 -0.1619 -0.1589
 3802W        W21326   2.542   7.684   3.240 -0.1802 -0.1128  0.3718
 3803W        W21327   0.768   5.992   5.217  0.3255 -0.0833 -0.1038
 3804W        W21328   8.716   8.489   2.123 -0.1301  0.0371  0.1334
 3805W        W21329   6.529  14.263   1.135 -0.0620 -0.1274 -0.0627
 3806W        W21330  16.454  12.792   2.618 -0.0863 -0.0416  0.2185
 3807W        W21331  11.684   3.580  12.473  0.0275  0.1573 -0.3497
 3808W        W21332   5.161  15.181  15.965  0.0161 -0.0937  0.4075
 3809W        W21333   4.728  16.353  12.926  0.1856 -0.0107  0.0724
 3810W        W21334   2.638   7.678   2.434  0.0141 -0.1961  0.0413
 3811W        W21335  14.578   9.332   0.825  0.1178 -0.1827 -0.2225
 3812W        W21336   4.091  15.947  12.329  0.0898  0.4833  0.2438
 3813W        W21337  11.148  10.023  15.122 -0.2690  0.1912 -0.2830
 3814W        W21338   5.223   6.703   3.427 -0.1283 -0.2331 -0.0714
 3815W        W21339  10.917  11.563   0.128  0.0480 -0.0249  0.2874
 3816W        W21340   9.928  10.524  13.982 -0.4307  0.1055 -0.0930
 3817W        W21341  11.661   0.691  13.464  0.0735  0.0979 -0.1213
 3818W        W21342  11.566   3.559   0.114 -0.1860 -0.1129  0.0267
 3819W        W21343  11.419   1.951   2.771 -0.2484  0.0836 -0.1997
 3820W        W21344   3.117   0.499  12.340 -0.1491  0.0759 -0.0873
 3821W        W21345  13.711  17.803   0.958  0.2498  0.0740 -0.1533
 3822W        W21346   0.024  15.499   3.304 -0.1634 -0.4993  0.4328
 3823W        W21347   5.111   2.210  14.245  0.0604  0.0260  0.1337
 3824W        W21348  12.897  14.797  14.175  0.0356  0.1022 -0.1109
 3825W        W21349  13.299  11.429  11.086 -0.1553 -0.0511  0.0198
 3826W        W21350   1.489   5.965   2.526  0.1461 -0.0886 -0.0657
 3827W        W21351  17.662   0.485   5.616 -0.0654 -0.1866  0.0287
 3828W        W21352   1.958   4.077   5.205 -0.0444  0.2771  0.1720
 3829W        W21353  13.631   4.239   0.150 -0.0299 -0.0532  0.1810
 3830W        W21354  17.863   1.430  12.361 -0.1496 -0.2140 -0.1475
 3831W        W21355   5.926   1.509   2.771 -0.2105  0.0985  0.1129
 3832W        W21356  10.213  10.377  12.289 -0.0138  0.1061  0.1958
 3833W        W21357   1.057  17.323   3.789  0.0294  0.3909  0.0308
 3834W        W21358   8.563   6.863   2.388 -0.1241  0.2445  0.1803
 3835W        W21359  11.871   0.473   2.024  0.2718  0.0575 -0.0574
 3836W        W21360   7.256  11.775   1.148  0.2303 -0.0127  0.1243
 3837W        W21361  15.609  10.390  11.076  0.0233  0.1716  0.0456
 3838W        W21362  17.295   1.132  12.269 -0.1191  0.0883  0.2596
 3839W        W21363  13.954  11.942  11.372  0.1555 -0.0157  0.1972
 3840W        W21364  14.417  13.764   1.742 -0.0474 -0.0677 -0.0577
 3841W        W21365  14.986   1.246  13.653 -0.1004 -0.0525 -0.0072
 3842W        W21366   9.015  12.791   2.770  0.1932 -0.0037  0.0839
 3843W        W21367  14.949  14.902   0.168  0.0835  0.1312 -0.1904
 3844W        W21368   4.824  10.613  15.556  0.1549 -0.0477  0.0397
 3845W        W21369   2.334  11.986   2.393 -0.0402 -0.0112  0.1862
 3846W        W21370   0.243   5.526   1.872  0.1427 -0.1645  0.3034
 3847W        W21371  13.599   4.134   3.689  0.0159  0.1115 -0.2262
 3848W        W21372   0.411   5.119  11.492  0.2160 -0.1999  0.0368
 3849W        W21373   6.089  11.330  12.947 -0.0066 -0.2531  0.1136
 3850W        W21374  10.674   3.332   4.638  0.0899  0.0500  0.0887
 3851W        W21375  10.725   4.268   2.809  0.1824 -0.0773  0.2502
 3852W        W21376   1.419   7.994  14.739 -0.0351 -0.0655 -0.2977
 3853W        W21377   6.346  14.115   4.544  0.0550 -0.0160  0.0849
 3854W        W21378  15.830   8.993   0.290  0.0422 -0.1050 -0.1164
 3855W        W21379  14.721   7.151  13.710  0.0471  0.2786 -0.2415
 3856W        W21380  17.787  12.880   4.699 -0.1991  0.0903 -0.1570
 3857W        W21381   2.787   3.602   4.060  0.1753  0.0368  0.0155
 3858W        W21382   5.432  12.199   0.120 -0.1802  0.0068 -0.2206
 3859W        W21383  16.187  13.982  11.589  0.0333  0.2849  0.0031
 3860W        W21384   4.210  12.934  14.226  0.1463  0.0756 -0.1196
 3861W        W21385   9.855  16.590   1.145  0.1140  0.0933 -0.2860
 3862W        W21386  15.605  16.688   2.586  0.1885 -0.1388  0.1686
 3863W        W21387   8.441  12.456  12.078  0.1259  0.0072  0.2479
 3864W        W21388   4.804  16.906  14.766 -0.2743  0.1320 -0.0423
 3865W        W21389  17.961   1.706   2.163 -0.1452 -0.1562 -0.1171
 3866W        W21390  13.550  13.236  14.824 -0.0378  0.1139  0.0793
 3867W        W21391   5.257   3.291   2.411 -0.2072  0.1904 -0.0929
 3868W        W21392  15.429  11.638   4.468 -0.1998  0.3612  0.1322
 3869W        W21393   8.051   4.327  11.551 -0.0845 -0.2232 -0.1602
 3870W        W21394   1.245  10.509  14.420 -0.1074 -0.1320  0.1516
 3871W        W21395   4.788   7.091  15.703  0.0484 -0.1379  0.2173
 3872W        W21396  16.049   4.528   0.982  0.0304 -0.1249  0.2015
 3873W        W21397  10.643   7.803   2.069 -0.2439  0.0429 -0.4456
 3874W        W21398   3.362  17.675   0.850 -0.2497  0.2666 -0.1870
 3875W        W21399  11.240  13.633   1.524  0.0809  0.1275  0.1964
 3876W        W21400   7.612   1.010  15.840  0.1002  0.0264 -0.3370
 3877W        W21401  14.949  17.323  15.510  0.0617 -0.2490  0.0790
 3878W        W21402   9.797  13.582  12.557  0.0392  0.2035  0.1052
 3879W        W21403  10.753  14.898   2.579  0.0633 -0.1428  0.0683
 3880W        W21404  13.984   3.734  14.900  0.0165 -0.0116  0.2283
 3881W        W21405   8.259   4.535  15.152 -0.2264 -0.3258  0.1272
 3882W        W21406  15.330   0.122   3.521 -0.0441 -0.1587 -0.0339
 3883W        W21407  12.000  15.462   1.018  0.0370 -0.2741  0.0861
 3884W        W21408   1.709   7.965  16.369 -0.1030  0.1458  0.0149
 3885W        W21409   4.211   8.565  12.264 -0.1420 -0.4236  0.0507
 3886W        W21410   0.986  15.437   4.328 -0.1723  0.3685  0.1634
 3887W        W21411   5.826  11.343   2.765  0.0249  0.1496  0.1102
 3888W        W21412   2.013   7.137  12.921  0.4040  0.1552  0.2712
 3889W        W21413  15.894   4.616  14.955 -0.0250  0.2134 -0.1118
 3890W        W21414   6.399   1.279   1.750  0.3079  0.1592  0.3560
 3891W        W21415  16.389  13.914  11.136 -0.0162 -0.1298  0.1946
 3892W        W21416   5.615   5.897   3.749 -0.1912 -0.0398 -0.1211
 3893W        W21417   4.158   7.198  16.242 -0.0268  0.1239 -0.0423
 3894W        W21418   9.525   7.909  12.336 -0.3055  0.2118  0.2936
 3895W        W21419   7.770   6.534  11.645  0.0568  0.0673  0.0020
 3896W        W21420   7.813   8.591   0.344  0.2461 -0.2773  0.2813
 3897W        W21421  11.992   2.025  15.980 -0.0003  0.2155 -0.1083
 3898W        W21422  11.702  15.374   2.211  0.0969  0.1223 -0.1318
 3899W        W21423  10.819   8.315   2.147 -0.0805 -0.1136 -0.1039
 3900W        W21424   8.441   7.791   4.777  0.3679  0.0705 -0.3626
 3901W        W21425  15.320   2.304  14.303 -0.1461 -0.3990 -0.3969
 3902W        W21426   5.094   2.703   3.606  0.0729  0.3061 -0.1668
 3903W        W21427   3.422   3.012  12.323  0.0724  0.0846 -0.1254
 3904W        W21428   4.510   6.130   4.276  0.0805  0.1631  0.2328
 3905W        W21429  13.341   8.155   5.309  0.0792 -0.1508  0.2059
 3906W        W21430   5.907   7.436   0.233  0.5958  0.0072 -0.5499
 3907W        W21431   0.087   1.001  11.230 -0.2424  0.1496  0.2172
 3908W        W21432  12.512   6.226  13.853  0.1501  0.4561  0.2397
 3909W        W21433   9.710  14.465   5.636  0.2376  0.0406  0.1526
 3910W        W21434   4.351   0.789  15.710  0.1136  0.0478 -0.0889
 3911W        W21435  17.253   0.234   0.440 -0.1181 -0.1937  0.3751
 3912W        W21436   3.108   7.750   2.597  0.0487 -0.3732 -0.0279
 3913W        W21437  13.186   5.721   3.985  0.0961  0.0785  0.0418
 3914W        W21438  11.279   2.429  11.088 -0.3507  0.1521  0.0844
 3915W        W21439   4.998   9.207   2.549 -0.4515  0.0559 -0.3087
 3916W        W21440   2.214   3.087   2.426  0.0969 -0.0131  0.0742
 3917W        W21441  12.077  17.112   5.772  0.0286  0.2810  0.2451
 3918W        W21442   2.740   0.409  12.666  0.2350  0.5849 -0.1218
 3919W        W21443  15.411   1.850  12.361 -0.0963 -0.3271  0.1364
 3920W        W21444   5.715  10.128  10.915  0.1821 -0.1089 -0.2237
 3921W        W21445  16.200  10.452  12.348  0.0543  0.3720  0.2098
 3922W        W21446   8.599  10.853   0.172 -0.2676  0.1678  0.0133
 3923W        W21447  11.106   5.854  13.795 -0.1136 -0.0182  0.0324
 3924W        W21448  13.604  15.702   1.880 -0.1504  0.0992  0.3767
 3925W        W21449   5.067   7.216   3.343  0.3041 -0.0208 -0.0423
 3926W        W21450   5.396   8.397   4.822 -0.3750 -0.1152  0.0741
 3927W        W21451   2.323   9.534   2.566  0.0177 -0.0624 -0.1558
 3928W        W21452  17.700  15.604   1.103  0.1620 -0.1544  0.2111
 3929W        W21453  17.369  16.283  12.258  0.0150 -0.2107  0.0512
 3930W        W21454  16.181   3.876  12.663 -0.0630 -0.0383 -0.1252
 3931W        W21455  12.978   3.904  12.819 -0.2766  0.1079  0.1061
 3932W        W21456   7.455  15.815  14.212  0.0189  0.0985  0.3327
 3933W        W21457  13.890  12.858   2.565 -0.0237  0.0097  0.0552
 3934W        W21458   6.216   8.192   3.489  0.2096 -0.2095  0.1959
 3935W        W21459  11.444   6.300  13.780 -0.1726  0.2216 -0.2237
 3936W        W21460   0.131  12.321  14.395 -0.0094 -0.1413  0.2134
 3937W        W21461   0.580  13.989   3.076  0.0028  0.0984 -0.1040
 3938W        W21462   5.547  14.877  11.892 -0.1773 -0.1977 -0.1513
 3939W        W21463   4.801   4.773  12.843  0.1052 -0.1841 -0.0120
 3940W        W21464   5.507   4.190   4.971  0.0719  0.0384  0.0347
 3941W        W21465   7.711   4.390  11.180 -0.2263  0.0082  0.0231
 3942W        W21466  11.721  11.156  14.335 -0.2114 -0.3663 -0.0943
 3943W        W21467   5.535  13.194  12.907 -0.1858  0.0325 -0.0051
 3944W        W21468   2.009   3.315  14.477 -0.0998 -0.1986 -0.3064
 3945W        W21469   3.896   7.652   0.644  0.0931  0.1959 -0.0595
 3946W        W21470   5.949  13.464  13.623 -0.1044  0.1149 -0.1756
 3947W        W21471   9.097  11.879  13.643 -0.0470  0.1827  0.0573
 3948W        W21472   6.893  11.026  14.839  0.1947  0.2250  0.0187
 3949W        W21473   2.747  12.707  16.217 -0.2221  0.3166  0.1287
 3950W        W21474  16.947  17.549  12.364 -0.0223 -0.0804  0.1092
 3951W        W21475   7.043  17.141  12.860  0.1089 -0.0999  0.0558
 3952W        W21476  16.664   7.568   4.809 -0.4217  0.3144 -0.1241
 3953W        W21477   3.732  13.223  15.167 -0.0066  0.0595 -0.2376
 3954W        W21478   8.666  17.702   1.340 -0.1723  0.1129  0.2719
 3955W        W21479   6.261   3.627   4.922 -0.0540 -0.3021 -0.0097
 3956W        W21480  15.908   0.427   0.687 -0.0450 -0.3185 -0.0653
 3957W        W21481   0.017   7.001  11.134  0.0255 -0.2437 -0.3151
 3958W        W21482   0.444  12.868  13.186  0.2614 -0.0218  0.3103
 3959W        W21483   2.278   5.902  12.758  0.0597 -0.1884  0.1146
 3960W        W21484   6.947  10.013  14.241 -0.1091  0.0428 -0.1416
 3961W        W21485  16.572   6.169  11.767 -0.3034  0.2048  0.1560
 3962W        W21486   6.397  17.669   1.694  0.0595  0.0340  0.0645
 3963W        W21487  11.892  11.189   2.361 -0.2289 -0.1708  0.1893
 3964W        W21488  10.367  17.359   3.804 -0.1150  0.3751  0.4452
 3965W        W21489  14.452  12.020  10.547 -0.0418 -0.4601 -0.1307
 3966W        W21490  16.027  14.959  14.416 -0.1582 -0.0810 -0.1018
 3967W        W21491   3.528   5.592   6.090  0.0075  0.0100  0.0979
 3968W        W21492   8.678   0.623   2.317  0.3632 -0.1943 -0.3960
 3969W        W21493  11.460   3.276   3.383  0.0484  0.0193 -0.0690
 3970W        W21494  11.080   7.618   0.200 -0.1434 -0.0523  0.3564
 3971W        W21495  10.190   8.211   0.020 -0.1246  0.4891  0.1397
 3972W        W21496   9.229   1.374   0.800  0.0971  0.1425  0.1152
 3973W        W21497  16.523   5.649  11.693 -0.1231 -0.1664  0.0274
 3974W        W21498  11.627   6.318  11.274 -0.0944 -0.3063  0.2412
 3975W        W21499   9.589   5.333   0.878  0.4976  0.2282  0.1405
 3976W        W21500  13.065   6.957   3.821  0.0917  0.0122 -0.2292
 3977W        W21501  10.196  16.986   1.061  0.0190  0.1280  0.0268
 3978W        W21502  14.962  10.836  16.328 -0.2301  0.1267 -0.1463
 3979W        W21503  11.226  13.722   4.493 -0.1605  0.1384  0.1053
 3980W        W21504   1.646  11.806   4.471  0.4981  0.1629 -0.0497
 3981W        W21505   0.976   5.916  14.803  0.2307 -0.0270 -0.0601
 3982W        W21506  10.660  16.183  13.567 -0.0415  0.1359  0.1689
 3983W        W21507   2.562   2.949  14.103  0.1442 -0.0928  0.0168
 3984W        W21508   0.683  13.191   4.753 -0.0947  0.1584 -0.0728
 3985W        W21509  16.383  16.864  12.511  0.1802 -0.0371 -0.1325
 3986W        W21510   8.335  10.950   1.131  0.0467  0.0747 -0.2912
 3987W        W21511  15.339  16.233  14.053 -0.0627 -0.0427  0.0851
 3988W        W21512  14.106  17.543   0.369 -0.2990  0.0650 -0.0865
 3989W        W21513   6.147  15.655   0.710 -0.0104  0.0328 -0.2346
 3990W        W21514  14.642   2.967  16.375  0.0331 -0.0367  0.0447
 3991W        W21515   9.297   2.525  12.789 -0.1214 -0.1884 -0.0820
 3992W        W21516   5.610  11.424   0.743  0.1716 -0.4342  0.1498
 3993W        W21517   0.411   8.133  16.235 -0.3717  0.1316 -0.2920
 3994W        W21518   3.768  17.156  14.954 -0.2866  0.2062  0.1230
 3995W        W21519   9.470  10.125   3.945  0.1286  0.2430  0.0230
 3996W        W21520  15.930  15.818   3.504 -0.0240 -0.0030 -0.0779
 3997W        W21521   2.488  11.166   3.045  0.1004 -0.1971  0.0875
 3998W        W21522   2.735   7.655  10.401 -0.3526 -0.1921  0.0785
 3999W        W21523   9.479   5.928  12.015  0.0391 -0.1706  0.2305
 4000W        W21524   2.849  17.643  15.642 -0.3255  0.1640 -0.1206
 4001W        W21525  12.105   2.977  12.099  0.2961 -0.2741  0.0975
 4002W        W21526   9.973   0.048   3.322  0.1696  0.1917 -0.3383
 4003W        W21527  17.564  14.363   0.447 -0.2051  0.2830  0.1309
 4004W        W21528  15.245  15.818  16.039  0.3538 -0.1322 -0.0001
 4005W        W21529  14.078   6.699   4.663 -0.0305 -0.0104  0.0412
 4006W        W21530   9.749   6.341  14.679 -0.2994  0.2150 -0.2687
 4007W        W21531   0.891   2.675  16.230  0.1855  0.1179  0.0957
 4008W        W21532  14.782  11.549   2.767  0.0807  0.0030 -0.1385
 4009W        W21533  11.042  15.675  12.021  0.1891  0.1673 -0.0323
 4010W        W21534  16.113   7.422   2.158 -0.1862  0.1034  0.0367
 4011W        W21535  12.880  10.604  15.086 -0.3783 -0.1546 -0.2537
 4012W        W21536   5.590   3.454  12.706  0.0235  0.1233  0.2412
 4013W        W21537  16.233   6.783  16.346 -0.0901  0.1039 -0.1861
 4014W        W21538   5.929   4.503  11.437  0.1054 -0.1511  0.0549
 4015W        W21539  17.490   7.257  16.292  0.0108  0.0343 -0.0490
 4016W        W21540   4.129   5.408   0.956 -0.0289  0.2187 -0.2000
 4017W        W21541  17.806   9.626   4.278 -0.2413 -0.1407 -0.0590
 4018W        W21542   7.380   5.564  14.076 -0.1879 -0.2569  0.0299
 4019W        W21543   3.064   1.750  13.045 -0.0538  0.0505 -0.1324
 4020W        W21544   8.057   6.435   3.211  0.1913  0.1297 -0.2118
 4021W        W21545  10.704   0.578   1.904 -0.2994 -0.1004 -0.5363
 4022W        W21546   5.535  17.372   5.092  0.0955  0.0602  0.0159
 4023W        W21547   3.932   8.554   3.927  0.1536  0.0035 -0.5303
 4024W        W21548   1.882  10.055  12.601  0.1129 -0.0867  0.2784
 4025W        W21549   2.812  12.771   1.914  0.1035 -0.1677 -0.1454
 4026W        W21550  17.782   4.246  15.323  0.3331  0.2992  0.0977
 4027W        W21551  12.995   4.864   3.482  0.0578 -0.1154 -0.1896
 4028W        W21552   5.317   9.501  11.493  0.0192  0.5546  0.2652
 4029W        W21553  13.478  16.442   0.910 -0.4813 -0.0721  0.0602
 4030W        W21554   7.073  11.568   2.951 -0.0716 -0.0560  0.0248
 4031W        W21555   3.678  15.548   0.449  0.1821 -0.0303  0.4548
 4032W        W21556   0.134   3.675   1.747  0.3061  0.6588  0.2135
 4033W        W21557  16.872  15.335   2.527  0.2176 -0.2224  0.2111
 4034W        W21558  16.912   6.761  12.650  0.1025 -0.1276  0.1465
 4035W        W21559   8.822  11.617  13.017 -0.1373 -0.0232 -0.0866
 4036W        W21560  17.758  14.853   3.518 -0.0210 -0.0866 -0.1564
 4037W        W21561   9.522   8.333  15.756 -0.2930  0.0737  0.1129
 4038W        W21562   2.381  10.875   1.862 -0.1354 -0.1315  0.3526
 4039W        W21563   0.171   3.514  15.720  0.1939 -0.2167  0.1550
 4040W        W21564   8.384  15.285   2.018  0.0306 -0.5635 -0.0671
 4041W        W21565  17.630  12.172   0.675 -0.0928  0.4775  0.0378
 4042W        W21566   3.642   1.920   3.853 -0.1943  0.2244  0.1852
 4043W        W21567   0.513  14.601  13.075 -0.3625  0.2518 -0.1934
 4044W        W21568   4.352  16.125   1.380  0.0584 -0.0346 -0.0876
 4045W        W21569   3.835  17.056   2.066  0.3118  0.0344 -0.1662
 4046W        W21570  11.060   3.534  13.564 -0.1310 -0.3580  0.0327
 4047W        W21571   7.915   6.408   4.808 -0.3106 -0.5024 -0.1516
 4048W        W21572  15.532  10.745  10.719 -0.2339 -0.0717 -0.0836
 4049W        W21573  11.380   9.388  12.925  0.0182  0.1959  0.0433
 4050W        W21574  17.168  11.835   0.376  0.0087 -0.0652 -0.1397
 4051W        W21575   6.526  14.169  11.848  0.1992 -0.1571  0.1118
 4052W        W21576   7.276  15.226   0.906 -0.1227  0.0948 -0.2744
 4053W        W21577  11.359   4.763  12.566 -0.1362 -0.0105 -0.1021
 4054W        W21578  12.090   2.474   3.559  0.1181  0.1765 -0.0977
 4055W        W21579   7.381   8.234  14.414  0.1501  0.0047 -0.2769
 4056W        W21580   8.538  14.670  15.527  0.1499  0.1340  0.0652
 4057W        W21581   9.105  15.783  15.534 -0.2531 -0.0344 -0.2664
 4058W        W21582  15.036   3.978  10.648 -0.0270 -0.1664  0.1692
 4059W        W21583   7.015   9.205  15.272 -0.0299 -0.3245  0.0565
 4060W        W21584   0.939  17.193  15.532  0.0605 -0.2600 -0.0814
 4061W        W21585  10.953   5.356   1.086  0.1294 -0.0186 -0.0681
 4062W        W21586  17.732  13.467   0.841  0.4405  0.1384 -0.0998
 4063W        W21587  12.313   6.618   1.082 -0.0717  0.0151  0.0038
 4064W        W21588  16.290   6.712  11.969 -0.0958  0.1893  0.0640
 4065W        W21589   7.892   7.329   0.155  0.1976  0.1665  0.0929
 4066W        W21590  10.212   7.780  15.929 -0.3065 -0.4855  0.3145
 4067W        W21591  11.685   1.915  12.824 -0.1938  0.2189  0.2019
 4068W        W21592  15.435   6.036  15.780  0.2229  0.2330  0.1276
 4069W        W21593  14.338  12.738  14.318  0.0487  0.0320  0.1832
 4070W        W21594   4.741   8.411  11.092 -0.2664  0.1447 -0.4084
 4071W        W21595   8.770   2.611  12.010  0.0150  0.0123  0.0641
 4072W        W21596   7.061  14.966   3.186 -0.0560  0.0145 -0.0921
 4073W        W21597  16.050  15.289   3.616  0.0882 -0.0225  0.2947
 4074W        W21598  10.405  11.447  14.057  0.2034  0.0912 -0.0528
 4075W        W21599  13.782   0.081  13.293 -0.1191 -0.1473 -0.0576
 4076W        W21600   0.464   1.454  12.740  0.0234 -0.0944  0.3437
 4077W        W21601  14.934  16.862   0.440  0.1170  0.1279  0.0431
 4078W        W21602  16.187   9.428   3.918 -0.0934  0.0224 -0.0660
 4079W        W21603  12.383  12.169   3.975 -0.0288  0.0402  0.0675
 4080W        W21604   6.338  12.230  13.146  0.1704  0.1150  0.2310
 4081W        W21605  15.270   6.563  15.017  0.2413 -0.0181 -0.0340
 4082W        W21606   8.251   6.419  10.420  0.1576  0.1447 -0.0386
 4083W        W21607   0.864  17.153   5.098 -0.0817  0.0428  0.0601
 4084W        W21608  16.274   1.094  11.477 -0.1725 -0.0630 -0.0481
 4085W        W21609   1.132   5.439  15.296 -0.2529  0.0867  0.0861
 4086W        W21610   1.216   6.698  13.490  0.3260 -0.0608  0.0397
 4087W        W21611  12.901  16.556  14.648  0.1454 -0.3668 -0.0414
 4088W        W21612  12.069   7.083   3.550  0.1181  0.2443  0.4492
 4089W        W21613   9.556  16.444  15.851  0.1330 -0.2074  0.1353
 4090W        W21614  14.610   2.704  14.588  0.3632 -0.0010  0.1526
 4091W        W21615  15.681   5.967   3.326 -0.2770 -0.1320  0.2041
 4092W        W21616  14.755  17.159  15.949  0.1544  0.2593  0.1196
 4093W        W21617  14.760   6.999   4.474 -0.0100 -0.2622  0.0279
 4094W        W21618   8.577   6.791   0.486 -0.3905  0.1580  0.2891
 4095W        W21619  14.967  15.192   3.904  0.0654 -0.2671  0.0960
 4096W        W21620  12.282  13.140   3.663 -0.2750  0.1243  0.1443
 4097W        W21621   0.154   7.266  12.717  0.3386 -0.2267  0.0733
 4098W        W21622   3.846   5.088  11.221  0.0845  0.1504 -0.0383
 4099W        W21623  13.866  14.538   3.079  0.0705 -0.2128 -0.0073
 4100W        W21624  14.486  10.452  12.288 -0.1584  0.1235  0.0595
 4101W        W21625  12.181   3.668  12.840  0.2514 -0.0969 -0.1608
 4102W        W21626   9.846   9.265  14.683  0.3634 -0.2058 -0.2049
 4103W        W21627  12.999  13.277  10.798 -0.1606 -0.0201  0.2308
 4104W        W21628   8.567  11.541   4.796  0.1048  0.2650 -0.1642
 4105W        W21629  15.693  10.737   2.396 -0.2910  0.1964  0.0831
 4106W        W21630   2.257   1.498   0.200  0.2267  0.1736  0.0340
 4107W        W21631  12.459   7.917  16.268 -0.1521  0.0764 -0.4903
 4108W        W21632  15.160  13.934  14.850  0.3911  0.0640  0.0306
 4109W        W21633   0.551  10.512  11.328  0.0384 -0.2414  0.0416
 4110W        W21634   6.985  16.157   6.023  0.0918  0.1079 -0.0004
 4111W        W21635  15.184   8.095  16.385  0.2295  0.2432  0.0634
 4112W        W21636  17.959   7.523  13.121  0.2147  0.2441 -0.2086
 4113W        W21637   2.276  14.517   2.650  0.0719  0.1896 -0.2269
 4114W        W21638   4.245  13.639   4.796  0.0530  0.0923  0.1595
 4115W        W21639   7.353   8.674  14.214  0.1548  0.0003  0.2622
 4116W        W21640   3.242   1.034   2.026 -0.1329 -0.2333  0.1210
 4117W        W21641   9.190   0.529  16.302  0.0876  0.1112  0.0147
 4118W        W21642   2.832   4.383   1.426  0.3472 -0.1670  0.2374
 4119W        W21643  13.817   0.155  15.972  0.1461 -0.0260  0.1359
 4120W        W21644  17.141   3.466   2.813  0.1871  0.0778  0.1756
 4121W        W21645   8.514   3.074   0.676 -0.1495 -0.0505 -0.1673
 4122W        W21646  15.638  12.847  12.782 -0.0249  0.2346  0.1984
 4123W        W21647   9.474  15.235   0.567 -0.0428  0.2402 -0.0136
 4124W        W21648  14.182  11.314  12.624  0.1776  0.0049 -0.1137
 4125W        W21649  17.608  10.341  16.175  0.2091 -0.3512 -0.0120
 4126W        W21650   3.356  17.370  13.998  0.1706 -0.0231  0.0130
 4127W        W21651   1.429  14.390   3.116  0.0008  0.0513 -0.1621
 4128W        W21652   6.116  12.955  15.777  0.0775  0.1311  0.0445
 4129W        W21653  17.593   0.701   0.331 -0.1282  0.3110  0.1510
 4130W        W21654   1.236  17.315  15.923 -0.0189 -0.1956  0.0245
 4131W        W21655  13.991   0.620   0.536  0.2713  0.0456  0.2477
 4132W        W21656   1.936   5.346  11.256 -0.0153 -0.3010 -0.0323
 4133W        W21657  10.473  10.810   0.605 -0.2229  0.0277  0.0615
 4134W        W21658   1.816   9.299  13.765  0.3177 -0.1368 -0.2867
 4135W        W21659  10.587   7.367   1.868  0.0065 -0.1554 -0.0381
 4136W        W21660   1.612   1.965  14.497 -0.0557  0.0305  0.0624
 4137W        W21661   5.251   3.357  13.058  0.0317  0.0268 -0.0725
 4138W        W21662   7.830  16.091  12.911 -0.1343  0.6518 -0.1932
 4139W        W21663   4.764  13.630  13.614  0.1078  0.1474  0.0177
 4140W        W21664  14.235   3.880   4.071 -0.1986  0.1134 -0.2373
 4141W        W21665  15.397  17.277   3.216  0.0436  0.0775  0.1685
 4142W        W21666   4.318   1.847   1.937 -0.0009  0.0927 -0.1466
 4143W        W21667  12.829  13.240   3.791 -0.2073 -0.3569  0.0486
 4144W        W21668  11.481   3.055  11.692  0.3383  0.0047 -0.1048
 4145W        W21669   0.274   9.724  12.896  0.0612  0.0597 -0.2690
 4146W        W21670   6.919   6.456   1.062 -0.0332 -0.0162  0.2616
 4147W        W21671   1.602   8.482   3.724 -0.2641  0.0558  0.0037
 4148W        W21672  17.677  14.246   2.887 -0.0307  0.3248 -0.1258
 4149W        W21673  15.476   1.988   1.497  0.0488 -0.0433 -0.2342
 4150W        W21674  10.160   2.903   3.138  0.1217 -0.0390 -0.2539
 4151W        W21675   3.773   4.644   0.318 -0.1170  0.0004 -0.4191
 4152W        W21676  17.270   2.983  14.409 -0.1258  0.2247  0.0986
 4153W        W21677   4.060  12.120   2.409  0.1006  0.2491  0.1633
 4154W        W21678   7.119  15.557  16.285 -0.3165 -0.1843 -0.1512
 4155W        W21679  13.603   9.061   1.644  0.2023  0.3147 -0.0717
 4156W        W21680   7.223   7.712  13.408 -0.0513 -0.1499  0.0106
 4157W        W21681  12.372   3.234  14.057  0.0746 -0.4609 -0.0610
 4158W        W21682   0.137  16.177   0.528 -0.2317  0.2035 -0.0209
 4159W        W21683  10.961  13.035   2.993  0.0528 -0.2392  0.3706
 4160W        W21684   8.523   8.717   2.677  0.1803  0.2404  0.2409
 4161W        W21685   5.101  16.870  15.197  0.1567 -0.3316  0.2560
 4162W        W21686  17.389   5.854  14.587  0.5960  0.1156  0.1683
 4163W        W21687  14.800  16.630  15.294 -0.3202  0.1642  0.1975
 4164W        W21688  12.333   5.319  14.973  0.2884 -0.1102  0.3384
 4165W        W21689   5.085  16.083  15.923  0.0303 -0.2753  0.0349
 4166W        W21690   0.437   3.753  13.054 -0.0032 -0.2216 -0.3319
 4167W        W21691  13.468  12.936  12.258  0.0035 -0.1277 -0.0031
 4168W        W21692  15.116   6.316   3.158 -0.1247 -0.1671 -0.1449
 4169W        W21693   6.558  14.934  12.916  0.2043  0.5648 -0.0483
 4170W        W21694   7.702  12.462   3.794  0.1643  0.1642 -0.0123
 4171W        W21695  17.291  11.851  11.240 -0.1303 -0.1042  0.1844
 4172W        W21696   2.763   4.286  11.304  0.3189 -0.0295 -0.2919
 4173W        W21697   8.274   4.464  12.272 -0.2384 -0.2642  0.1958
 4174W        W21698   8.775  17.820  13.645 -0.3260  0.2260 -0.0466
 4175W        W21699  13.448  14.284  12.212 -0.2443  0.0120  0.2910
 4176W        W21700   0.569  15.791   2.721  0.0915 -0.4149  0.0771
 4177W        W21701  16.226  10.642  11.826 -0.3001  0.1926 -0.1559
 4178W        W21702   4.361  11.446  13.177  0.0701  0.0511  0.2702
 4179W        W21703  14.078   1.224   2.739 -0.2072  0.2482  0.2036
 4180W        W21704   9.482  12.973   0.144 -0.1462  0.1577 -0.0617
 4181W        W21705   5.064  14.682  12.798  0.1394  0.2130 -0.0323
 4182W        W21706   3.806   9.806  14.198  0.0620 -0.2645 -0.0776
 4183W        W21707  10.583   9.199  10.905 -0.0380 -0.1483  0.3394
 4184W        W21708  17.965  14.651   4.526  0.4133  0.1314  0.1276
 4185W        W21709   5.065  12.500  12.853 -0.0098  0.3532 -0.1835
 4186W        W21710  16.875  12.256  12.646 -0.1869 -0.0495 -0.0852
 4187W        W21711   7.676   0.908   2.162 -0.3022  0.0932 -0.0775
 4188W        W21712   8.983  15.750   3.484 -0.1060 -0.0986 -0.1706
 4189W        W21713  15.077   8.845   2.409  0.1043 -0.0071 -0.2096
 4190W        W21714   8.112  10.265   5.303 -0.0895 -0.1047 -0.0427
 4191W        W21715   3.648   1.180   2.293 -0.2462  0.1989  0.4535
 4192W        W21716   1.201   3.159   1.883  0.1619 -0.1606 -0.3029
 4193W        W21717   1.064  10.625  13.526 -0.3976  0.0838  0.2049
 4194W        W21718  13.452   9.134  12.627 -0.0910 -0.1606  0.0018
 4195W        W21719  11.619   2.552  15.122  0.0112 -0.1129  0.0529
 4196W        W21720  13.680  15.967  15.764 -0.1047 -0.3312  0.0019
 4197W        W21721  17.327  16.371   5.330  0.2531  0.1225 -0.1178
 4198W        W21722   3.157   2.568   3.977 -0.3026  0.0048 -0.0394
 4199W        W21723  15.700   0.160  13.354 -0.1988  0.1630  0.1125
 4200W        W21724   3.627  16.828   1.634  0.1832 -0.0410  0.1223
 4201W        W21725  15.592  12.005  12.755 -0.0537  0.1361  0.0829
 4202W        W21726  14.399  14.045  13.016  0.1225 -0.1850  0.0288
 4203W        W21727   9.459   7.759   0.594 -0.2372  0.1381  0.0134
 4204W        W21728  12.612   0.493   0.616 -0.2573 -0.0009 -0.0479
 4205W        W21729   3.882   8.166  15.575  0.0120  0.0490  0.1051
 4206W        W21730   9.991  13.541  11.658 -0.0241  0.2616 -0.2281
 4207W        W21731  13.500   8.197   3.722  0.1637 -0.0387 -0.1250
 4208W        W21732   6.462  13.007  14.827 -0.0572  0.0540 -0.2189
 4209W        W21733  16.713  12.469   0.465  0.0871  0.2157 -0.0455
 4210W        W21734  17.631  11.184  11.377  0.1624 -0.0715  0.3705
 4211W        W21735   7.356   0.001  12.875 -0.0306 -0.0988 -0.0522
 4212W        W21736  16.116  11.598  12.069 -0.0852  0.2628  0.2624
 4213W        W21737  16.771  16.927  11.806  0.1058  0.1840 -0.1493
 4214W        W21738   6.711  14.133  13.412  0.0505 -0.4677 -0.0810
 4215W        W21739   5.354   2.805  14.190 -0.1016 -0.4841  0.1664
 4216W        W21740   9.895  14.035  11.682  0.2793  0.2140  0.1958
 4217W        W21741  15.189   8.592   4.574 -0.3452  0.0951 -0.1410
 4218W        W21742   6.909   5.214   2.804  0.1254 -0.4014  0.1084
 4219W        W21743   9.569  12.052  13.662 -0.2336  0.3945 -0.0920
 4220W        W21744  17.854  16.176  12.205  0.0544 -0.2378 -0.0018
 4221W        W21745   6.225   8.177   1.689 -0.0580  0.3375  0.2866
 4222W        W21746   3.722  13.817  12.783  0.1158  0.1862  0.1323
 4223W        W21747  17.034   3.331  15.960  0.0821 -0.0267 -0.2451
 4224W        W21748  11.327   4.493  14.512 -0.0526 -0.2595  0.2188
 4225W        W21749  17.533   7.084   2.318 -0.0939  0.3250 -0.1301
 4226W        W21750  16.338  15.162   2.265 -0.0917  0.1623  0.1534
 4227W        W21751   4.829  10.414   0.938 -0.0773 -0.1516  0.2060
 4228W        W21752   9.966   0.890   0.051  0.1660  0.0896 -0.2015
 4229W        W21753  13.420   9.588   2.522 -0.0641  0.0362  0.0259
 4230W        W21754   5.299   7.745  14.617  0.0939 -0.0923 -0.2389
 4231W        W21755  10.220   1.894  13.935 -0.0072 -0.1100  0.1821
 4232W        W21756   8.030   9.239   4.266 -0.3887  0.1182 -0.2238
 4233W        W21757  10.139   0.232  10.619 -0.1268  0.0997  0.2493
 4234W        W21758   8.688  16.744  13.513 -0.0904  0.2941  0.0869
 4235W        W21759  11.363  11.382   4.898  0.3418 -0.1860  0.2471
 4236W        W21760  10.064  15.856  16.270 -0.0199 -0.3996 -0.4464
 4237W        W21761   9.705   1.182  12.096 -0.2312  0.0195 -0.1425
 4238W        W21762   8.623  10.920   6.010 -0.0395  0.2247  0.0091
 4239W        W21763   3.429  10.168   3.193  0.1644 -0.2002 -0.1416
 4240W        W21764  14.412  15.335   1.941  0.2076  0.0128  0.0655
 4241W        W21765  13.017   8.368   3.644 -0.2356 -0.1652  0.2307
 4242W        W21766   4.100   7.652  13.651  0.1179  0.1691 -0.5397
 4243W        W21767  11.361   3.818  13.856  0.1372  0.0184 -0.0660
 4244W        W21768  15.791   3.186   1.397  0.1150  0.4585  0.0902
 4245W        W21769  16.016   0.770  12.776  0.1453  0.0574  0.2074
 4246W        W21770   5.211   9.811   4.658 -0.0945  0.0449  0.0135
 4247W        W21771  11.386  13.289   4.325 -0.1347  0.3011  0.1503
 4248W        W21772   6.385   2.207  12.932  0.1118  0.2385  0.2795
 4249W        W21773   3.375  14.904  15.193 -0.2135  0.0503 -0.1598
 4250W        W21774   6.219  13.905   3.787  0.0015 -0.2755 -0.0694
 4251W        W21775  13.600  14.914   3.575  0.2188 -0.0630 -0.1771
 4252W        W21776  12.642  12.107   3.486  0.1596  0.1508 -0.0605
 4253W        W21777   2.648   2.194   0.798 -0.0927 -0.1084 -0.0474
 4254W        W21778  13.371   4.374   2.723 -0.3264 -0.0821 -0.0879
 4255W        W21779  11.373   3.761   0.925  0.0479  0.0323 -0.1562
 4256W        W21780  11.131   1.972   0.036  0.0284  0.0356  0.0343
 4257W        W21781  13.721   8.012  14.404  0.4126  0.0773 -0.2754
 4258W        W21782   0.636  17.597  14.212  0.1963  0.1223  0.2704
 4259W        W21783  15.946  14.487   2.598  0.1297 -0.2425 -0.2104
 4260W        W21784  14.461  15.117   3.872 -0.0409  0.2205  0.0987
 4261W        W21785  13.851  11.403  14.377 -0.1151 -0.1855  0.1676
 4262W        W21786  16.673   6.712  10.971  0.2816 -0.0095 -0.0271
 4263W        W21787   5.346  15.630   4.377  0.1973 -0.2016  0.2696
 4264W        W21788  12.269  12.958   4.440  0.0683 -0.3343  0.0577
 4265W        W21789   5.808  14.739   2.110  0.0105  0.1203  0.1659
 4266W        W21790  12.073   6.300   2.151  0.1625 -0.0620 -0.1278
 4267W        W21791   4.925   4.345   3.769  0.1810  0.1803 -0.1510
 4268W        W21792   7.135  13.795  10.503 -0.3183 -0.0746  0.0914
 4269W        W21793  16.774  13.752  11.966  0.1913 -0.0029  0.0995
 4270W        W21794   6.901   4.371  15.144 -0.3709  0.1828 -0.1299
 4271W        W21795  16.686   2.360   1.502 -0.0115  0.0214 -0.0613
 4272W        W21796   5.750   2.065   1.698 -0.2096 -0.0872  0.1284
 4273W        W21797   7.441   8.256  11.955 -0.1385 -0.0025  0.0264
 4274W        W21798   4.928  10.810  12.945  0.1526 -0.3586 -0.1217
 4275W        W21799  15.897  16.320  13.990  0.0535  0.0923  0.1847
 4276W        W21800   6.735  17.922   2.802  0.2956  0.1230 -0.0014
 4277W        W21801  14.732   6.470  12.965 -0.1491 -0.0758  0.0454
 4278W        W21802  16.579  15.154  13.716  0.2839 -0.0517 -0.3010
 4279W        W21803  11.800  15.555   4.107  0.0841 -0.3042  0.0186
 4280W        W21804   6.207   9.805   1.072 -0.1412  0.0940 -0.0144
 4281W        W21805   3.624   5.803  14.664  0.1425  0.0122  0.0395
 4282W        W21806  11.314  15.530   5.150  0.1034  0.0475  0.1622
 4283W        W21807   3.075   1.243  13.040  0.4666  0.0737 -0.0775
 4284W        W21808   1.162   6.244  11.251 -0.1505 -0.0116 -0.1397
 4285W        W21809  14.485  16.858   5.265 -0.2138  0.0224  0.1954
 4286W        W21810  17.944   9.497   3.303  0.0793  0.1259  0.1904
 4287W        W21811  11.476  17.091  11.948 -0.0830 -0.3830  0.1763
 4288W        W21812  15.828   6.686  15.997  0.0283 -0.3372 -0.1790
 4289W        W21813  17.840   0.014   1.419 -0.3075  0.1540  0.1245
 4290W        W21814   4.078   5.917   2.194  0.1988  0.0804  0.1663
 4291W        W21815   3.261  10.078  16.094 -0.0969  0.0153 -0.0159
 4292W        W21816  17.844  10.160   4.553  0.0460 -0.1033  0.1885
 4293W        W21817   6.622  12.464  11.843 -0.0748 -0.0344  0.1914
 4294W        W21818  17.465   1.743  15.673  0.0140  0.1132 -0.0929
 4295W        W21819   7.322   8.704   0.413  0.0789 -0.1362  0.1143
 4296W        W21820  13.455  17.268   2.663 -0.0735 -0.1675  0.0694
 4297W        W21821   4.027   4.861  15.858  0.0904 -0.0806  0.1898
 4298W        W21822  12.659   5.645  12.180 -0.4031  0.0843  0.0017
 4299W        W21823  12.996   9.932  13.340  0.1215  0.1604  0.5482
 4300W        W21824  10.645  11.160  13.693  0.1657 -0.0470  0.1098
 4301W        W21825   2.308   1.300   5.029  0.1282 -0.6066  0.0901
 4302W        W21826  16.944   6.779  13.642  0.0012 -0.0891  0.1934
 4303W        W21827  17.683  16.600  14.276  0.2399 -0.0849  0.0094
 4304W        W21828  12.447  11.747  16.383  0.0293 -0.0029 -0.2615
 4305W        W21829   9.111   6.975   2.316  0.0368 -0.0564  0.1265
 4306W        W21830   0.747  11.901   0.716 -0.0028 -0.0530 -0.2124
 4307W        W21831  12.389   6.786  16.057  0.0844  0.0764 -0.2485
 4308W        W21832  14.773   4.695   5.066 -0.0240  0.0819 -0.0124
 4309W        W21833   1.358  12.263  13.677 -0.2159  0.1510  0.0809
 4310W        W21834   7.256  16.011   0.734 -0.0463 -0.2374  0.3445
 4311W        W21835  17.651   1.980   3.620 -0.3072 -0.3253  0.0452
 4312W        W21836  11.526   2.433   4.963  0.0312 -0.1463  0.0027
 4313W        W21837   1.251  10.460   0.208 -0.3648  0.2404 -0.1600
 4314W        W21838   2.256  15.293  12.223  0.1854  0.2783  0.3974
 4315W        W21839  10.195   9.455   2.484  0.2565  0.0601  0.3073
 4316W        W21840   2.847  13.762   1.151  0.0112 -0.1262 -0.1719
 4317W        W21841   2.563   0.482   1.328 -0.1990  0.3450 -0.2565
 4318W        W21842   6.583   3.809  14.523  0.0708 -0.2160 -0.3313
 4319W        W21843  14.495  15.215   0.143  0.0901 -0.0613 -0.1090
 4320W        W21844   6.743   1.878   2.366 -0.0141  0.1284  0.0901
 4321W        W21845   3.100   9.175  15.575 -0.1343 -0.1317  0.4178
 4322W        W21846   5.544  13.496   5.014  0.0287 -0.0598 -0.1271
 4323W        W21847   5.970   3.176   2.924 -0.1350  0.1632 -0.1694
 4324W        W21848  13.632   6.138   2.313 -0.0239  0.1317 -0.1364
 4325W        W21849  15.648   3.953  14.211 -0.0974 -0.2343  0.2459
 4326W        W21850   8.039   7.978   4.278  0.2830 -0.3119  0.0492
 4327W        W21851  10.545  12.767  14.178  0.1561  0.2801  0.3625
 4328W        W21852  10.694  13.168  12.255  0.1581 -0.0999 -0.1135
 4329W        W21853   2.181  15.935   3.512  0.2889 -0.0750  0.0174
 4330W        W21854   9.588   0.127   5.556  0.2268  0.0147 -0.1060
 4331W        W21855   5.992  10.132  15.186 -0.0344 -0.4317 -0.2463
 4332W        W21856  13.777   0.053  14.378  0.1154 -0.0221  0.1824
 4333W        W21857   1.700  11.084  16.256  0.2324 -0.0796 -0.1930
 4334W        W21858   3.120  11.461  15.451 -0.0229  0.0152 -0.1590
 4335W        W21859   9.333  14.224   4.698 -0.1074 -0.0117  0.0120
 4336W        W21860   0.881   7.470  12.049  0.0958  0.2917  0.0203
 4337W        W21861   1.792  16.102  14.448 -0.1885  0.1087  0.0595
 4338W        W21862   9.110   2.895  11.640  0.2119  0.3334 -0.2132
 4339W        W21863  12.550  16.953  15.462 -0.1432  0.1633  0.5088
 4340W        W21864   9.949   5.585  16.285 -0.2547  0.0442 -0.0294
 4341W        W21865   8.497   0.042  15.710 -0.0108  0.0329 -0.3441
 4342W        W21866  12.366   9.911  12.198  0.0822 -0.0675  0.0208
 4343W        W21867  12.439  11.703   4.791  0.0017 -0.0545  0.0755
 4344W        W21868  13.993   1.432   1.362  0.0023 -0.1226  0.3014
 4345W        W21869   7.443  11.391   0.249 -0.0693  0.0606 -0.0374
 4346W        W21870   5.757   7.834  15.731  0.1707 -0.1103 -0.0835
 4347W        W21871  10.827  10.617   0.313  0.0866 -0.0669 -0.0874
 4348W        W21872  14.347  17.697   4.832 -0.1364 -0.1125 -0.1262
 4349W        W21873   8.106   8.223  12.076  0.0255  0.0895 -0.1499
 4350W        W21874  14.884  17.287  12.241 -0.2539 -0.1732  0.2407
 4351W        W21875  15.218   1.454  11.924 -0.0445  0.1501  0.0598
 4352W        W21876  10.295   8.611  12.626  0.3087 -0.1773 -0.4800
 4353W        W21877  10.847   0.644  11.421  0.0420 -0.1329 -0.0999
 4354W        W21878   0.243  14.488   1.134 -0.0938 -0.1493  0.1616
 4355W        W21879  10.852  17.185   4.709 -0.1048 -0.1267 -0.0732
 4356W        W21880   9.400   0.154  15.845  0.0256  0.1389  0.0348
 4357W        W21881   1.045   6.668   2.254  0.1919  0.3325  0.3304
 4358W        W21882   4.617  11.135   0.452  0.3216  0.0245 -0.0290
 4359W        W21883   7.612   1.438   0.348 -0.2459 -0.2412 -0.0312
 4360W        W21884   4.744  13.662   3.448 -0.0592  0.0300 -0.1377
 4361W        W21885   0.088  10.691  15.517  0.3170  0.1874  0.0702
 4362W        W21886   7.862   5.922  15.325 -0.0383  0.0895  0.1367
 4363W        W21887   9.953  12.115   6.106  0.2774  0.1417  0.0868
 4364W        W21888   7.465   7.057   4.306  0.3721 -0.0343  0.0469
 4365W        W21889  14.556   2.103  13.892  0.1653  0.0398 -0.0057
 4366W        W21890  11.571  13.094  11.786  0.0566 -0.2021  0.1472
 4367W        W21891   0.403   8.492  14.143 -0.1471 -0.1116 -0.0583
 4368W        W21892   9.780  10.555  11.426 -0.3308 -0.1242  0.3397
 4369W        W21893  16.182   9.225  12.956 -0.1992 -0.2288  0.1140
 4370W        W21894   4.160  10.547  14.463  0.0830 -0.1078  0.0452
 4371W        W21895  10.367  15.044  14.987 -0.1346 -0.0553 -0.4731
 4372W        W21896   9.085   7.864  12.617  0.0757  0.1995 -0.0074
 4373W        W21897   2.794   9.413  13.760 -0.1360  0.2252 -0.0115
 4374W        W21898  10.445   1.034   4.845 -0.3083  0.1571  0.4319
 4375W        W21899  16.790  16.934   1.870  0.2868 -0.0753 -0.0100
 4376W        W21900  17.802   1.435   1.689 -0.1838  0.1628  0.0874
 4377W        W21901   5.410  17.561  15.748  0.2054  0.2983 -0.0080
 4378W        W21902  17.360   5.099  16.332  0.0872 -0.0165 -0.0193
 4379W        W21903   8.015   8.508  15.654  0.0028 -0.0314  0.0966
 4380W        W21904   3.714   8.229  14.921 -0.1248  0.1492  0.0725
 4381W        W21905  14.372  10.595   2.122  0.2934  0.6131  0.0430
 4382W        W21906  14.247  16.585   4.633 -0.3207  0.2535  0.3022
 4383W        W21907   9.363   1.845  15.952 -0.1304 -0.1304 -0.3758
 4384W        W21908  16.142   6.738   4.726  0.1205  0.2202  0.1506
 4385W        W21909   5.700   3.212  13.142 -0.1134 -0.0828 -0.1425
 4386W        W21910   5.813  12.446   1.015  0.1404  0.1489 -0.3094
 4387W        W21911   2.868   4.642  15.472  0.1177 -0.0931  0.3656
 4388W        W21912   4.284   8.507  13.514 -0.1636  0.0480 -0.3552
 4389W        W21913  17.038   2.259   1.199 -0.1257 -0.2410 -0.1273
 4390W        W21914   1.611  10.252  10.940 -0.1834 -0.1867  0.3550
 4391W        W21915  11.176  12.713   3.627  0.0323  0.3735 -0.3095
 4392W        W21916  17.850  16.488   2.139 -0.1029 -0.0802  0.0807
 4393W        W21917  17.873   9.657  14.190 -0.0588 -0.4217  0.3466
 4394W        W21918  13.559  17.328   1.154 -0.1626  0.1219 -0.0259
 4395W        W21919  14.063   6.094   0.591 -0.1540  0.1138  0.2589
 4396W        W21920  11.487   9.601   4.764 -0.0301 -0.0417  0.2943
 4397W        W21921   1.371  10.811  13.929 -0.1127  0.1536  0.2309
 4398W        W21922   8.680  12.849  15.489  0.2285 -0.0027 -0.0524
 4399W        W21923  16.741   2.414   3.442  0.2245  0.1734 -0.0011
 4400W        W21924   5.016   6.382   4.971 -0.0342  0.0879  0.0481
 4401W        W21925  11.035   4.071   3.162  0.1655  0.1989 -0.0161
 4402W        W21926  16.218   3.289   2.908 -0.1391 -0.1853 -0.0990
 4403W        W21927   3.280  12.695   3.909 -0.0687  0.2340 -0.1642
 4404W        W21928   1.336   6.498   4.545  0.1753  0.0798  0.1304
 4405W        W21929  17.577   9.631   1.463 -0.0355 -0.0753  0.0186
 4406W        W21930  14.552  10.051   2.758 -0.1847 -0.2102  0.0985
 4407W        W21931  10.549  16.375  14.831 -0.1444 -0.2269  0.0608
 4408W        W21932   1.816  14.605   2.383 -0.2917  0.3051  0.1992
 4409W        W21933  17.631   4.861   2.452 -0.0428  0.0617 -0.0034
 4410W        W21934  10.066   8.582   4.976  0.0239  0.3436  0.1178
 4411W        W21935  15.521  14.518   4.716 -0.3333  0.0117 -0.0327
 4412W        W21936  17.819   1.089   3.740 -0.2945  0.1444  0.3043
 4413W        W21937   3.969   2.904  15.604  0.1358  0.1220 -0.2668
 4414W        W21938  11.298   7.233  15.432  0.0751 -0.0599  0.2837
 4415W        W21939   6.034  12.021  14.106 -0.0843 -0.0385  0.0622
 4416W        W21940   4.094  14.146  15.656 -0.2864 -0.1443 -0.1511
 4417W        W21941   9.251  12.620   1.808 -0.0167 -0.0636  0.1191
 4418W        W21942   3.452   4.721   4.460 -0.1772  0.1089  0.0675
 4419W        W21943   2.612   3.561   3.015  0.0819 -0.1445 -0.0278
 4420W        W21944   5.076   4.217  12.709  0.2529 -0.0064  0.2151
 4421W        W21945   7.878  14.704   1.290 -0.1215 -0.0888 -0.1584
 4422W        W21946   9.261   0.936   1.777 -0.0585 -0.0256 -0.2245
 4423W        W21947  14.952  16.055   1.563 -0.4111  0.1666 -0.0925
 4424W        W21948  11.332   7.673   1.149  0.2047 -0.0316  0.0886
 4425W        W21949   9.486   9.051   0.686 -0.2066 -0.1190 -0.0905
 4426W        W21950   7.116   9.921   1.322 -0.1248 -0.2907  0.1452
 4427W        W21951  10.243  10.874   1.340  0.0124 -0.1599 -0.1189
 4428W        W21952   0.832  10.911   3.380  0.2237 -0.2496  0.1077
 4429W        W21953  11.639   0.126  14.035 -0.1335  0.0758 -0.3053
 4430W        W21954   5.826  10.514   0.236  0.0278 -0.1041  0.0580
 4431W        W21955  13.500  16.083  15.296  0.1214  0.1674  0.0662
 4432W        W21956  15.936  13.774  12.301 -0.0584  0.1518  0.1482
 4433W        W21957   0.395   9.929  11.181  0.1913  0.0757 -0.1640
 4434W        W21958  15.436  12.686  14.824 -0.1157  0.2490 -0.0384
 4435W        W21959   2.138  15.046   2.697 -0.1695 -0.0903  0.1712
 4436W        W21960  12.144  17.259   4.184  0.0202  0.1288 -0.1339
 4437W        W21961   2.002  14.129   1.790 -0.0141  0.5758 -0.3640
 4438W        W21962  12.271  11.183  14.942 -0.2313 -0.2579  0.0686
 4439W        W21963   5.241  11.087  13.240 -0.0954 -0.2473  0.4590
 4440W        W21964   6.171  16.830  12.382  0.0015  0.0768  0.0094
 4441W        W21965   1.835  12.623   1.843 -0.0450 -0.0020 -0.0779
 4442W        W21966   0.626   2.128  14.623  0.2100 -0.3660 -0.3588
 4443W        W21967   9.708  17.591   3.406 -0.1927  0.0056  0.1946
 4444W        W21968   8.821   5.569   0.126  0.0277 -0.0825 -0.1897
 4445W        W21969  16.410   0.043   3.941 -0.2728 -0.0493 -0.0144
 4446W        W21970  17.216  16.327  12.852  0.0674  0.0216  0.0140
 4447W        W21971  10.678   1.641   0.700  0.1438 -0.0665  0.3785
 4448W        W21972   5.776   9.370  15.261 -0.1011  0.1889  0.4302
 4449W        W21973  16.901   7.353  13.804 -0.1676 -0.1576 -0.0198
 4450W        W21974   7.732   6.721  16.373 -0.0984  0.2761  0.3032
 4451W        W21975  13.230  13.834   4.215  0.4165 -0.1352 -0.0385
 4452W        W21976  13.812   7.750   4.637  0.3148  0.0640 -0.1107
 4453W        W21977  12.996   1.951  13.992  0.0329  0.0492  0.1861
 4454W        W21978   0.745   4.447   1.302 -0.2281  0.1308 -0.0869
 4455W        W21979   1.489   7.999  12.574  0.0295  0.0249 -0.1749
 4456W        W21980   4.603  15.234  14.152  0.2085  0.1019 -0.0458
 4457W        W21981   4.945  13.722   2.907  0.0271 -0.1393 -0.3409
 4458W        W21982  10.450   6.740   0.638 -0.3346  0.4095  0.0998
 4459W        W21983  14.847   5.937   0.326 -0.0246  0.1122 -0.0084
 4460W        W21984   3.869   3.672   3.227 -0.1222 -0.0533 -0.3821
 4461W        W21985  12.731   9.246  13.672  0.2100 -0.2236  0.0097
 4462W        W21986   0.215   6.473   4.958 -0.1190 -0.1644 -0.0487
 4463W        W21987   8.099  14.181  16.382 -0.1301 -0.2471  0.0428
 4464W        W21988   3.224  16.710  16.185  0.2936 -0.0650  0.2603
 4465W        W21989   0.969  12.413  15.199  0.5663 -0.0396 -0.0342
 4466W        W21990   3.483   4.333  12.198 -0.2069  0.3656  0.0920
 4467W        W21991   2.527   5.366  12.963 -0.0564 -0.1483  0.0716
 4468W        W21992  17.222  14.788   3.494 -0.1505 -0.3004 -0.1520
 4469W        W21993   4.127   6.030   0.363 -0.3099 -0.2131 -0.0701
 4470W        W21994   9.332  16.536  14.400 -0.1848 -0.1422 -0.3128
 4471W        W21995  16.873   1.872   2.567 -0.2929 -0.2045 -0.1170
 4472W        W21996   3.012  13.956   3.167 -0.0026 -0.0794  0.0425
 4473W        W21997  17.515   8.195   3.063  0.1435 -0.1359 -0.0362
 4474W        W21998   1.106   9.680  14.634 -0.3566 -0.0132  0.2034
 4475W        W21999   3.227  14.576   4.889  0.0523 -0.1077  0.2252
 4476W        W22000  16.909  12.117   0.827 -0.2016 -0.0498 -0.0319
 4477W        W22001   5.079  17.687   3.000 -0.0109  0.0200  0.0797
 4478W        W22002   7.241   6.634  11.540 -0.1217 -0.2170 -0.1114
 4479W        W22003   7.905   5.353  10.749 -0.1490 -0.0021  0.0157
 4480W        W22004  13.807  11.601  12.542 -0.0109  0.0295  0.1002
 4481W        W22005  17.043   7.541   0.875 -0.1217  0.1470 -0.0945
 4482W        W22006   1.886  11.640  12.464 -0.2054  0.1845 -0.1667
 4483W        W22007  16.926  10.977  12.878 -0.0026 -0.0375  0.1857
 4484W        W22008  14.424  16.157   4.415 -0.0871  0.0970  0.0732
 4485W        W22009   4.858   6.931   1.293 -0.5180  0.1443 -0.0589
 4486W        W22010  15.526   2.964   3.529 -0.0837  0.2301  0.4193
 4487W        W22011  17.562  17.199  13.523  0.0893  0.1015  0.0770
 4488W        W22012  11.857   6.760  11.468 -0.2054 -0.0884 -0.0439
 4489W        W22013   7.551   4.642  16.305  0.3467 -0.2223  0.0324
 4490W        W22014  16.747   2.892   4.918 -0.1467 -0.0367  0.2601
 4491W        W22015   2.224  13.393  13.849  0.0695 -0.1586  0.1290
 4492W        W22016   9.458   1.904   2.481  0.0473 -0.0871  0.0896
 4493W        W22017   9.441   1.385   1.654  0.1356  0.2803  0.0112
 4494W        W22018  13.291   1.533  13.882 -0.1395 -0.0711  0.4410
 4495W        W22019   4.463  14.105  16.051 -0.0541  0.0420  0.1179
 4496W        W22020   8.554   3.230  15.050  0.3030  0.0337  0.0301
 4497W        W22021   0.504  17.608   1.737  0.2078  0.0857  0.1579
 4498W        W22022  15.643   4.670   2.403  0.0717  0.0981 -0.1043
 4499W        W22023  10.178  15.881  11.269  0.2195  0.3637  0.1224
 4500W        W22024  10.088   5.241   1.826 -0.2320 -0.3366 -0.3023
 4501W        W22025  13.076   7.535  15.789  0.1417 -0.0005 -0.1684
 4502W        W22026  11.307   7.201  13.650  0.0967 -0.2473 -0.1435
 4503W        W22027  12.869  14.194   4.327 -0.0349  0.1720  0.0788
 4504W        W22028  12.252   0.866   2.264  0.2448 -0.0853 -0.3018
 4505W        W22029   4.321   8.006  15.743  0.0581  0.0995  0.2742
 4506W        W22030   6.677   0.030   1.215 -0.2991 -0.2281  0.1817
 4507W        W22031  15.114   5.253  15.386 -0.0335  0.2204  0.1297
 4508W        W22032   6.718  17.099   4.520 -0.2095 -0.0496  0.1097
 4509W        W22033   7.100   4.222  14.320 -0.1453  0.4854  0.1557
 4510W        W22034   6.349  10.811  14.569 -0.3190 -0.2734  0.3039
 4511W        W22035   3.805  14.654   0.716 -0.3241  0.0628 -0.0507
 4512W        W22036   0.905   3.942  11.471  0.0529 -0.1839 -0.2349
 4513W        W22037  13.301   3.219  14.707  0.1405 -0.1416 -0.0883
 4514W        W22038   3.763   8.686   1.521 -0.1094  0.0496  0.0743
 4515W        W22039  15.143   4.783  16.292  0.1298  0.1078 -0.0610
 4516W        W22040   7.463   9.281   4.150  0.1222 -0.1367  0.2452
 4517W        W22041  17.435  10.666  10.596 -0.0651  0.0268  0.2981
 4518W        W22042  16.355  14.358   3.496  0.1784  0.0514  0.4168
 4519W        W22043  14.528   6.366   0.638 -0.0187 -0.1160  0.2341
 4520W        W22044   0.587  11.366   3.366  0.2423 -0.0015 -0.1515
 4521W        W22045  12.610  10.556  14.295 -0.1128  0.0466 -0.0427
 4522W        W22046  15.929  17.734  14.553  0.0559 -0.1192 -0.1138
 4523W        W22047   8.952  11.394  11.253 -0.1831  0.0987 -0.2182
 4524W        W22048  16.560  15.656   2.171  0.1027 -0.0708 -0.1536
 4525W        W22049  15.164   4.093  13.957 -0.1640 -0.2244  0.1360
 4526W        W22050   5.802   6.265  13.682  0.0544 -0.1275  0.0787
 4527W        W22051   8.427  13.800   0.826 -0.0450  0.0950 -0.1480
 4528W        W22052  10.452   2.809   4.727 -0.0637 -0.0650 -0.2384
 4529W        W22053   0.049  10.259   2.121 -0.3091 -0.0780 -0.2232
 4530W        W22054  14.836  17.362  13.616  0.0508  0.0731 -0.1058
 4531W        W22055  16.773  17.696   4.121  0.1262 -0.0224 -0.4097
 4532W        W22056  11.054   6.772  14.703  0.0808 -0.2260 -0.1929
 4533W        W22057   6.502  12.087  13.583  0.0552  0.0386 -0.0717
 4534W        W22058   8.078  16.263   2.387 -0.3065  0.0496  0.1037
 4535W        W22059  15.438  15.425   5.029  0.1430 -0.2215 -0.1845
 4536W        W22060  17.799  17.663  13.419  0.0604 -0.1046  0.0192
 4537W        W22061  12.739   2.918   4.987 -0.0553 -0.1810 -0.0576
 4538W        W22062  15.851  16.249   1.123 -0.1800 -0.1881  0.0899
 4539W        W22063  12.522   1.347  12.256  0.2407  0.2604 -0.4649
 4540W        W22064   7.850   2.384  12.381 -0.0172 -0.0936  0.2219
 4541W        W22065   5.835   0.249   3.349 -0.0657 -0.0494  0.0183
 4542W        W22066   4.524  14.933   1.321 -0.0030  0.0447 -0.2790
 4543W        W22067   8.690   3.676  11.989 -0.0083  0.1096  0.4240
 4544W        W22068  11.264   8.362  15.225  0.0688 -0.3437 -0.0061
 4545W        W22069   8.992   7.158   5.539 -0.1088 -0.1388 -0.2791
 4546W        W22070  16.011  14.547   1.628  0.0525  0.0696  0.3733
 4547W        W22071   6.059   0.761  15.777  0.0291  0.3082  0.2019
 4548W        W22072   6.586   9.871  12.058 -0.1663  0.2019 -0.2787
 4549W        W22073   2.993   7.708  15.825  0.2076  0.0071 -0.1117
 4550W        W22074   3.024   1.410   4.111  0.5343  0.1184 -0.0461
 4551W        W22075  14.376  13.373   2.130 -0.0579 -0.0651  0.1621
 4552W        W22076  10.334   9.360  12.841 -0.0109 -0.1403 -0.2375
 4553W        W22077   6.010   8.875  12.607  0.0180 -0.3110 -0.1728
 4554W        W22078   2.104  13.554  16.229 -0.0375 -0.0747 -0.1524
 4555W        W22079   5.121   5.653   4.195 -0.0730 -0.0476 -0.0589
 4556W        W22080   3.554  13.513  13.970  0.0930 -0.0489 -0.0839
 4557W        W22081  17.246  10.068   1.577  0.0394  0.2685  0.2404
 4558W        W22082   3.906  17.158  13.053 -0.0778 -0.2420  0.1703
 4559W        W22083   9.603   4.945  10.893 -0.1030 -0.0076  0.1725
 4560W        W22084  13.240   6.506   5.206  0.2512  0.1051 -0.1978
 4561W        W22085  10.788   2.343   3.407  0.0774  0.0175  0.2494
 4562W        W22086   4.122   6.668  12.072  0.0330 -0.0494 -0.1888
 4563W        W22087  17.045   1.378   1.412 -0.1993 -0.1881  0.1613
 4564W        W22088  16.915  12.580   0.960 -0.0912 -0.1438  0.1046
 4565W        W22089   5.616   6.867  15.296  0.1533  0.0132  0.3537
 4566W        W22090  14.754   7.504  12.058 -0.3287 -0.1894 -0.2402
 4567W        W22091   4.334   0.014   2.687 -0.1439 -0.0848 -0.1077
 4568W        W22092  11.472   4.246  10.028  0.0119 -0.0528  0.0321
 4569W        W22093   3.242   8.288  15.037 -0.0584  0.4500 -0.2036
 4570W        W22094   5.949  16.956  12.874 -0.2825 -0.1564 -0.1432
 4571W        W22095  10.875   1.890  14.981  0.0825  0.0544  0.0416
 4572W        W22096  16.338   3.984  11.929  0.0217  0.0308  0.0104
 4573W        W22097  16.286   4.747   3.603  0.0963  0.1033 -0.1832
 4574W        W22098  17.760  12.008   4.727 -0.0764  0.1646  0.1001
 4575W        W22099  13.472   5.487   1.074 -0.2223 -0.0722 -0.1247
 4576W        W22100  13.990   9.448   0.888  0.0339 -0.2949 -0.0384
 4577W        W22101  11.030   0.443  13.248 -0.2154 -0.3389 -0.0721
 4578W        W22102   0.448  15.052  13.227 -0.1174  0.0357 -0.0109
 4579W        W22103   5.287  15.614  11.410  0.0914 -0.2005  0.0316
 4580W        W22104   2.322   9.023   2.065 -0.2349  0.2933 -0.3699
 4581W        W22105   4.040   8.167   5.282  0.0162 -0.0999  0.0865
 4582W        W22106  13.059  16.509  15.173 -0.0669 -0.0905 -0.0985
 4583W        W22107   4.713   1.434  16.336  0.1999 -0.2261  0.0050
 4584W        W22108  16.165   1.594   5.147 -0.4883 -0.3251 -0.1979
 4585W        W22109   4.196   1.862  13.022 -0.5884 -0.2348  0.1442
 4586W        W22110   1.759   5.067   3.163  0.0734 -0.2332  0.0563
 4587W        W22111  12.281   6.566   0.115  0.0578 -0.3129 -0.0935
 4588W        W22112  12.633   3.068  12.547 -0.0637  0.2016  0.1498
 4589W        W22113   5.691   6.051   1.062 -0.0503 -0.1747 -0.0331
 4590W        W22114   8.253   8.523  15.142  0.1339 -0.3543  0.0473
 4591W        W22115  16.261   3.788  15.405 -0.3475  0.1652 -0.0289
 4592W        W22116   7.433  11.324   5.101  0.0254 -0.1625 -0.0237
 4593W        W22117  13.173   1.079  14.021  0.0407  0.1107  0.3319
 4594W        W22118   4.720   6.742   3.335  0.0734 -0.0946  0.0823
 4595W        W22119   7.639   5.768  15.921 -0.0413 -0.2506  0.1499
 4596W        W22120   1.283   8.014  13.073  0.2005 -0.4956  0.0823
 4597W        W22121  17.094  17.320  13.821  0.0586 -0.6680  0.2415
 4598W        W22122  14.832  11.445  16.037  0.0012 -0.1779 -0.1866
 4599W        W22123   4.768   3.230   2.246 -0.0253  0.1597  0.0012
 4600W        W22124   9.625  11.464   5.296 -0.1364  0.1418 -0.2254
 4601W        W22125  16.815  10.615  15.938  0.2063  0.0576  0.0338
 4602W        W22126   9.614   3.201   0.280 -0.1237 -0.2104  0.0117
 4603W        W22127  11.650   0.805  11.393  0.3476  0.0914 -0.0496
 4604W        W22128  13.711   9.778  14.490  0.0156 -0.2920 -0.1318
 4605W        W22129   6.465   7.907   2.067  0.0316 -0.3263  0.0197
 4606W        W22130   0.223  16.293   3.929 -0.0852  0.1073 -0.3821
 4607W        W22131   6.266  15.994  13.841  0.0768 -0.0204  0.2685
 4608W        W22132   1.943  15.755  12.425 -0.1803 -0.0045 -0.3708
 4609W        W22133   8.069   7.997   1.155 -0.0628  0.1408 -0.2071
 4610W        W22134  13.507   7.098  15.336  0.1827  0.2663  0.1264
 4611W        W22135   1.452   5.382  12.780 -0.2228 -0.2254  0.0422
 4612W        W22136  16.123  10.291  14.040 -0.0734 -0.0871 -0.0807
 4613W        W22137   1.515  14.514   1.693 -0.1287 -0.1773  0.1579
 4614W        W22138  17.827  12.856  16.107 -0.2973 -0.0770  0.0228
 4615W        W22139   6.374  14.625  13.312 -0.0441 -0.0722 -0.0786
 4616W        W22140   3.139   4.502  15.988 -0.1594 -0.0032  0.2593
 4617W        W22141  17.488   9.468  15.667 -0.0672  0.2649 -0.0474
 4618W        W22142   7.421   9.964   0.312 -0.0900 -0.2478  0.0771
 4619W        W22143   1.840  13.688  11.562  0.2024 -0.0821  0.0345
 4620W        W22144   2.195  14.053  16.212  0.0651  0.0681  0.0752
 4621W        W22145   7.030   7.675  11.161 -0.1027  0.0259  0.1164
 4622W        W22146   8.262   1.892   3.973  0.0641  0.0663  0.2966
 4623W        W22147  11.642   9.864   3.688  0.0483 -0.0385  0.3397
 4624W        W22148   5.676   0.631  16.273 -0.1720 -0.1804  0.3023
 4625W        W22149   0.107  11.550  15.715  0.2772  0.0250  0.0681
 4626W        W22150   1.870  14.541   4.751  0.2528 -0.0348 -0.0162
 4627W        W22151   6.770  13.658  14.087  0.1020  0.2965  0.1191
 4628W        W22152   3.295   9.915   3.612 -0.0421 -0.0170 -0.0286
 4629W        W22153   2.775  13.735   2.731 -0.0278 -0.0285  0.1448
 4630W        W22154  12.891   4.895  12.429 -0.1141  0.0175  0.2423
 4631W        W22155  14.847   5.111  13.057  0.0102 -0.0444  0.0717
 4632W        W22156   5.788  15.375   4.496 -0.1041 -0.2218  0.1333
 4633W        W22157   5.344   7.202  11.919  0.1650  0.2386 -0.0416
 4634W        W22158  12.693  13.390  12.554 -0.2184 -0.0781  0.2336
 4635W        W22159   2.218  10.379  11.476  0.1486  0.1765  0.4655
 4636W        W22160   5.892   4.398   3.871 -0.1367 -0.1153  0.0157
 4637W        W22161   0.910   8.366   3.317  0.0761  0.0235 -0.2546
 4638W        W22162  13.375  14.010  11.434 -0.1490  0.0563  0.0746
 4639W        W22163  11.335  13.341  12.738 -0.1081 -0.0547  0.1271
 4640W        W22164   5.545   3.121   1.918  0.2847  0.0338  0.1919
 4641W        W22165  13.744  13.227  14.301  0.1393 -0.1295 -0.0151
 4642W        W22166   6.364   5.591  13.814  0.1479 -0.0330 -0.0667
 4643W        W22167  17.084  15.867  11.096  0.1760 -0.0997  0.1620
 4644W        W22168   5.789   9.212  16.340 -0.1150 -0.2197 -0.2334
 4645W        W22169   3.444   4.027   0.409  0.1864 -0.2135  0.1854
 4646W        W22170  15.794   6.629   0.589 -0.0782  0.1456  0.2441
 4647W        W22171   4.106   6.545  15.506 -0.2671  0.1569 -0.1733
 4648W        W22172   5.795  17.963  12.754 -0.0153  0.2942  0.1575
 4649W        W22173   8.155   1.101  11.016 -0.1583  0.0856 -0.0770
 4650W        W22174  12.289   3.315   2.315 -0.0944 -0.2244  0.1151
 4651W        W22175   0.701   5.843  12.454 -0.2402  0.1706  0.2683
 4652W        W22176   7.337   4.421  14.879  0.2067 -0.0778 -0.3510
 4653W        W22177   5.489  16.623   1.406  0.0483 -0.2858  0.1999
 4654W        W22178   8.031   0.191  15.779  0.1807 -0.0366 -0.1287
 4655W        W22179   7.171   2.994  14.384 -0.0070 -0.1287 -0.0744
 4656W        W22180  11.543  16.769  16.320  0.1832 -0.1313  0.2331
 4657W        W22181   8.838   5.229   1.475 -0.0023  0.2922 -0.1975
 4658W        W22182   3.528   1.957  15.492 -0.0991  0.1529 -0.0993
 4659W        W22183   4.403  15.876   2.324  0.4592  0.2032  0.1099
 4660W        W22184  17.518   0.562   1.346 -0.3165 -0.1384  0.0163
 4661W        W22185  14.263  10.935   5.402  0.0023  0.2104 -0.0903
 4662W        W22186   9.433   9.724  15.849  0.0205 -0.1558 -0.0851
 4663W        W22187   0.393  10.788  13.591  0.0417  0.0466  0.1209
 4664W        W22188   4.439   4.770  14.122 -0.0205  0.1212 -0.2345
 4665W        W22189  16.496  15.731  15.640  0.1665 -0.3446  0.3286
 4666W        W22190  10.306   7.638   2.819 -0.0290 -0.1657  0.0647
 4667W        W22191   0.274   0.358   4.333 -0.0735  0.0033 -0.2982
 4668W        W22192   7.484   5.588   4.276  0.0888 -0.0699 -0.0624
 4669W        W22193  16.304   5.228  12.102  0.0801 -0.0273 -0.3523
 4670W        W22194  17.005   7.204   3.675 -0.0557 -0.0355 -0.1147
 4671W        W22195  11.051  17.223   2.239  0.1368  0.0040  0.1042
 4672W        W22196   7.013  10.581  12.272 -0.3378 -0.3059  0.3219
 4673W        W22197   9.799  11.185   4.059 -0.0276 -0.0925  0.3271
 4674W        W22198  12.128  15.216  15.720 -0.0006 -0.0835 -0.2503
 4675W        W22199  14.460   0.819   2.684  0.0365  0.1389  0.0612
 4676W        W22200   7.865   2.796   4.275 -0.4241  0.1773  0.2256
 4677W        W22201   2.172   8.464   3.770 -0.0732  0.0301 -0.0501
 4678W        W22202   9.614  11.356   4.547  0.2892  0.0190  0.2118
 4679W        W22203  17.442   1.808  13.723  0.4033 -0.0817 -0.2344
 4680W        W22204   7.572  11.813   2.991 -0.1226 -0.0339  0.2738
 4681W        W22205  15.182   5.809   3.575 -0.2328 -0.1287 -0.0729
 4682W        W22206  10.824  11.562   4.180  0.1044  0.0821  0.2179
 4683W        W22207  14.765  14.783  12.790 -0.0679 -0.2244 -0.2269
 4684W        W22208   2.717   3.345   2.552 -0.1204  0.1748 -0.4616
 4685W        W22209   9.061   3.954  11.966  0.2259  0.3817  0.1147
 4686W        W22210  10.327   3.436   1.524  0.3797 -0.0696  0.2086
 4687W        W22211   2.651  13.287   1.091  0.0851 -0.1630 -0.1843
 4688W        W22212   1.689  15.697  15.700  0.0562 -0.0732 -0.0129
 4689W        W22213   3.165  10.665  12.475 -0.0047 -0.1080  0.1503
 4690W        W22214   6.512   4.692  15.838 -0.0548  0.0483  0.1231
 4691W        W22215   3.895   3.990  13.893 -0.3676 -0.1035 -0.1091
 4692W        W22216   0.545   2.804  15.902 -0.0138  0.4760 -0.1308
 4693W        W22217  16.290  17.430   0.785 -0.1122 -0.0586 -0.1913
 4694W        W22218   3.585   0.316   1.670  0.0987 -0.1676 -0.1017
 4695W        W22219   4.361  14.443   2.280 -0.1047 -0.2863 -0.0988
 4696W        W22220  16.100  13.026  11.882 -0.0558 -0.0770 -0.0289
 4697W        W22221  15.402   3.121   1.002  0.1240 -0.0830 -0.3352
 4698W        W22222   4.196   7.547  13.113 -0.1593  0.0956 -0.2862
 4699W        W22223   8.677  16.998   0.309 -0.1054 -0.0808 -0.1292
 4700W        W22224   8.432   6.393  16.038 -0.0369 -0.2276 -0.0331
 4701W        W22225  15.298   5.812   4.159  0.3988 -0.3368 -0.0072
 4702W        W22226  15.034   6.098  15.006 -0.0404 -0.1426  0.0945
 4703W        W22227   3.986  10.534  12.903 -0.1305 -0.2398  0.0187
 4704W        W22228   3.233   5.296   3.013 -0.1875  0.1633 -0.0894
 4705W        W22229   0.044   7.733  15.182 -0.2270 -0.2231  0.2419
 4706W        W22230   2.279   3.990   3.640 -0.0256 -0.0706  0.0168
 4707W        W22231   9.634   3.452   1.484 -0.0783 -0.0041 -0.0648
 4708W        W22232  17.585   3.615   4.962 -0.2567 -0.1522  0.0790
 4709W        W22233   1.522   4.179   0.123 -0.0456 -0.0042 -0.0115
 4710W        W22234   1.761   9.506   2.723  0.0313  0.3799  0.1621
 4711W        W22235   2.446  10.787   4.988  0.6369 -0.4572 -0.0083
 4712W        W22236   9.329  11.042  11.454 -0.3706 -0.0041 -0.1426
 4713W        W22237  11.208   0.868  13.427 -0.1892 -0.1639  0.2927
 4714W        W22238  16.511   1.693  14.549  0.0111 -0.2370 -0.2041
 4715W        W22239   3.188   4.536  11.771  0.1222  0.1450 -0.1946
 4716W        W22240   2.220   4.288   4.187  0.0729 -0.2182 -0.1292
 4717W        W22241  13.814   6.357  14.007 -0.2727  0.0405 -0.2676
 4718W        W22242  12.133   3.658   0.179 -0.0979  0.1585 -0.0726
 4719W        W22243  14.256   8.380   2.580  0.1319 -0.0849  0.0806
 4720W        W22244   8.852  11.697  16.337  0.0586 -0.2118 -0.1038
 4721W        W22245   3.380   5.587   4.125 -0.2601 -0.3727 -0.0421
 4722W        W22246   6.499   8.449  15.383 -0.1142  0.0118 -0.1964
 4723W        W22247  12.612  15.406  11.909  0.0585 -0.1602 -0.1354
 4724W        W22248  14.546  16.897   3.152 -0.1855  0.1078 -0.2071
 4725W        W22249   7.445  13.701  14.849 -0.0472 -0.1754  0.3792
 4726W        W22250   0.528   4.058   1.668  0.0587  0.1615 -0.0709
 4727W        W22251  11.962   3.709   5.938 -0.1587  0.0616  0.2025
 4728W        W22252  12.605  15.253  14.258  0.1399  0.2487 -0.2162
 4729W        W22253   8.878  16.935   4.285  0.2716  0.2206 -0.1821
 4730W        W22254   6.279   8.755   1.827 -0.1035 -0.0939 -0.1650
 4731W        W22255   0.206   7.383  14.073  0.3679  0.0140  0.0090
 4732W        W22256  16.808  12.248   1.335 -0.0547  0.1113  0.1797
 4733W        W22257   1.682   2.428  13.528 -0.1261  0.1081 -0.1239
 4734W        W22258   6.710  11.499   4.322 -0.0799 -0.1731  0.2939
 4735W        W22259  12.353   8.091  14.844 -0.1370 -0.2195  0.0184
 4736W        W22260   0.746  15.377   5.391 -0.1050 -0.0303 -0.3033
 4737W        W22261  16.627  10.260   4.112 -0.0232 -0.2131 -0.3718
 4738W        W22262   2.515   4.144  15.291  0.1447  0.0042  0.1256
 4739W        W22263  12.713  12.571  13.928  0.2293 -0.1465 -0.0551
 4740W        W22264   1.535  17.443   3.881  0.2157  0.0436  0.4137
 4741W        W22265   9.158  17.714   1.317 -0.2635  0.2676  0.1148
 4742W        W22266   8.173  14.506  14.473 -0.1012  0.0234 -0.2091
 4743W        W22267   2.767  10.711  14.435 -0.1053 -0.0737  0.2212
 4744W        W22268  11.123  11.850  14.479 -0.0809  0.0118  0.1611
 4745W        W22269   5.332   4.655   3.114  0.1099  0.1186 -0.0354
 4746W        W22270   0.581  14.541   3.192 -0.3277  0.0303 -0.3644
 4747W        W22271   4.819   0.351   4.801 -0.0688  0.1102  0.1578
 4748W        W22272   9.410  12.979   3.244  0.0756 -0.2483  0.0859
 4749W        W22273  14.727  11.864  12.184 -0.2275 -0.3300  0.1697
 4750W        W22274  12.598  13.338   4.567 -0.2265  0.2464  0.2006
 4751W        W22275   4.179  14.718   3.022  0.2879  0.2126 -0.1349
 4752W        W22276   8.135   6.503   0.891  0.1805 -0.1573 -0.1387
 4753W        W22277  11.605  15.465   3.637 -0.0284 -0.0824 -0.0223
 4754W        W22278  14.290  14.553   0.810 -0.0968 -0.0198 -0.0767
 4755W        W22279   3.325  17.303   4.308 -0.2806 -0.0646 -0.2397
 4756W        W22280   9.702   2.268  14.747  0.2338  0.0008 -0.0451
 4757W        W22281  10.309  12.531   4.807  0.0806  0.1347 -0.1391
 4758W        W22282  17.211  14.840   2.566 -0.0266  0.0056  0.0885
 4759W        W22283  15.196  13.285   4.542  0.0479  0.1339  0.2021
 4760W        W22284   0.239   2.831   4.768 -0.0736  0.0638  0.2728
 4761W        W22285  13.512   1.021   3.018 -0.1897  0.2518 -0.0451
 4762W        W22286  10.625   4.107   0.413 -0.0745  0.2229 -0.3613
 4763W        W22287   9.604   9.328   1.850 -0.0641 -0.3103  0.1144
 4764W        W22288   3.274   3.506  15.407  0.3944  0.2100 -0.1546
 4765W        W22289  10.107   3.166  16.291 -0.0752 -0.0902  0.1233
 4766W        W22290   7.112   0.446  12.762 -0.0409 -0.2635 -0.2707
 4767W        W22291   5.860   9.636   1.818 -0.2817 -0.2153  0.2346
 4768W        W22292  10.138   4.609  14.496  0.1762  0.6159  0.1251
 4769W        W22293   9.916   3.920   4.288 -0.0589  0.1692  0.0611
 4770W        W22294  10.159  12.184   1.968  0.1598 -0.3262  0.1261
 4771W        W22295   6.157  11.857  15.475  0.0790 -0.1914 -0.0453
 4772W        W22296  15.178   1.985   2.137 -0.1858 -0.0602 -0.2315
 4773W        W22297  11.053   4.982  14.702 -0.1174 -0.3050 -0.1771
 4774W        W22298  10.735  11.366  12.841  0.1636  0.0523  0.0455
 4775W        W22299   4.606  12.166   5.577  0.1038 -0.1495 -0.1570
 4776W        W22300  14.839  15.296   2.261 -0.1273 -0.0322  0.2195
 4777W        W22301   7.816   5.763   2.548  0.1707 -0.2213 -0.3066
 4778W        W22302   5.983  15.467  16.105  0.0241  0.2818  0.2828
 4779W        W22303   5.081   1.906  14.718 -0.2246 -0.1239  0.0417
 4780W        W22304  16.948   4.299   0.074 -0.1468 -0.0765 -0.2505
 4781W        W22305  10.139   7.868   1.890  0.1646 -0.1781  0.1486
 4782W        W22306  13.894   5.794   4.064  0.3209  0.2769  0.1225
 4783W        W22307   7.574   3.137  14.891 -0.1021 -0.3559  0.0046
 4784W        W22308   5.278  15.300   0.207 -0.3042 -0.0470 -0.0213
 4785W        W22309   8.792   2.509   2.044  0.1672  0.1261 -0.2461
 4786W        W22310  13.685  17.072   0.227  0.2357  0.3004 -0.3613
 4787W        W22311   8.966  16.882  16.388 -0.1866  0.0288  0.0232
 4788W        W22312  11.832   2.121  14.953  0.0889  0.1711  0.0948
 4789W        W22313   4.109   6.531  14.211 -0.0439 -0.0588  0.2549
 4790W        W22314  14.391  10.751  14.907  0.0323 -0.0516  0.2359
 4791W        W22315  12.099   8.981   4.027  0.0521 -0.1366 -0.1463
 4792W        W22316  15.183  11.929  14.083  0.2342  0.2905  0.2672
 4793W        W22317   1.239   6.212  13.850 -0.1277 -0.1674  0.0930
 4794W        W22318  14.583  11.324   1.278 -0.0456 -0.0963  0.1295
 4795W        W22319   8.064   3.389   4.475  0.1303  0.1282 -0.1021
 4796W        W22320   7.321   9.523  12.963 -0.1041  0.1030  0.0093
 4797W        W22321   1.322   3.448   4.996  0.0858 -0.0581 -0.0981
 4798W        W22322   0.949  12.169   2.478 -0.0590 -0.2277 -0.0078
 4799W        W22323   7.949   0.745  14.223  0.0395  0.2018  0.0014
 4800W        W22324  15.450   5.680   2.032 -0.1279 -0.3249  0.0307
 4801W        W22325  17.277  17.889   4.141  0.3071 -0.0836  0.0316
 4802W        W22326   3.657  17.810  14.904  0.1792  0.2285 -0.4014
 4803W        W22327   0.144   9.530  12.446 -0.0615 -0.4192 -0.2342
 4804W        W22328  12.384  16.502   0.308  0.2548 -0.3153  0.1197
 4805W        W22329  10.878  11.101   0.545  0.3822  0.0636  0.1201
 4806W        W22330  16.919  12.178   2.078 -0.0592 -0.3306  0.0255
 4807W        W22331   4.346  17.265   0.703 -0.3286 -0.0178 -0.1460
 4808W        W22332   5.550   1.023  14.035  0.0543 -0.0098 -0.4420
 4809W        W22333   9.566   7.327  13.248 -0.2413  0.0731  0.2383
 4810W        W22334   7.480   3.097   1.991  0.0195 -0.2058 -0.1788
 4811W        W22335  17.598   4.214   5.126  0.3631  0.1897  0.1480
 4812W        W22336  13.584   9.702  16.404  0.2931 -0.2544 -0.2320
 4813W        W22337  12.980   9.334  16.422 -0.0277 -0.3718  0.1927
 4814W        W22338   0.659   0.584  16.089  0.0514  0.2517 -0.2582
 4815W        W22339   2.196  12.884   0.478  0.0679  0.0438 -0.0419
 4816W        W22340  14.079  15.483   2.918  0.0219 -0.4476 -0.2233
 4817W        W22341   5.142  11.943   4.442  0.3037  0.1037  0.1906
 4818W        W22342   6.744   3.302  14.752 -0.0046  0.2299  0.1843
 4819W        W22343   1.063   6.269  12.389 -0.2970  0.2309  0.2281
 4820W        W22344  15.867   8.190  12.295  0.1224 -0.0867 -0.2694
 4821W        W22345  11.696  12.286   1.294 -0.1447  0.3972  0.2511
 4822W        W22346   9.212  17.319  12.973 -0.1813 -0.1032 -0.1954
 4823W        W22347   5.320  11.729  14.130 -0.1745 -0.1843 -0.0284
 4824W        W22348  12.467  15.383  15.321 -0.0453 -0.0532 -0.1227
 4825W        W22349   2.873   6.673   0.691 -0.2816 -0.2350 -0.6191
 4826W        W22350   2.582   9.190  12.072 -0.1742 -0.2163 -0.0854
 4827W        W22351  17.831  15.128   2.982  0.0687  0.2121  0.0469
 4828W        W22352   0.510   7.383  15.905  0.2165 -0.0491 -0.1089
 4829W        W22353  12.430  13.815  13.585 -0.0867 -0.2876 -0.0244
 4830W        W22354   7.574  12.436  11.642  0.1921  0.0984 -0.1879
 4831W        W22355   4.230   1.346   4.451  0.0641 -0.0163  0.3774
 4832W        W22356  11.411  12.469  13.761  0.2679  0.0147  0.2055
 4833W        W22357  12.963  11.540  11.468  0.0154 -0.0730 -0.1281
 4834W        W22358   6.327   5.620   3.297  0.0510 -0.0252 -0.0613
 4835W        W22359  17.397  13.124  15.638 -0.4428  0.0215  0.0103
 4836W        W22360   6.890  11.725   1.510  0.0226 -0.1543 -0.1790
 4837W        W22361   7.725   6.640  12.109  0.0473 -0.2878  0.2772
 4838W        W22362   9.492   6.320   2.657 -0.1157  0.2789 -0.0436
 4839W        W22363   5.867  10.706   0.683 -0.2200  0.3237  0.0808
 4840W        W22364  11.090   0.977  12.845  0.0129  0.0506  0.2253
 4841W        W22365   4.427   8.028  13.791 -0.0958  0.0676 -0.3415
 4842W        W22366   2.789  10.894   1.062 -0.3658 -0.0401  0.1955
 4843W        W22367  11.313  12.414   1.742 -0.1776  0.0354  0.1951
 4844W        W22368   5.206   3.776   0.129  0.1856 -0.0248 -0.0836
 4845W        W22369   3.734   7.777  13.304  0.0365  0.2996  0.0162
 4846W        W22370   6.411   4.766  13.054  0.0995  0.2286 -0.3253
 4847W        W22371   8.226   2.961   1.472 -0.0483  0.0395  0.0882
 4848W        W22372  11.044   5.473   4.330 -0.0754 -0.0386  0.2050
 4849W        W22373   1.718  15.273  10.996 -0.0134 -0.0291 -0.2205
 4850W        W22374   3.444   4.553   2.918 -0.0374 -0.0429 -0.3824
 4851W        W22375   7.215   5.484  15.845 -0.0304  0.0134  0.1192
 4852W        W22376  13.007   3.666   1.247  0.0117 -0.5175  0.1511
 4853W        W22377  14.212  17.430   2.326  0.0306 -0.3021  0.2292
 4854W        W22378   5.645  17.864   4.276 -0.2510 -0.0435  0.3555
 4855W        W22379   2.604   4.801  12.181  0.2125  0.2249 -0.0706
 4856W        W22380   9.574  10.509  15.862  0.3513  0.1025  0.2639
 4857W        W22381  17.841   4.948   0.080 -0.1854  0.0364 -0.0760
 4858W        W22382  10.535  11.603  15.712  0.1841 -0.1155 -0.3855
 4859W        W22383   2.412  17.290  13.222 -0.5636  0.0524 -0.0948
 4860W        W22384  14.172   3.106   1.991 -0.4035 -0.0906 -0.1542
 4861W        W22385  15.166   7.418  13.795 -0.0991 -0.1878  0.4109
 4862W        W22386  16.728   7.770   0.436 -0.1142 -0.1697  0.2905
 4863W        W22387  13.533  15.277   2.311  0.2141 -0.2816  0.0476
 4864W        W22388   6.252   6.501  13.448 -0.0495 -0.0900 -0.0061
 4865W        W22389  15.532   0.344  16.104 -0.0168  0.1512 -0.0711
 4866W        W22390   7.273  10.913  12.645 -0.1474  0.1102  0.3022
 4867W        W22391   8.717  15.271  11.570  0.1001  0.1832 -0.0094
 4868W        W22392   1.829   8.851  15.480  0.0683  0.1734  0.1071
 4869W        W22393  11.750  11.585  12.861  0.2578  0.0425 -0.4015
 4870W        W22394  16.340   8.146  15.972  0.1072 -0.2910 -0.2333
 4871W        W22395  10.320  13.311  16.055 -0.1982  0.1581  0.1588
 4872W        W22396  12.189   5.878  12.343 -0.0231 -0.0908 -0.0355
 4873W        W22397  14.035  15.111   0.184 -0.1129 -0.0741  0.1019
 4874W        W22398   1.177   3.775  13.578  0.0438  0.3877  0.0398
 4875W        W22399   2.839   7.540   0.579 -0.1652 -0.0016 -0.3541
 4876W        W22400   9.307  15.420   1.000  0.0515  0.1005  0.1599
 4877W        W22401  17.724   7.304  15.011 -0.0501 -0.1217 -0.1952
 4878W        W22402   0.301  13.267  16.124  0.1204 -0.2158  0.1521
 4879W        W22403  15.063  10.094   1.791  0.3085  0.0607 -0.0148
 4880W        W22404  17.438  14.395  14.633  0.2668  0.2209  0.1864
 4881W        W22405  10.123   0.596   3.243 -0.0127 -0.4936  0.0855
 4882W        W22406  17.013  14.544  15.566 -0.1321  0.2040  0.1308
 4883W        W22407   5.674   5.837  14.641 -0.2904 -0.1481 -0.1198
 4884W        W22408  14.896   9.944  14.514 -0.3576  0.2062  0.1841
 4885W        W22409  13.701   9.217  14.291 -0.0558  0.1013 -0.4162
 4886W        W22410   9.038  12.255   0.066 -0.3371  0.1691  0.0349
 4887W        W22411  11.879   6.789   2.187  0.1407  0.2112 -0.1853
 4888W        W22412  10.751  14.932   0.871  0.0206  0.2324  0.2372
 4889W        W22413  17.432  17.231   1.411 -0.4571 -0.0156 -0.3008
 4890W        W22414   4.090  17.622   3.138  0.1622  0.1486 -0.0730
 4891W        W22415  10.501   0.153   5.078  0.0078 -0.1079 -0.0161
 4892W        W22416   9.232   7.427  15.679 -0.1638  0.1122 -0.0994
 4893W        W22417  11.317  10.883  14.283 -0.0684 -0.0836  0.0437
 4894W        W22418   8.358  10.425   1.922  0.0578 -0.1736  0.1485
 4895W        W22419  17.027   7.236   2.478 -0.3264 -0.1545  0.0212
 4896W        W22420   4.092   6.986  13.017  0.0667 -0.1743  0.0262
 4897W        W22421   5.362   1.177   4.503  0.0098 -0.1368 -0.0699
 4898W        W22422  10.963  10.588  13.992  0.0078  0.3515 -0.5414
 4899W        W22423  12.096  11.166   4.294  0.1591 -0.0758  0.1676
 4900W        W22424  16.593   3.314   1.037 -0.2660 -0.3597 -0.3277
 4901W        W22425  13.342  10.338   2.960  0.2762  0.2656  0.0107
 4902W        W22426  14.714  10.903   2.008  0.0962  0.1080  0.0814
 4903W        W22427  13.823  16.310  16.090 -0.0654  0.2652  0.5477
 4904W        W22428  16.735   5.859   1.174 -0.1139  0.1017  0.3960
 4905W        W22429   6.500   3.607  13.405 -0.0090 -0.0056  0.0930
 4906W        W22430  17.398   6.179   1.857 -0.1654  0.0626  0.2530
 4907W        W22431   1.904   0.840  13.283  0.1077 -0.2977  0.0974
 4908W        W22432  16.089   1.732   1.721  0.0499 -0.0204  0.1308
 4909W        W22433   8.090   9.512   2.280  0.0929  0.0274 -0.0300
 4910W        W22434   4.920  17.529  16.072  0.0267 -0.0724  0.0644
 4911W        W22435  11.540   2.095  11.287 -0.1561  0.0669 -0.0413
 4912W        W22436  14.704  14.614   1.594  0.0207  0.2130 -0.1737
 4913W        W22437  11.454   4.891   5.121  0.3114 -0.3440  0.2298
 4914W        W22438  14.242  12.673   1.378 -0.2499  0.4454  0.2314
 4915W        W22439   3.812   9.275   3.297 -0.3769 -0.3194  0.2284
 4916W        W22440   2.864  15.231   2.024 -0.1514 -0.1774  0.0535
 4917W        W22441  16.217   6.701  15.344  0.1152  0.1815  0.3843
 4918W        W22442   1.674   4.328  11.439 -0.1231 -0.4734  0.0117
 4919W        W22443  14.768   1.332  14.177 -0.1229 -0.0508  0.2228
 4920W        W22444   7.020  15.975  15.507 -0.2696  0.1085 -0.0511
 4921W        W22445  16.601  10.230  11.112 -0.2597 -0.2282 -0.2040
 4922W        W22446   4.491  14.428   0.411 -0.0774  0.0234  0.1429
 4923W        W22447   3.128   8.755  10.866  0.3324  0.1022 -0.0125
 4924W        W22448  12.588   5.118  11.807 -0.2364 -0.0322 -0.0877
 4925W        W22449   6.732   4.780  15.396 -0.2488 -0.0148  0.1588
 4926W        W22450   6.995   6.148   4.536 -0.0238 -0.0000  0.2529
 4927W        W22451   3.098   7.247   2.727  0.2609 -0.0503  0.3802
 4928W        W22452   7.732   6.435   3.609  0.1047 -0.3140 -0.2302
 4929W        W22453   0.092  13.316  15.033  0.2666  0.1480  0.0182
 4930W        W22454  15.389   3.243   0.018  0.2464  0.1056  0.3935
 4931W        W22455   7.214   1.587  11.501 -0.1069  0.1325  0.1874
 4932W        W22456   8.631  16.004  15.176 -0.2074  0.0665  0.1916
 4933W        W22457   4.993   8.390   3.019  0.0342 -0.0617 -0.2522
 4934W        W22458  14.346  14.962  15.025 -0.1932 -0.0259  0.0191
 4935W        W22459   7.596   7.804  14.281 -0.0559  0.1286 -0.0265
 4936W        W22460   0.275  15.092   3.234  0.1932  0.2207  0.0278
 4937W        W22461   6.025  12.782  12.485 -0.0115 -0.0740 -0.0872
 4938W        W22462   1.687   0.224   2.895 -0.0120  0.0986  0.0848
 4939W        W22463   3.088   8.957   0.458  0.1007 -0.0361  0.3283
 4940W        W22464  16.611   6.359  14.439  0.2565  0.2591 -0.0530
 4941W        W22465  14.697   8.098   0.057  0.2119 -0.2384  0.1184
 4942W        W22466  12.832   2.362  15.859  0.1483  0.4069  0.0308
 4943W        W22467   3.413   9.077  11.121 -0.3285  0.3472 -0.4424
 4944W        W22468   7.031  17.111   2.448  0.1268  0.2468 -0.1638
 4945W        W22469   0.493   7.645  14.433  0.2850 -0.1277  0.1598
 4946W        W22470   4.626  15.356   2.234  0.0482 -0.2422 -0.1202
 4947W        W22471   1.474   6.898   3.158  0.0497 -0.1781  0.4317
 4948W        W22472   5.450   0.657  12.359  0.1176 -0.1290 -0.2739
 4949W        W22473   0.631   5.854   1.950  0.2836 -0.0777 -0.1080
 4950W        W22474   2.515  15.498   1.688  0.0912 -0.3247 -0.3511
 4951W        W22475   1.291   8.726   3.461  0.0199 -0.0133  0.0385
 4952W        W22476   2.803   2.751  15.374  0.0601  0.1471 -0.1321
 4953W        W22477  15.025  17.090   3.547  0.0295 -0.0797  0.0642
 4954W        W22478  12.355  17.836   1.297  0.4780 -0.0147 -0.0378
 4955W        W22479  15.538  12.429   4.390 -0.2207 -0.0946 -0.0526
 4956W        W22480  16.836  14.521   3.633 -0.1799  0.1994  0.0236
 4957W        W22481  13.671   7.724  13.989 -0.2857 -0.0894  0.2384
 4958W        W22482   9.458   3.495   4.084  0.1186 -0.2094  0.0720
 4959W        W22483   2.556   0.807  16.197  0.2396  0.1055 -0.3134
 4960W        W22484   6.156   2.310  16.098  0.0063 -0.0212  0.0292
 4961W        W22485   9.716   5.178   2.772 -0.0719 -0.0226  0.2427
 4962W        W22486  17.657  12.846   2.135 -0.0924 -0.0881 -0.1645
 4963W        W22487   9.075   2.956   1.860  0.0916 -0.4590 -0.1521
 4964W        W22488   2.193   1.912  16.335 -0.1305 -0.0648 -0.2010
 4965W        W22489  11.196  14.633  14.156  0.2064 -0.4147 -0.0233
 4966W        W22490   4.453   5.799   3.796  0.0246  0.0867  0.3518
 4967W        W22491  16.826   8.732  14.955 -0.2401  0.0307  0.0609
 4968W        W22492  15.980   5.891  14.276  0.1648 -0.1637 -0.0129
 4969W        W22493   2.989  12.346  13.759  0.6182 -0.2655  0.0465
 4970W        W22494  11.252  15.022  16.024 -0.0169  0.0648  0.0273
 4971W        W22495  14.613   0.911  12.295 -0.2025 -0.0518 -0.0486
 4972W        W22496  17.003   2.956  13.525 -0.2014  0.1626 -0.0666
 4973W        W22497  11.357   0.580  14.856 -0.0662 -0.0809 -0.4073
 4974W        W22498  14.420   2.157   2.909  0.1909  0.0654 -0.0852
 4975W        W22499   4.254  13.863   4.358 -0.0803  0.3486  0.0341
 4976W        W22500  17.537   1.974   1.915  0.2229  0.0462 -0.0962
 4977W        W22501  17.116  14.808   5.426 -0.1005 -0.0250 -0.0164
 4978W        W22502   9.073   1.088   2.383 -0.1497  0.1382 -0.0498
 4979W        W22503   9.161   6.722   0.763  0.0293 -0.0061 -0.1458
 4980W        W22504   8.921   7.849   0.479 -0.1164  0.1742  0.0200
 4981W        W22505  11.731  13.470   0.686  0.2327 -0.0109  0.3131
 4982W        W22506  14.111  16.957   3.961 -0.2964 -0.1755 -0.1263
 4983W        W22507   2.421   8.374  13.637 -0.0137  0.3164 -0.2454
 4984W        W22508  16.185  17.312  14.631  0.1788 -0.2439 -0.1893
 4985W        W22509  12.226   1.363   0.201 -0.4538 -0.0369  0.0285
 4986W        W22510  13.161   3.668   4.011 -0.2759  0.2082 -0.0333
 4987W        W22511   9.952  15.934  14.061 -0.1039  0.1362 -0.0450
 4988W        W22512   6.527   1.071  13.800 -0.3445  0.1862 -0.0705
 4989W        W22513   9.368   4.382  12.163  0.1368 -0.4235 -0.0900
 4990W        W22514  12.531   7.056   2.696 -0.1142  0.3309  0.1092
 4991W        W22515  10.455   1.030  14.993 -0.0231  0.0340  0.1706
 4992W        W22516  11.908  11.774  10.739  0.3749 -0.0713  0.0472
 4993W        W22517   9.578   8.743  15.430 -0.0465  0.1577  0.1351
 4994W        W22518   4.210  11.669  14.760  0.0660 -0.1318  0.1741
 4995W        W22519   0.633   9.668  14.362 -0.2220 -0.0980 -0.0355
 4996W        W22520   8.764   6.972   1.533  0.2948  0.2029 -0.2105
 4997W        W22521   4.477   0.363  14.858 -0.1087 -0.0603  0.0580
 4998W        W22522  17.078   7.349   2.928 -0.0801  0.0734  0.0197
 4999W        W22523   7.402   7.954  15.207 -0.1718 -0.1835 -0.0703
 5000W        W22524   3.245   6.065   4.352 -0.0621 -0.1438  0.0894
 5001W        W22525  11.714   6.272   1.222  0.2629 -0.1421 -0.2919
 5002W        W22526   3.852   4.885   2.637  0.0712  0.0490  0.1207
 5003W        W22527  16.908  16.074   2.216  0.0223  0.1796 -0.0886
 5004W        W22528   5.989  13.200   4.821  0.4583 -0.3100  0.1475
 5005W        W22529   7.505  12.614  16.451 -0.0979 -0.1228 -0.1033
 5006W        W22530   8.112  14.428   2.528  0.0452  0.2763 -0.0015
 5007W        W22531  11.872  13.934  12.737 -0.0944 -0.1037 -0.2770
 5008W        W22532  14.121   0.011   2.279  0.0930 -0.2773  0.0525
 5009W        W22533  11.984   6.507  15.603 -0.4249  0.0301  0.0737
 5010W        W22534   6.300   4.216  11.833 -0.1028 -0.1805  0.0105
 5011W        W22535  17.036   1.673  13.353 -0.3144  0.0124  0.3446
 5012W        W22536   4.640  13.343   2.633 -0.1455 -0.0458 -0.1454
 5013W        W22537  12.492   9.786  15.673 -0.0340 -0.2035 -0.1395
 5014W        W22538   3.120   7.398   4.888  0.0629  0.2757 -0.1459
 5015W        W22539  10.510   9.609   1.330  0.0158  0.1196 -0.0720
 5016W        W22540   6.832   5.681  11.544 -0.3284  0.1355  0.0168
 5017W        W22541   5.442   9.795   1.360  0.2985 -0.1883  0.2519
 5018W        W22542   6.640  17.567  13.758 -0.0413  0.1553  0.0069
 5019W        W22543  12.780   9.294   0.492 -0.1686  0.3436 -0.4315
 5020W        W22544   1.663   4.998  11.976  0.0242  0.2900  0.3658
 5021W        W22545   4.950   1.115   3.806 -0.2074 -0.0474  0.1452
 5022W        W22546  10.055   9.709   4.360 -0.2895 -0.2867  0.0876
 5023W        W22547  14.390  12.878   4.091 -0.0390  0.2275 -0.1644
 5024W        W22548   8.284  14.489   0.368 -0.1400 -0.2445  0.2465
 5025W        W22549   6.058  14.358   3.570 -0.2207 -0.2990 -0.0560
 5026W        W22550   4.379   6.623  11.201  0.2915 -0.1129  0.0248
 5027W        W22551  13.240   0.705  12.580 -0.1414 -0.0365 -0.0355
 5028W        W22552  17.271  16.117   3.497  0.3492  0.2480 -0.1893
 5029W        W22553   9.374   2.509  13.312  0.1366 -0.0178  0.0868
 5030W        W22554   8.220  13.337   0.873  0.0824  0.0160  0.0153
 5031W        W22555  10.119  12.740   0.068 -0.0650  0.0352  0.1832
 5032W        W22556   3.461  17.318   0.214 -0.3968  0.1630  0.1942
 5033W        W22557   4.338  13.001  13.166  0.1897 -0.0590 -0.1169
 5034W        W22558   3.040  10.447   3.356 -0.1781  0.2929  0.0558
 5035W        W22559   8.007   5.962  11.654 -0.0183  0.0346 -0.4228
 5036W        W22560   8.297  16.493   2.948 -0.1224  0.1462 -0.0894
 5037W        W22561   0.482  17.235  13.858  0.1846  0.1448  0.1738
 5038W        W22562  10.020   3.492   4.045  0.1376  0.0266  0.2158
 5039W        W22563   1.083   5.832  16.166 -0.0635  0.2174 -0.1068
 5040W        W22564   0.893   2.027   4.410 -0.1265 -0.2215 -0.1089
 5041W        W22565   0.329  13.861  11.764  0.4186 -0.1700 -0.2551
 5042W        W22566  10.419  13.143  14.458 -0.3744  0.3626 -0.2058
 5043W        W22567   9.981   7.726  11.746 -0.4110 -0.0570  0.1952
 5044W        W22568  17.752   6.402   4.356  0.1177 -0.2146 -0.0563
 5045W        W22569   7.150  14.925  13.080  0.0808  0.0474  0.0634
 5046W        W22570  15.130  16.707   3.842 -0.0910  0.2633 -0.0462
 5047W        W22571  10.974   8.990  13.418  0.0237  0.4480 -0.2558
 5048W        W22572  14.491  17.115   4.774  0.2278 -0.0627 -0.1942
 5049W        W22573  15.793  11.870  15.669 -0.2461 -0.0360  0.3351
 5050W        W22574   6.381   2.876   0.769 -0.3710  0.1717  0.0283
 5051W        W22575  10.822   4.502  16.414 -0.2628 -0.2710 -0.1401
 5052W        W22576   2.356   5.757   0.287 -0.2145 -0.0670  0.0300
 5053W        W22577  14.020  15.620  13.543 -0.0335 -0.0291 -0.1889
 5054W        W22578  15.697  10.591   1.936 -0.2674  0.0520  0.0816
 5055W        W22579  12.500   2.877   0.624 -0.3179  0.1265 -0.0199
 5056W        W22580   7.131   7.744   4.426  0.0572 -0.1676  0.1420
 5057W        W22581  13.018   4.092   0.939  0.3074  0.0795 -0.1084
 5058W        W22582   2.014  10.827   0.980 -0.1739  0.2102 -0.0628
 5059W        W22583  14.555  15.844  12.077  0.0953  0.0949 -0.0985
 5060W        W22584  17.230   7.905  12.230  0.5758 -0.0393  0.1746
 5061W        W22585  10.664   5.528   1.684 -0.1262 -0.2121 -0.1392
 5062W        W22586  12.620   9.177   3.432  0.1208  0.0384  0.1523
 5063W        W22587  12.049   7.757   5.627 -0.2508  0.3329  0.1585
 5064W        W22588   1.570   9.292   4.026  0.0486 -0.1306 -0.3822
 5065W        W22589   6.453   2.232  14.232  0.0949 -0.0327 -0.1748
 5066W        W22590   4.300   9.623  13.671  0.1891 -0.1910 -0.0491
 5067W        W22591  17.029   8.453  11.128  0.2935  0.1162  0.0339
 5068W        W22592  13.914  11.400   4.650  0.2451  0.0622 -0.3419
 5069W        W22593   7.364   3.472   2.417 -0.0312  0.2904  0.0508
 5070W        W22594  17.904   0.291   2.965 -0.1884  0.0277  0.3581
 5071W        W22595  16.831  12.125   0.120  0.1183 -0.3786  0.1604
 5072W        W22596   7.816  14.762  14.801 -0.2887  0.1130  0.4504
 5073W        W22597   3.885   6.247  15.118  0.0456  0.3085 -0.0296
 5074W        W22598   4.214   9.418  15.703 -0.2892 -0.4743  0.0733
 5075W        W22599  13.111   4.192   3.545  0.3746 -0.3358 -0.0451
 5076W        W22600  11.904   4.597  15.105 -0.0917 -0.1141 -0.2456
 5077W        W22601   3.546   9.758  13.159  0.0901 -0.0321 -0.0760
 5078W        W22602  15.749  11.356   1.281 -0.2746  0.0733 -0.4062
 5079W        W22603   9.246  13.318   0.413  0.1293  0.0631 -0.0176
 5080W        W22604  11.768  13.502  15.060 -0.1005 -0.1052  0.0757
 5081W        W22605   4.678   3.082   1.781 -0.1782 -0.4863 -0.2004
 5082W        W22606  15.515  16.073  15.737  0.0031 -0.0069  0.1003
 5083W        W22607   8.812   5.029  12.828  0.1232  0.0946 -0.0127
 5084W        W22608  13.286  11.677   1.834  0.1344 -0.0897 -0.0261
 5085W        W22609  10.995  17.562  13.528 -0.0398 -0.1116  0.0830
 5086W        W22610  10.822   9.753  11.803 -0.1674 -0.3704  0.0378
 5087W        W22611   0.692  16.197   2.428  0.1466 -0.0139  0.1784
 5088W        W22612  12.445  16.921   1.875  0.1506 -0.0969 -0.0855
 5089W        W22613  17.855  17.282   4.448 -0.0624 -0.0696 -0.0300
 5090W        W22614   5.787   2.644  12.934 -0.0994 -0.1747 -0.0744
 5091W        W22615   3.443   3.897  13.521 -0.4602 -0.1630  0.1503
 5092W        W22616   9.853   1.456   0.076 -0.1289 -0.0742 -0.0986
 5093W        W22617  10.473   7.668  11.630  0.3187  0.1577  0.2741
 5094W        W22618  15.603  12.243   3.877  0.1851  0.2729  0.1189
 5095W        W22619   2.372  14.260   3.820  0.2366 -0.3596 -0.2004
 5096W        W22620  11.792   7.709  13.720  0.2190 -0.1275 -0.1723
 5097W        W22621  12.963   3.230   1.534 -0.1099  0.2583  0.0492
 5098W        W22622   8.600   2.140   4.381 -0.1629  0.0454  0.2681
 5099W        W22623  13.312   5.281  15.152  0.0961  0.1510  0.0490
 5100W        W22624   9.410   7.033  15.405 -0.3335  0.2291 -0.1563
 5101W        W22625   0.574   3.624   0.127 -0.0486 -0.4414 -0.1219
 5102W        W22626   5.848   3.726  13.549  0.0741 -0.1581  0.2081
 5103W        W22627  17.147   4.752   2.160 -0.3989  0.2543  0.1891
 5104W        W22628   5.335  12.034  12.265  0.1768 -0.1601 -0.1609
 5105W        W22629   2.215   3.387  15.979  0.0580 -0.4494  0.1617
 5106W        W22630  12.037  12.740  14.349 -0.2689 -0.1118 -0.2866
 5107W        W22631  14.427   9.040  16.073  0.1048 -0.0226 -0.0641
 5108W        W22632   8.268  13.580  13.872 -0.2223 -0.3137  0.3058
 5109W        W22633   0.175   0.504   5.368  0.0814  0.0708 -0.0137
 5110W        W22634  15.575   0.628  14.972 -0.0643 -0.0168 -0.1292
 5111W        W22635  16.948  17.353  15.234 -0.1017  0.0914 -0.1335
 5112W        W22636   6.400   1.920  13.879 -0.0920  0.0332  0.2751
 5113W        W22637  13.686   2.885  15.014 -0.1872 -0.1691  0.2934
 5114W        W22638  14.601   8.958  11.798  0.1498  0.2678  0.0624
 5115W        W22639  16.086   7.233   4.923 -0.1832  0.2640  0.4068
 5116W        W22640   4.164  16.018  15.784  0.3664 -0.0394 -0.3013
 5117W        W22641  11.929   8.189  13.073  0.0685  0.2294  0.0570
 5118W        W22642  16.743   8.967  12.768  0.1695 -0.0291  0.0653
 5119W        W22643   7.627  13.770  14.356  0.2275  0.0052 -0.1850
 5120W        W22644  17.556   4.556  14.253 -0.3371 -0.1377  0.1028
 5121W        W22645   0.422   6.855  12.535  0.0188 -0.2493  0.1931
 5122W        W22646  10.098  13.649  16.365 -0.0736 -0.2815  0.0524
 5123W        W22647  14.878  16.205  15.067  0.0705 -0.0313  0.0054
 5124W        W22648  13.626   3.477  12.425 -0.2215  0.0422 -0.1652
 5125W        W22649  11.674  13.180   5.222 -0.2938  0.0440 -0.1044
 5126W        W22650   0.477   2.485   2.106 -0.0534  0.1932  0.1630
 5127W        W22651   7.450   6.182  15.239 -0.0207 -0.2790  0.0201
 5128W        W22652  12.052   2.612  13.385 -0.0631 -0.0168 -0.0744
 5129W        W22653  11.165   6.661   5.109 -0.2351 -0.0174 -0.2358
 5130W        W22654  11.248   8.153  15.699  0.1687  0.2547  0.2738
 5131W        W22655   4.946   7.690   3.528 -0.1007  0.1616  0.1286
 5132W        W22656  12.326  17.562   5.622 -0.1828  0.1536  0.0819
 5133W        W22657   6.644   2.182  15.339 -0.0453 -0.1155 -0.2413
 5134W        W22658  12.024  15.832  12.457 -0.3475 -0.1981  0.0857
 5135W        W22659   6.493   6.077  15.669 -0.1444 -0.2066 -0.2389
 5136W        W22660   5.310  17.034  11.860  0.0175 -0.2241  0.0264
 5137W        W22661   6.782  16.791   4.071 -0.0032  0.0157  0.0367
 5138W        W22662   5.077  11.833   0.309 -0.0655  0.0665 -0.0599
 5139W        W22663   2.510   6.063  13.905  0.1908  0.3495  0.3705
 5140W        W22664  17.227  17.144  13.093  0.1531 -0.0121  0.2461
 5141W        W22665  11.756  17.622   1.657 -0.0044 -0.2905  0.0552
 5142W        W22666   0.456   3.279   1.922  0.1686 -0.3454  0.0273
 5143W        W22667  14.504   4.691  13.232  0.0031  0.1901 -0.5345
 5144W        W22668  17.015   4.385  13.592 -0.0467  0.0087  0.1545
 5145W        W22669  12.132  15.530   4.836 -0.0856 -0.0704 -0.0493
 5146W        W22670   5.996   1.917  15.186  0.0865 -0.1580 -0.2889
 5147W        W22671   5.260   1.969   3.694 -0.3859 -0.0284 -0.0978
 5148W        W22672  16.349  15.913   0.458 -0.2458 -0.0256 -0.1927
 5149W        W22673  10.546  16.620  13.745 -0.3849  0.1711 -0.1893
 5150W        W22674  10.991   5.227  12.128 -0.1928  0.0179 -0.1139
 5151W        W22675   7.408  12.589   4.678 -0.1052 -0.3742 -0.2761
 5152W        W22676  17.196   0.881   0.049 -0.1866 -0.0097  0.1362
 5153W        W22677   5.224  10.976  15.545  0.2878  0.1843 -0.0216
 5154W        W22678   2.151  14.227   0.919  0.3395 -0.0983  0.3233
 5155W        W22679   0.200   7.399   3.728 -0.2225  0.1848 -0.2105
 5156W        W22680   4.880   3.013   0.799 -0.0903  0.2778  0.3243
 5157W        W22681   9.983  15.751   3.927 -0.0332  0.0502 -0.3514
 5158W        W22682  17.358   7.702   0.013 -0.1550  0.0617 -0.1723
 5159W        W22683  16.515  16.706   4.223  0.2132  0.1072  0.1989
 5160W        W22684   6.589  17.262   5.416 -0.0891 -0.1842 -0.0248
 5161W        W22685   7.049   6.701  13.020  0.1680  0.1245 -0.0956
 5162W        W22686  13.976  13.671   4.154 -0.1596  0.1486 -0.2117
 5163W        W22687   6.635  11.561  13.631 -0.1246  0.4090  0.2359
 5164W        W22688   3.530  10.617  11.605 -0.3069  0.2599 -0.1065
 5165W        W22689  15.371   8.105   4.231  0.1069 -0.1283  0.1713
 5166W        W22690  13.042   9.659  11.908  0.1731 -0.3721 -0.0699
 5167W        W22691  14.630   5.649   0.700  0.1941  0.0790  0.0918
 5168W        W22692   5.400  10.992  12.251  0.3833  0.1226  0.1192
 5169W        W22693  16.617   1.759  16.122  0.1926  0.0883  0.0031
 5170W        W22694  14.876   0.296   3.397  0.0561 -0.0541  0.1562
 5171W        W22695   2.562  10.135   0.150  0.2427  0.0660 -0.0095
 5172W        W22696   9.339   8.609  16.120  0.0460 -0.1831  0.0437
 5173W        W22697   2.957  13.852  12.216  0.0788 -0.1226  0.1341
 5174W        W22698  15.157  10.539   1.476 -0.3428  0.2358  0.2584
 5175W        W22699  11.927   0.118   1.667 -0.1949 -0.0678 -0.2446
 5176W        W22700   3.524  13.927   1.230 -0.0048 -0.0809 -0.1686
 5177W        W22701   7.907  17.535  12.690  0.1016 -0.2756 -0.1173
 5178W        W22702   7.864  10.281   5.799 -0.1360  0.1401  0.1958
 5179W        W22703  17.963   0.724  14.243  0.0493 -0.3632  0.3497
 5180W        W22704   4.564   3.960   4.281  0.1197 -0.0426  0.3914
 5181W        W22705  17.369   9.375   1.008  0.1172 -0.1105 -0.5753
 5182W        W22706   0.204   1.311  15.572 -0.1973 -0.0960 -0.1733
 5183W        W22707   6.505   4.623   0.192 -0.4198 -0.2855  0.2957
 5184W        W22708   4.982   0.130  12.641  0.2030  0.4374  0.1123
 5185W        W22709  17.492   5.095   3.473 -0.0112  0.0874 -0.0216
 5186W        W22710  14.419  16.216  15.273  0.1241 -0.1332 -0.0942
 5187W        W22711  17.542   3.491  11.930  0.0058  0.1279 -0.2974
 5188W        W22712   7.268   6.186   3.697 -0.2342 -0.6344  0.0906
 5189W        W22713   6.032   0.722   3.476  0.0493 -0.1052  0.0935
 5190W        W22714   4.732   4.007   5.171  0.1069  0.0414 -0.1659
 5191W        W22715  13.317  12.516  12.623 -0.0063  0.1303  0.2582
 5192W        W22716   3.250   7.671   0.737  0.0557  0.0464  0.1056
 5193W        W22717  10.867   4.003  13.700  0.1495  0.1552  0.2068
 5194W        W22718  15.922   7.280   3.481 -0.0218  0.1753  0.1459
 5195W        W22719   2.299   0.575   1.740 -0.2374 -0.1912  0.0935
 5196W        W22720  13.460   9.249  16.290 -0.0560 -0.1496  0.1103
 5197W        W22721   5.812  10.385  11.973 -0.1055  0.3673  0.1509
 5198W        W22722  12.682   6.341   0.278  0.0593 -0.4707 -0.3000
 5199W        W22723  14.615   5.258   5.029 -0.2148  0.3401 -0.1734
 5200W        W22724   2.077  16.028  13.682  0.0416 -0.0839 -0.2121
 5201W        W22725   1.023  12.281  12.662  0.1131  0.2814 -0.0251
 5202W        W22726   8.339   6.546  14.186 -0.0919  0.0284  0.1749
 5203W        W22727  17.689  11.841   3.225  0.2323  0.1186 -0.0064
 5204W        W22728   5.455  12.192  13.753  0.0978 -0.2315  0.1285
 5205W        W22729  13.745   4.400  13.985  0.3070  0.3734 -0.0094
 5206W        W22730   7.632  15.250  11.921 -0.2091  0.2233  0.2036
 5207W        W22731  14.136   0.715  13.849  0.0017 -0.0616 -0.0481
 5208W        W22732   6.113  11.132   1.464 -0.0107 -0.1973 -0.1630
 5209W        W22733   1.687   4.807   1.552  0.2341  0.2709 -0.0515
 5210W        W22734  16.729  12.949   4.706 -0.5274  0.2776 -0.2225
 5211W        W22735  17.330   3.663  15.787 -0.2617  0.0052 -0.0259
 5212W        W22736   0.494  16.828  16.211 -0.2176 -0.0417 -0.1978
 5213W        W22737  15.721  11.339  11.502  0.1343 -0.2847 -0.0521
 5214W        W22738   6.101   3.358   2.485 -0.1542 -0.0741 -0.1697
 5215W        W22739   6.792  10.593   2.089  0.0348 -0.2425 -0.0458
 5216W        W22740  14.819  16.351   0.478 -0.0053 -0.1006  0.0974
 5217W        W22741   5.261  15.306   2.966 -0.1669 -0.0155  0.3143
 5218W        W22742   1.233  13.139  13.121  0.0897 -0.1831 -0.2768
 5219W        W22743   2.393   1.810  11.756 -0.1287 -0.1239  0.0959
 5220W        W22744   5.216  16.522  12.938  0.0452 -0.1078  0.0648
 5221W        W22745  13.106   3.668  14.988  0.1274  0.2579  0.3722
 5222W        W22746   7.798  14.344  15.974  0.1361  0.0471 -0.3437
 5223W        W22747  12.711  16.243  14.045 -0.1208  0.1910 -0.4493
 5224W        W22748   2.849  13.024  14.902 -0.3636  0.2372 -0.0073
 5225W        W22749  15.804   5.342  12.038 -0.1632  0.0109 -0.1715
 5226W        W22750  10.563  10.817   3.665 -0.1136 -0.1685  0.3288
 5227W        W22751  15.765  16.067  13.072 -0.1215  0.0535 -0.2096
 5228W        W22752   3.950   8.661   3.403 -0.0610  0.2365 -0.0611
 5229W        W22753  16.287  10.329  13.549 -0.2101  0.1772  0.1101
 5230W        W22754  10.130  17.451  12.831  0.2149  0.2667  0.0063
 5231W        W22755  10.631   2.625   5.199 -0.2780 -0.0575  0.0737
 5232W        W22756   1.341  10.445   2.547 -0.2964 -0.2008 -0.0960
 5233W        W22757  17.374   4.918  14.606  0.2938  0.2112 -0.1360
 5234W        W22758   0.255  11.867   0.636 -0.3982 -0.0617 -0.3942
 5235W        W22759   4.025   3.090   4.336  0.0096  0.1258 -0.0394
 5236W        W22760  15.528  14.980  16.230  0.2977 -0.3592  0.2666
 5237W        W22761   0.508   7.009  16.299 -0.2329 -0.0899  0.0159
 5238W        W22762  13.683  10.958  13.738 -0.1742 -0.1171  0.4380
 5239W        W22763   2.981   1.376  15.873  0.1625  0.0988 -0.1478
 5240W        W22764   6.044  14.631  14.801  0.1737 -0.2088  0.0050
 5241W        W22765   3.108   4.796   0.991  0.0476  0.2309  0.1330
 5242W        W22766  17.617  11.210  13.151  0.0171  0.3272  0.0836
 5243W        W22767  14.272  14.850   1.825 -0.5363  0.2132  0.1617
 5244W        W22768   6.581  13.608   1.319 -0.0963  0.2412  0.1835
 5245W        W22769   3.780   7.605  14.953  0.1420 -0.2693 -0.1493
 5246W        W22770  13.261   8.332  12.082  0.2054 -0.3071  0.1820
 5247W        W22771  10.485   4.784  14.152  0.0898  0.0199 -0.1578
 5248W        W22772   4.946   5.472   2.096  0.4667  0.1132 -0.1155
 5249W        W22773   3.575   3.942  15.280 -0.0092 -0.1934  0.3235
 5250W        W22774   5.609   9.624  16.090 -0.0091  0.3126 -0.1422
 5251W        W22775   9.254   4.380   3.662  0.1327  0.0288 -0.1896
 5252W        W22776  13.954   9.460  11.890 -0.0151 -0.3266 -0.5185
 5253W        W22777   9.262   9.510   0.427 -0.0282  0.0096 -0.0070
 5254W        W22778   6.415   7.078  12.756 -0.5536 -0.0645  0.0736
 5255W        W22779   7.940  11.819  13.741  0.0138  0.1476 -0.2079
 5256W        W22780  12.338  13.877   0.300 -0.0539  0.1758 -0.1175
 5257W        W22781  13.816  12.608  12.490  0.1766  0.1741  0.2839
 5258W        W22782   0.407   5.093  14.160 -0.0932 -0.0782 -0.1957
 5259W        W22783  13.095  14.727   5.318 -0.1489  0.2181  0.0909
 5260W        W22784   8.252  13.718  15.060  0.1071  0.1163 -0.1677
 5261W        W22785  10.322  10.411  14.902  0.1401 -0.1364 -0.2869
 5262W        W22786   6.001  16.796   1.374 -0.1369 -0.0598 -0.0494
 5263W        W22787   7.191   1.037  12.572  0.3818 -0.1204 -0.1087
 5264W        W22788   6.517  14.432   0.035 -0.1083  0.0249 -0.0426
 5265W        W22789   6.943  14.434   1.462 -0.1442 -0.0027  0.0945
 5266W        W22790   6.807   3.916  11.493  0.1531  0.1704  0.0353
 5267W        W22791  11.789   3.680   4.396  0.1775 -0.0365  0.0302
 5268W        W22792  17.820   9.665   4.870  0.0318 -0.0054  0.1778
 5269W        W22793   8.390   5.843   2.107 -0.2413  0.0072 -0.0532
 5270W        W22794  17.737   0.355  15.490 -0.1334  0.1383  0.0980
 5271W        W22795   6.757   4.785   4.359  0.3272 -0.1360 -0.2173
 5272W        W22796   0.007   6.857   0.602 -0.2289 -0.0321  0.1998
 5273W        W22797  11.344   6.209  12.295 -0.1281  0.0033 -0.0359
 5274W        W22798  15.661   8.601  12.536 -0.1271 -0.0036 -0.1473
 5275W        W22799   5.331   2.611  15.673 -0.0116 -0.0901  0.1213
 5276W        W22800  13.229   5.486   1.501 -0.1516 -0.0137 -0.0725
 5277W        W22801  15.938  16.665   5.049  0.2041  0.2857  0.1538
 5278W        W22802   7.328   8.123   1.651 -0.0395  0.0547 -0.0358
 5279W        W22803   0.711  10.672   1.985 -0.0545  0.1050 -0.1099
 5280W        W22804  17.666   3.718   4.066 -0.0475 -0.0085 -0.0477
 5281W        W22805   2.601   7.845   0.293  0.3061  0.0166 -0.1708
 5282W        W22806   8.208  13.512   1.989 -0.2223 -0.1110  0.0729
 5283W        W22807   0.082  11.061   5.106  0.0068  0.1948 -0.1959
 5284W        W22808  17.154   2.285   4.457 -0.1330  0.0394 -0.0096
 5285W        W22809   5.849   2.095   4.544  0.3454  0.0076  0.0948
 5286W        W22810   2.142   4.410  11.434 -0.2456  0.2782  0.0499
 5287W        W22811   7.972   4.520  10.688 -0.0719  0.1124  0.2484
 5288W        W22812   2.956  12.563  11.608  0.1719 -0.3043  0.1097
 5289W        W22813  14.233  13.794  15.311 -0.0522 -0.2425 -0.2381
 5290W        W22814   6.810   9.302  13.764 -0.4036  0.7833  0.2889
 5291W        W22815   4.768  16.640   0.020  0.2356  0.1712  0.1088
 5292W        W22816   3.780   3.845  10.482  0.0716 -0.1235  0.0856
 5293W        W22817   6.189  11.688  13.823  0.0765  0.5262  0.2888
 5294W        W22818  17.685   1.302  15.373 -0.0853  0.2391  0.0371
 5295W        W22819   8.182   0.771   2.284  0.0830  0.0531  0.0136
 5296W        W22820   3.632  16.047   0.282  0.0578 -0.2529 -0.1318
 5297W        W22821   0.568   4.198  12.943  0.1302  0.0868  0.0322
 5298W        W22822   7.051  16.291   1.794  0.0495  0.1876 -0.1808
 5299W        W22823   8.870   3.671  12.584  0.2925 -0.1826 -0.0315
 5300W        W22824   7.140   5.084   3.689 -0.2583 -0.0861  0.1592
 5301W        W22825   7.204  16.518   0.747  0.0933  0.2199  0.1230
 5302W        W22826   7.380   3.253  14.047  0.2276 -0.1355  0.1024
 5303W        W22827   2.814  11.885   1.002 -0.0011  0.1827  0.1409
 5304W        W22828   7.922   2.286  14.051 -0.1600  0.0216  0.1442
 5305W        W22829   0.034   1.277  12.897  0.1850 -0.4141 -0.0260
 5306W        W22830   0.929   3.272  11.632  0.1234  0.0344  0.0565
 5307W        W22831  11.824  12.601   0.894 -0.2512  0.2186  0.2039
 5308W        W22832  17.377   0.082  15.082  0.4562  0.0542  0.0846
 5309W        W22833  12.082  13.907   5.642 -0.2857  0.2521 -0.0984
 5310W        W22834  14.676   9.116  15.560 -0.1958  0.2830  0.1385
 5311W        W22835   4.069   3.647   3.683 -0.0635 -0.3497  0.5133
 5312W        W22836   7.912   2.748  16.077  0.0689 -0.3026  0.0175
 5313W        W22837   7.988  11.646   2.767  0.1274 -0.0778 -0.0897
 5314W        W22838   7.865  16.722   3.344  0.0142  0.2378 -0.0185
 5315W        W22839   4.762  16.390   3.247  0.1345 -0.1167  0.0031
 5316W        W22840  17.463  17.841   3.106  0.0576 -0.3956 -0.2962
 5317W        W22841   4.733   2.747  12.780 -0.1986 -0.2223  0.4015
 5318W        W22842   7.513   4.049  14.019 -0.2467 -0.0595  0.1998
 5319W        W22843   4.755   0.350  16.459  0.0850  0.0582  0.5081
 5320W        W22844  15.242  14.929  14.999  0.2185 -0.4505 -0.0138
 5321W        W22845  11.672   5.787  14.614 -0.2871  0.1375 -0.0651
 5322W        W22846   2.790  11.643   0.521 -0.0771  0.0017 -0.0758
 5323W        W22847   4.955  16.817  13.850  0.0055 -0.3285 -0.1647
 5324W        W22848   1.183   0.310  15.907 -0.0099 -0.2009  0.0796
 5325W        W22849  16.826   6.003   2.545  0.0442 -0.0334  0.1120
 5326W        W22850   2.020   4.263   3.189 -0.1422  0.2371 -0.4492
 5327W        W22851   8.057  13.634  15.526  0.1962 -0.1598  0.3243
 5328W        W22852   6.281   1.107  11.338 -0.2053  0.0005  0.1251
 5329W        W22853  12.592  15.219   1.228  0.0001 -0.0234  0.0421
 5330W        W22854   1.641  17.720   0.946  0.2010 -0.1941  0.0218
 5331W        W22855  12.716  13.269  16.166 -0.1618 -0.1448 -0.0477
 5332W        W22856  10.395  11.123   4.690  0.1597 -0.0102  0.0643
 5333W        W22857   0.264  14.670  12.229  0.0373 -0.0996  0.1417
 5334W        W22858   9.524   6.915   0.437 -0.1865  0.3382  0.1430
 5335W        W22859   6.814   7.700  13.756  0.0217  0.0034  0.0440
 5336W        W22860  12.746   4.889  13.093  0.1108 -0.0310 -0.2504
 5337W        W22861  14.561   0.611   1.331  0.1983  0.0044  0.3812
 5338W        W22862   6.211  15.127  12.509 -0.1087  0.0564 -0.0000
 5339W        W22863   2.629  15.362   3.007 -0.0962 -0.0752 -0.0537
 5340W        W22864   3.029   8.886  11.372 -0.2851  0.3019 -0.0482
 5341W        W22865   5.208   6.861  13.097 -0.0422 -0.1746  0.0974
 5342W        W22866   0.852   3.509   1.976  0.2606 -0.0969 -0.3502
 5343W        W22867  17.655  15.068   2.540  0.2303  0.4191  0.4722
 5344W        W22868   2.444  15.598   2.596  0.2172 -0.1496 -0.1747
 5345W        W22869  16.290  10.734  14.247  0.0699  0.0646  0.0433
 5346W        W22870   0.083   7.972  14.725 -0.0579  0.0347 -0.1944
 5347W        W22871  10.936   7.571   2.793  0.1554  0.3118  0.2111
 5348W        W22872  12.585  15.698   5.570 -0.0431 -0.1678  0.2527
 5349W        W22873  14.465   8.245   3.485  0.2278  0.0468  0.2172
 5350W        W22874   6.890   3.480   2.616  0.1068 -0.0670 -0.0560
 5351W        W22875  16.818  16.865   2.960  0.0988 -0.0328 -0.2660
 5352W        W22876  13.997  13.451  10.809  0.1123  0.2140 -0.2031
 5353W        W22877  15.387  17.780   5.176  0.2631 -0.2375  0.3353
 5354W        W22878  14.260   1.011   1.418 -0.1710  0.0839 -0.1669
 5355W        W22879   0.360   7.548   2.800  0.0309 -0.0384  0.2208
 5356W        W22880  13.002   8.690  14.565 -0.1117  0.0001  0.3109
 5357W        W22881   0.201   0.725   2.149 -0.1118 -0.1554  0.2526
 5358W        W22882   6.537   1.209  15.358  0.3333 -0.3092  0.1456
 5359W        W22883  15.274  10.669  15.189  0.0034  0.1792 -0.0082
 5360W        W22884  16.057   4.949  14.485 -0.0864 -0.0073  0.0670
 5361W        W22885  11.286   1.067  15.187 -0.2393  0.0921  0.1557
 5362W        W22886  15.594   4.493  16.283 -0.0289 -0.2000  0.0031
 5363W        W22887  10.919   3.054   3.347 -0.0968 -0.0483 -0.0163
 5364W        W22888   1.880  12.897   1.433  0.2648 -0.0491  0.0715
 5365W        W22889  16.865  13.745  14.051 -0.0282  0.2364 -0.3051
 5366W        W22890  16.912   3.218   3.299  0.1234 -0.0328 -0.3558
 5367W        W22891  14.609   5.096  14.582 -0.1213 -0.1290  0.4899
 5368W        W22892  16.591  14.880   3.388 -0.1125 -0.0137  0.1049
 5369W        W22893  16.906  13.417   3.211 -0.1447  0.0262  0.2119
 5370W        W22894  15.848   4.035  12.979 -0.1738 -0.2471  0.0964
 5371W        W22895   5.618  16.678  16.248  0.1016 -0.1971 -0.2483
 5372W        W22896   2.071   4.515   2.715  0.1982 -0.4675 -0.0807
 5373W        W22897   8.403   4.777   4.451 -0.1806 -0.2307  0.0657
 5374W        W22898   0.629  15.415   3.082 -0.0916 -0.1317  0.1579
 5375W        W22899  16.876  10.285  13.523  0.0399 -0.2753  0.0176
 5376W        W22900  11.589   7.123   0.037  0.0847  0.1907  0.1422
 5377W        W22901   6.004  15.045  11.421 -0.2841 -0.1848 -0.3462
 5378W        W22902  15.729   6.698   4.377  0.2852 -0.0776  0.1298
 5379W        W22903  14.221   2.734   0.496 -0.2753 -0.0420  0.5020
 5380W        W22904  12.282  12.676  13.637  0.1116 -0.0030 -0.0569
 5381W        W22905  10.300   7.140   4.448  0.0745  0.1208 -0.1261
 5382W        W22906   2.905   4.126  13.849 -0.2162  0.0260 -0.2967
 5383W        W22907   8.813  12.666  13.321  0.1073 -0.0517  0.0336
 5384W        W22908   2.795   5.653   0.675  0.2269  0.0851 -0.0320
 5385W        W22909  11.862   1.197  12.279  0.1314 -0.1241  0.0139
 5386W        W22910  16.424  15.224  16.385 -0.1633  0.2822  0.1326
 5387W        W22911  17.558  17.847   0.133 -0.1331 -0.2892  0.0299
 5388W        W22912   5.648  17.369   0.074  0.0133 -0.2377 -0.1246
 5389W        W22913  17.378  14.948   4.011  0.0311 -0.3548 -0.0391
 5390W        W22914   8.406  10.898   2.186 -0.1072  0.0015  0.1069
 5391W        W22915  13.198   8.754  12.888  0.0842  0.1648  0.1142
 5392W        W22916   5.923  12.094  13.572  0.0122  0.0171  0.0789
 5393W        W22917   8.732   8.313   2.822 -0.0648  0.0167 -0.2720
 5394W        W22918   1.103   3.322   2.481 -0.1036 -0.1900 -0.0657
 5395W        W22919   4.739   7.649   4.746 -0.1713  0.0628  0.0451
 5396W        W22920   7.811   8.928  13.778  0.2761 -0.2653  0.0994
 5397W        W22921  10.133   6.489   2.461 -0.1936 -0.3157 -0.0682
 5398W        W22922   6.247   3.300   0.074 -0.0099  0.1617 -0.1121
 5399W        W22923   0.501   1.702  14.879 -0.1611 -0.2076  0.1077
 5400W        W22924   0.851  10.135  11.230  0.1985 -0.3044 -0.3189
 5401W        W22925  15.750  17.419  12.713 -0.0910  0.1204 -0.1837
 5402W        W22926   4.290   3.168   3.893  0.0178 -0.2069 -0.2177
 5403W        W22927   3.100   4.768   2.046  0.3300  0.1814  0.1025
 5404W        W22928  12.488   1.509   3.581  0.3844 -0.0761  0.0722
 5405W        W22929   8.918  11.082   1.580  0.1417 -0.0758 -0.0174
 5406W        W22930   1.785  16.597   1.951  0.2156  0.0679 -0.2904
 5407W        W22931  16.527   8.441  13.417 -0.0756 -0.1331 -0.0061
 5408W        W22932  14.473  12.325   3.073  0.1412 -0.0927  0.1933
 5409W        W22933   2.812  14.501   4.462  0.3598  0.0401 -0.1355
 5410W        W22934  15.352  13.879   0.701 -0.0187  0.2180 -0.1223
 5411W        W22935  17.492  12.654  13.802 -0.2447  0.1019  0.1063
 5412W        W22936   9.586  11.735   1.483 -0.1022  0.1031 -0.1062
 5413W        W22937   2.339  15.778  11.409 -0.1938 -0.0494 -0.1366
 5414W        W22938   1.261  17.760   2.384  0.2332 -0.1262 -0.0176
 5415W        W22939   1.687   9.351  15.526  0.0027 -0.0426  0.0007
 5416W        W22940   5.818   8.821   2.161 -0.0176 -0.3425  0.1112
 5417W        W22941  11.937   4.642   2.710 -0.0352  0.0280  0.1494
 5418W        W22942   9.397   1.251  13.383  0.1900  0.0456 -0.3101
 5419W        W22943  15.358  16.280  13.516  0.2192  0.0500 -0.2710
 5420W        W22944   8.008  13.010  14.815  0.4405  0.0923 -0.1782
 5421W        W22945  11.131  10.834  15.766  0.0820  0.1562 -0.1723
 5422W        W22946  13.890   6.636  14.567  0.2691  0.1942  0.1898
 5423W        W22947   8.629  14.612   3.846  0.0118 -0.0153 -0.0245
 5424W        W22948   8.956   4.391   1.924 -0.0812 -0.0391  0.0174
 5425W        W22949  10.715   5.063  11.701 -0.1602 -0.0588  0.1760
 5426W        W22950   5.190  14.319  12.447  0.1564 -0.0471  0.4319
 5427W        W22951   2.876   9.090   1.414  0.1868 -0.2503 -0.0010
 5428W        W22952   2.394  14.337   3.300 -0.2470 -0.0103 -0.0270
 5429W        W22953   2.698   0.679  14.348  0.2761  0.1354 -0.0800
 5430W        W22954   4.786  14.495   4.001 -0.1347  0.0355  0.4076
 5431W        W22955   7.161  12.071  13.881  0.3754  0.2293 -0.0028
 5432W        W22956   8.625   3.028   0.123  0.0911 -0.2934 -0.0919
 5433W        W22957  11.071  16.493   0.680 -0.0138 -0.0957 -0.2725
 5434W        W22958  16.263   8.127   5.375  0.1865  0.1024 -0.0187
 5435W        W22959  16.143   8.747   2.201 -0.2189  0.1212  0.1676
 5436W        W22960  11.503  11.883   4.724 -0.0694  0.0394 -0.1620
 5437W        W22961  16.950  11.733  14.814  0.2607  0.1200 -0.0082
 5438W        W22962   7.978   8.661  16.289 -0.2095  0.2699  0.4191
 5439W        W22963   6.122   1.095  14.986 -0.0829 -0.0689  0.1499
 5440W        W22964  12.137   9.224   1.715  0.0010 -0.2606 -0.2489
 5441W        W22965  13.735   7.207  14.878  0.1002  0.0828 -0.1509
 5442W        W22966   0.314  17.030   2.629 -0.0804  0.2896 -0.3985
 5443W        W22967  16.535  14.700  15.441 -0.1223 -0.2724 -0.1053
 5444W        W22968   5.670   6.717  14.762 -0.0269 -0.1527  0.3244
 5445W        W22969   1.369  15.729  14.025  0.0540  0.0689 -0.2731
 5446W        W22970   4.089  13.400   2.710 -0.0217 -0.1139 -0.0781
 5447W        W22971   6.902   3.448  15.609 -0.0656 -0.1085 -0.1504
 5448W        W22972  17.712  12.479   1.609 -0.3324 -0.1636 -0.2579
 5449W        W22973  14.464  16.873  12.981 -0.2706 -0.0610  0.0505
 5450W        W22974   9.322   8.658  12.997  0.1880 -0.0383 -0.0794
 5451W        W22975  13.887   7.087  14.383  0.0976  0.0994  0.4097
 5452W        W22976   2.503   9.017  11.445 -0.0879  0.0318 -0.1186
 5453W        W22977  12.641   6.606   0.704 -0.1880 -0.0176 -0.0608
 5454W        W22978   2.846   3.711   4.552 -0.0178 -0.1316 -0.5782
 5455W        W22979  15.058   5.673  16.349  0.1933  0.0841 -0.1284
 5456W        W22980  14.747   0.748   2.250  0.0670 -0.0539  0.1565
 5457W        W22981  17.396  14.610   4.394  0.0077 -0.1600 -0.0563
 5458W        W22982   9.257   6.308   1.882  0.0926 -0.1820 -0.0878
 5459W        W22983  10.338   2.164   2.669  0.2011  0.1906  0.0348
 5460W        W22984  17.800  11.006  13.563  0.0436 -0.1236  0.1240
 5461W        W22985   8.466  16.582  12.440  0.1623 -0.0784 -0.1787
 5462W        W22986  17.729  17.215  15.866  0.1029 -0.0734 -0.0992
 5463W        W22987  14.132   1.157  16.261 -0.1983  0.3128  0.0715
 5464W        W22988  14.043   6.637  15.965  0.0653 -0.0582  0.0600
 5465W        W22989   6.818   5.469  10.513  0.3191 -0.1475 -0.1388
 5466W        W22990   4.319  17.097  11.331 -0.3419  0.3021 -0.0135
 5467W        W22991  13.266  11.767   4.136  0.2279  0.2231  0.1359
 5468W        W22992  12.807   3.183   2.424  0.0498 -0.2714  0.1291
 5469W        W22993   2.380  17.008   2.813  0.1546 -0.0413 -0.1811
 5470W        W22994  13.349   6.295  13.984 -0.1984 -0.2377 -0.0886
 5471W        W22995   0.426   8.678   1.856  0.1575  0.3830  0.0155
 5472W        W22996   1.596   7.944  13.457 -0.0653 -0.0662  0.0458
 5473W        W22997  11.536  10.603   4.816 -0.3429 -0.2157  0.0977
 5474W        W22998   3.892  17.848  14.301  0.1393 -0.3838  0.0004
 5475W        W22999  10.707  12.183  14.499  0.1369 -0.4535  0.1556
 5476W        W23000  13.846   6.873   0.009  0.2189 -0.2473  0.1496
 5477W        W23001   7.069   8.608   0.881  0.0609 -0.1861 -0.1467
 5478W        W23002   0.653  16.352  14.410  0.4323  0.0364 -0.0876
 5479W        W23003  11.555   5.308   3.513  0.2600  0.2504 -0.0338
 5480W        W23004   9.778   5.980   1.621  0.2510  0.2781 -0.1550
 5481W        W23005   1.970   8.195  14.802  0.0561 -0.0403  0.2949
 5482W        W23006  10.942  13.941  11.626  0.1162 -0.2136  0.0096
 5483W        W23007  10.168   7.038   2.482 -0.0961 -0.2457 -0.1868
 5484W        W23008  15.804  11.517   0.658  0.0656 -0.1090 -0.0640
 5485W        W23009  15.078   1.150   0.832 -0.0588  0.2899 -0.1440
 5486W        W23010   0.381  17.244  14.729 -0.0654  0.0217 -0.2313
 5487W        W23011   9.181   4.336   3.135 -0.2196  0.3152 -0.2629
 5488W        W23012   0.830  11.536  10.427  0.2182  0.2220 -0.2679
 5489W        W23013   4.612  14.303   4.793 -0.0264  0.0266  0.1351
 5490W        W23014   5.463   7.800   2.700  0.0064  0.0045 -0.2708
 5491W        W23015  17.181   9.135   1.444 -0.0100  0.1390 -0.1142
 5492W        W23016  13.983  14.538  12.038  0.0903  0.1145 -0.0146
 5493W        W23017   8.597  16.779  16.084  0.0900 -0.1194 -0.0335
 5494W        W23018  15.057   5.539   4.833  0.1491  0.0975 -0.1167
 5495W        W23019   8.184  16.462   1.073  0.3253  0.1113 -0.0392
 5496W        W23020   5.605   3.983   2.332  0.1583  0.1676  0.0532
 5497W        W23021   9.998  16.021   0.657 -0.0364 -0.2975 -0.1151
 5498W        W23022  17.835  10.206   4.012  0.0238  0.0651  0.1160
 5499W        W23023   0.910  14.420   2.859  0.2601 -0.0667 -0.4448
 5500W        W23024  13.538  12.114  13.664  0.1522  0.2565  0.0417
 5501W        W23025  10.379   2.959  15.429 -0.1584  0.2556  0.0155
 5502W        W23026   4.883  11.465   3.848  0.0660  0.0398  0.2213
 5503W        W23027   8.858   1.318  15.221 -0.1068 -0.0134  0.0843
 5504W        W23028   9.800  15.076  13.914  0.0101 -0.2206 -0.2362
 5505W        W23029  10.433   3.729   3.156  0.0968  0.0128  0.1892
 5506W        W23030  11.121   9.836   4.532 -0.2884 -0.0286  0.1365
 5507W        W23031  12.915  15.163  16.379  0.3116  0.1818 -0.0689
 5508W        W23032  13.240  13.545  11.735  0.2893 -0.0436  0.0349
 5509W        W23033  17.851   1.462   0.685  0.1176 -0.2410 -0.0283
 5510W        W23034   6.928   1.166  15.840 -0.0667  0.1764 -0.3064
 5511W        W23035  14.271  16.007  14.051 -0.1849  0.0033 -0.0880
 5512W        W23036   6.757   4.220  16.125  0.0050 -0.1281 -0.1191
 5513W        W23037   7.391   9.050   0.762 -0.1300 -0.2268  0.0708
 5514W        W23038   3.333  11.881  16.188  0.2545  0.1790 -0.1589
 5515W        W23039   4.881   3.912  12.342  0.0973  0.2627  0.0933
 5516W        W23040  16.474  11.198  13.710  0.0776  0.0387  0.1369
 5517W        W23041   6.446  13.906  13.821  0.3386  0.1095  0.0763
 5518W        W23042  10.356  12.602  11.570  0.1102  0.2299 -0.0646
 5519W        W23043  10.910  15.131  14.747 -0.1226  0.5170  0.5124
 5520W        W23044  15.648   0.682  15.735 -0.0628  0.2458  0.1350
 5521W        W23045  12.135  13.330   4.849 -0.2335 -0.0665 -0.0142
 5522W        W23046  16.933  17.509   1.338  0.1372 -0.1826 -0.1486
 5523W        W23047   3.865   0.759  12.266 -0.2142 -0.0933 -0.0727
 5524W        W23048   3.939   8.422   2.299  0.0722  0.3737 -0.1457
 5525W        W23049  17.801  11.153   3.596  0.2143  0.1266 -0.0205
 5526W        W23050   0.167   4.456   0.204 -0.0033  0.0278  0.0749
 5527W        W23051   9.952   6.863   0.656 -0.3663 -0.0337  0.1005
 5528W        W23052  14.298   4.675   0.309 -0.0465 -0.0770  0.0851
 5529W        W23053   9.999   5.658   5.250 -0.0651  0.1861  0.0285
 5530W        W23054  14.601  14.890  13.971 -0.2381 -0.0968 -0.0034
 5531W        W23055   8.642  14.403   2.929  0.1021 -0.0373 -0.0866
 5532W        W23056   4.830   6.286  11.893  0.2316  0.1575 -0.1178
 5533W        W23057  15.047   9.870   2.278  0.0488  0.0450 -0.0994
 5534W        W23058   3.112   5.177  13.850 -0.3149  0.2163  0.0636
 5535W        W23059  17.899   7.370   4.570  0.0150 -0.0771  0.3247
 5536W        W23060  14.143  16.629   3.587  0.0526  0.2261 -0.0053
 5537W        W23061  14.755   7.541  15.834  0.1214 -0.0010  0.0871
 5538W        W23062  15.638   8.811   3.812 -0.0136  0.1617 -0.2256
 5539W        W23063   6.285   9.584   4.756 -0.2838  0.3102 -0.3160
 5540W        W23064  13.317   9.316  15.745  0.1698  0.1415  0.0539
 5541W        W23065   7.799   2.061  11.027 -0.2059 -0.4838 -0.1113
 5542W        W23066  12.884  14.945   3.219 -0.2499 -0.0753  0.1807
 5543W        W23067  11.953   5.042  13.565  0.2699 -0.0810 -0.0548
 5544W        W23068   3.406   1.795   6.003  0.1242 -0.0554 -0.0323
 5545W        W23069  16.532   6.939   4.001  0.2469 -0.0736 -0.2476
 5546W        W23070  13.537  14.163   0.603  0.0041  0.0219  0.1502
 5547W        W23071   3.901   9.180   2.832  0.0858  0.1080 -0.0012
 5548W        W23072  16.683   0.940   4.637  0.1204  0.0524  0.2723
 5549W        W23073   9.698   6.765  11.840  0.0465  0.3013  0.0976
 5550W        W23074  15.690  14.520  14.525  0.0044  0.0104  0.1053
 5551W        W23075  17.248  15.874  15.507  0.0287  0.1476  0.2908
 5552W        W23076   9.656   0.077   2.950  0.1018 -0.1270 -0.1596
 5553W        W23077   5.299   3.178   1.111  0.1737 -0.2163 -0.0091
 5554W        W23078  11.230   6.432   1.820  0.0111  0.1859 -0.3091
 5555W        W23079   8.397  11.143  11.378 -0.2620  0.0607 -0.3753
 5556W        W23080  16.460   8.988  16.454  0.3294 -0.1814 -0.1376
 5557W        W23081  11.076  17.518   2.982  0.2483 -0.0901 -0.1273
 5558W        W23082   3.823  14.035   1.802  0.0331  0.0327 -0.0552
 5559W        W23083   5.792  10.558  15.465 -0.2248  0.0677 -0.0963
 5560W        W23084   3.871   6.853  13.786 -0.0292 -0.3009  0.1656
 5561W        W23085  13.505   3.153   4.350  0.1145 -0.0994  0.1042
 5562W        W23086  14.553   1.478   6.191  0.0203 -0.1581  0.2226
 5563W        W23087   6.463   5.664  16.026  0.1945  0.3745  0.3885
 5564W        W23088   3.401   6.805   0.405  0.1728  0.3348 -0.2482
 5565W        W23089   2.905  17.324  13.603  0.0923 -0.2997  0.2641
 5566W        W23090   1.966  15.560   5.080 -0.1710 -0.1755 -0.0824
 5567W        W23091  11.382  17.550   2.501 -0.1297 -0.2078  0.0192
 5568W        W23092   2.876  10.947  16.195 -0.2042  0.0387  0.0836
 5569W        W23093   1.524  12.637  11.507 -0.1910 -0.0766  0.1302
 5570W        W23094   0.858   7.461   1.064  0.0300 -0.0245  0.0088
 5571W        W23095   2.355   0.072   4.233 -0.2213 -0.0273 -0.0770
 5572W        W23096  12.591   4.473   0.175  0.0208 -0.1271 -0.0092
 5573W        W23097   4.761   1.952   1.409  0.0327 -0.2261  0.0015
 5574W        W23098  17.948   6.848   2.106 -0.1117  0.0259  0.1294
 5575W        W23099   1.745   3.662  15.432  0.0328 -0.0774 -0.0905
 5576W        W23100  11.446  16.612  13.710  0.0971  0.3131 -0.0196
 5577W        W23101   6.933   1.577  15.492  0.1282  0.0468 -0.0854
 5578W        W23102  12.566  10.913   3.104  0.1163 -0.0789  0.3670
 5579W        W23103   9.641  13.570  14.936 -0.1190 -0.0159  0.0109
 5580W        W23104  16.653   5.230   0.298 -0.0755  0.1487  0.0004
 5581W        W23105  14.551  11.996  12.993  0.3471 -0.1737 -0.3737
 5582W        W23106   7.039   0.512   4.028  0.2607  0.1648 -0.0214
 5583W        W23107  13.175   2.915   5.204 -0.1677  0.1149 -0.1992
 5584W        W23108  11.762   1.699  15.208  0.0598  0.0569  0.1254
 5585W        W23109  15.567   5.779  16.223 -0.0154  0.0508 -0.0352
 5586W        W23110  15.921   8.190  13.998 -0.0030  0.1781  0.0197
 5587W        W23111  11.128   1.087  14.718 -0.1931 -0.0472  0.0194
 5588W        W23112   2.595   7.533   1.998 -0.2326 -0.4941  0.0604
 5589W        W23113   6.298  10.638   3.605 -0.0756  0.4126  0.1971
 5590W        W23114   9.358  11.185  14.092  0.0164 -0.0731  0.1776
 5591W        W23115   3.123  11.735  13.644 -0.0489  0.2790 -0.0762
 5592W        W23116   5.939  14.094  13.989  0.1736  0.2233  0.2219
 5593W        W23117   4.207  15.998   3.679 -0.0974 -0.0276  0.1792
 5594W        W23118   3.467   1.383  11.446  0.0069 -0.1283 -0.0771
 5595W        W23119  12.807  14.297   1.013  0.0174 -0.2060 -0.0874
 5596W        W23120  15.751   3.074   2.823 -0.1217  0.2258  0.1102
 5597W        W23121   5.930  11.997   0.119  0.0976 -0.0083 -0.2445
 5598W        W23122  16.828   0.503   2.288  0.0313  0.2034 -0.1156
 5599W        W23123  16.324   3.289   3.933  0.0451 -0.0335  0.1006
 5600W        W23124  16.504   4.274   2.151 -0.0820 -0.1078  0.1904
 5601W        W23125  10.656  15.949  14.537  0.0875  0.2092  0.0329
 5602W        W23126  10.094   3.543  11.705 -0.3570 -0.1003  0.3831
 5603W        W23127  15.126   1.178   1.410 -0.2366  0.0293  0.3434
 5604W        W23128  13.885   6.665  10.795  0.1526  0.0265 -0.1159
 5605W        W23129  14.364   4.224  15.414 -0.0424 -0.1227  0.0344
 5606W        W23130   3.637  14.862  13.129  0.0501  0.3319  0.0478
 5607W        W23131   6.777  11.153   3.581  0.1289  0.1317  0.1732
 5608W        W23132   0.808   8.990   3.551 -0.2131 -0.0473  0.0387
 5609W        W23133   5.765   3.544  14.751 -0.2069 -0.0053  0.4524
 5610W        W23134  17.401   6.139  15.519 -0.0890  0.0910 -0.0690
 5611W        W23135   6.523   6.960   2.862  0.1920  0.1695  0.0041
 5612W        W23136   9.152  17.125   2.040  0.1067 -0.0837  0.0948
 5613W        W23137  15.763  14.217   2.248 -0.1399  0.1526 -0.1361
 5614W        W23138  17.196   5.505  15.990  0.3783  0.0045  0.0546
 5615W        W23139   8.148   6.637  12.772 -0.0329 -0.1434  0.0467
 5616W        W23140   6.575   5.114   1.793 -0.2387  0.0090 -0.1484
 5617W        W23141   1.897   7.770  14.083  0.1718  0.2367  0.1901
 5618W        W23142   6.794   3.364   1.674 -0.0564  0.0582  0.1246
 5619W        W23143   6.385   0.959  12.229  0.3653 -0.1974  0.1380
 5620W        W23144  15.152  16.482   1.736 -0.0473  0.4210  0.2059
 5621W        W23145   8.193   8.537  11.654  0.1894 -0.1634 -0.3719
 5622W        W23146  17.175  17.487  11.765 -0.2406 -0.1404 -0.3159
 5623W        W23147  14.090   6.561   0.377  0.2417  0.2591 -0.0230
 5624W        W23148  12.949   1.928   2.364  0.3591 -0.0753 -0.3130
 5625W        W23149   5.931  16.325  10.956  0.1515  0.0964  0.1830
 5626W        W23150   3.579  15.631   3.815 -0.1535 -0.1698  0.2004
 5627W        W23151  16.881   9.227  14.085  0.1373 -0.1967  0.0254
 5628W        W23152  16.522  17.779  16.281 -0.0405 -0.2067  0.3688
 5629W        W23153  11.334  15.664   0.258 -0.0976 -0.2674  0.0136
 5630W        W23154   3.871   8.255  12.480 -0.0990  0.4826 -0.2043
 5631W        W23155  11.051   7.338   2.155  0.2705 -0.0565 -0.1072
 5632W        W23156   6.726   8.088  14.936 -0.2077 -0.1123 -0.3630
 5633W        W23157   9.905   7.510  11.303  0.0849 -0.0474 -0.1000
 5634W        W23158   3.858   3.425  13.856  0.1186  0.1283 -0.1355
 5635W        W23159   8.995   0.363   1.716 -0.1014 -0.0150 -0.1897
 5636W        W23160   8.335  15.305   4.473  0.1140  0.2718  0.0614
 5637W        W23161  16.348  14.107   1.025  0.0729  0.3597 -0.0028
 5638W        W23162  13.291  13.058   1.624 -0.1109  0.0400  0.0338
 5639W        W23163   6.174   6.454   1.576  0.3856  0.0654 -0.4691
 5640W        W23164  10.968  17.836   1.474 -0.0231 -0.1266 -0.1033
 5641W        W23165  11.490  14.836  12.443 -0.2517 -0.4655 -0.3133
 5642W        W23166   4.885  16.102   2.529 -0.1999  0.0229  0.3403
 5643W        W23167  16.841  10.158   1.146 -0.1696 -0.1054 -0.2015
 5644W        W23168   7.820   7.707  16.226 -0.1068  0.0111  0.0286
 5645W        W23169   4.892   9.366  16.423 -0.0592 -0.2918 -0.0909
 5646W        W23170  11.376  12.665  15.775  0.1433  0.0792  0.1050
 5647W        W23171  10.057  16.124  11.712 -0.2749  0.1274  0.0667
 5648W        W23172   8.742   2.990   4.896  0.4080 -0.0273  0.2783
 5649W        W23173   7.773  14.942  15.268  0.2517 -0.0730 -0.1281
 5650W        W23174  12.522   8.546  15.566 -0.1643 -0.0634  0.0938
 5651W        W23175  16.970   8.765  15.426  0.2910  0.2428  0.3110
 5652W        W23176   5.525  13.616  15.739 -0.2116 -0.0038 -0.2278
 5653W        W23177  17.835  11.288   2.285 -0.0836 -0.0551 -0.0307
 5654W        W23178   2.299   2.444   0.419  0.0499  0.2812  0.0599
 5655W        W23179  17.627   3.947  13.525  0.2290  0.0570  0.1971
 5656W        W23180  17.552   9.587  11.592 -0.0778  0.1197 -0.0215
 5657W        W23181  16.731   6.758   1.058  0.1304 -0.1283  0.1231
 5658W        W23182  10.170  16.320   0.263 -0.0198 -0.1244 -0.0234
 5659W        W23183  15.051  15.683   3.524 -0.0315 -0.0665  0.3056
 5660W        W23184   4.575  17.204  14.035  0.1033 -0.0536 -0.2150
 5661W        W23185   2.927   9.997  13.804 -0.0105 -0.0016 -0.1344
 5662W        W23186   6.706   9.010   4.642  0.1031 -0.0570  0.2359
 5663W        W23187  15.275   2.518   0.417 -0.0787 -0.0647 -0.2504
 5664W        W23188   0.562   3.515  12.281 -0.2100  0.3058  0.2435
 5665W        W23189   0.189  10.999   1.220  0.3352  0.2119  0.0571
 5666W        W23190   7.201  11.841  14.438 -0.0178 -0.0134 -0.0546
 5667W        W23191  10.166   0.609  16.132  0.2841 -0.2404 -0.1229
 5668W        W23192   2.603   4.577   0.332  0.2495 -0.1417  0.3024
 5669W        W23193   3.911  15.326  13.304  0.0023 -0.0754  0.1031
 5670W        W23194  16.834  11.053  14.013 -0.1374 -0.4665  0.0384
 5671W        W23195   4.572  13.219   1.149  0.1466  0.3331  0.3479
 5672W        W23196   4.157   1.332  11.997  0.2770 -0.1317 -0.2932
 5673W        W23197   3.242   0.626  15.629 -0.0454  0.0865  0.5255
 5674W        W23198   8.357  16.540   1.998 -0.1540  0.1094  0.2917
 5675W        W23199   0.551   4.600   3.552  0.0634 -0.1816  0.1680
 5676W        W23200   6.884  13.360  12.376 -0.2944  0.2353 -0.1807
 5677W        W23201   0.647   5.069  13.208 -0.0689 -0.1100 -0.2752
 5678W        W23202   5.996  14.415  15.291  0.0735 -0.1258 -0.0867
 5679W        W23203  11.376  10.069   2.665  0.2273 -0.1101 -0.1304
 5680W        W23204  11.311   5.063  15.211  0.1357  0.1148  0.0377
 5681W        W23205  12.995   1.420  12.233  0.0803 -0.4450  0.0053
 5682W        W23206  16.156  14.425  14.247 -0.1794  0.5197 -0.0730
 5683W        W23207  11.142   8.912  15.179 -0.1550 -0.0977  0.0682
 5684W        W23208  12.930   3.409  15.860 -0.1715 -0.3299  0.0505
 5685W        W23209   7.177  13.480  14.342 -0.1892 -0.0928 -0.2091
 5686W        W23210   0.446   0.571  14.353  0.1929 -0.0000  0.1971
 5687W        W23211  10.956   3.607   3.293 -0.0735 -0.0521 -0.1544
 5688W        W23212   0.365   8.212  13.212  0.0541  0.1629  0.0716
 5689W        W23213   0.515  15.868  12.916 -0.0987  0.0793  0.2616
 5690W        W23214   0.952  17.676  13.303 -0.1103 -0.0466 -0.0307
 5691W        W23215   4.507   5.285  12.215  0.0997 -0.0146 -0.1098
 5692W        W23216   9.549  12.487   3.289 -0.1404  0.1066  0.1863
 5693W        W23217  12.559   3.901   1.217 -0.0048 -0.2784  0.2405
 5694W        W23218  14.983   6.794  15.504 -0.0840 -0.1224 -0.0563
 5695W        W23219   1.569  12.332  15.977 -0.0761 -0.2933 -0.1252
 5696W        W23220   6.404   2.753  14.208 -0.0385 -0.0777  0.1636
 5697W        W23221  15.761  13.839   0.326  0.1911  0.0486  0.1785
 5698W        W23222   8.610  17.434  15.775  0.0670 -0.0170  0.0715
 5699W        W23223   8.471  16.930  15.623 -0.1123 -0.1014 -0.2943
 5700W        W23224   0.543  17.485  15.594  0.1353 -0.0341  0.0783
 5701W        W23225  13.125   6.923   2.564  0.2625 -0.0093 -0.2774
 5702W        W23226   8.367  14.916  14.163 -0.0952  0.0570 -0.0247
 5703W        W23227   7.322  13.787   0.841 -0.2505 -0.1743  0.2418
 5704W        W23228  16.595   6.884   0.578  0.0510 -0.0659 -0.1455
 5705W        W23229   8.990  10.036   3.732 -0.0454 -0.2591  0.0415
 5706W        W23230  16.102   0.638  12.303 -0.0424 -0.0176  0.0307
 5707W        W23231   6.695  17.730   0.663  0.0585 -0.0291  0.2914
 5708W        W23232   4.866   9.688  13.575  0.2412  0.0213 -0.2228
 5709W        W23233  12.237   1.191  11.929 -0.2068  0.1617  0.2697
 5710W        W23234  15.062  14.217   1.427 -0.4157  0.1130 -0.0101
 5711W        W23235  16.246   9.868   4.155  0.1384 -0.2028 -0.1153
 5712W        W23236   3.782   2.835  16.140  0.1252  0.0961  0.0909
 5713W        W23237   4.887  15.333   3.424 -0.1725 -0.1613 -0.0485
 5714W        W23238   9.767  13.249  14.592  0.0207 -0.0991 -0.2161
 5715W        W23239   8.007  15.953  14.334  0.2341  0.0039  0.1200
 5716W        W23240   0.378   5.048  14.827  0.2907 -0.2096  0.3060
 5717W        W23241   8.228  10.325   3.777  0.0584 -0.0016  0.2061
 5718W        W23242  13.405  17.473   0.026 -0.0101 -0.0346 -0.0546
 5719W        W23243  10.774  10.195  11.531  0.0499 -0.1435 -0.1482
 5720W        W23244   5.972  15.416   5.085  0.4323  0.0170  0.0248
 5721W        W23245  11.844   8.682   4.838 -0.2936 -0.0679 -0.2683
 5722W        W23246   6.807   5.678   2.496  0.3020  0.1327  0.3727
 5723W        W23247  11.776   5.413   3.039  0.1129  0.0487 -0.1450
 5724W        W23248   3.260   6.484   3.848  0.1676 -0.1165 -0.0770
 5725W        W23249  13.521  13.481   1.672  0.1719  0.2065  0.0572
 5726W        W23250  15.420  14.256   2.971 -0.1395  0.0963 -0.0669
 5727W        W23251   0.013  14.928   5.882  0.0571 -0.1499  0.1841
 5728W        W23252  11.538  17.954   2.686 -0.0471 -0.3733 -0.3558
 5729W        W23253  12.981  15.320  12.725 -0.4564 -0.0533 -0.0172
 5730W        W23254   9.846   7.388   2.672 -0.0058  0.2570 -0.4215
 5731W        W23255  10.065   5.722  14.135  0.1456  0.1333  0.0930
 5732W        W23256  13.374  17.917   4.645 -0.1463  0.1053  0.2375
 5733W        W23257   3.224  10.154  12.498 -0.1939  0.2485 -0.0001
 5734W        W23258   6.849   2.046   4.851 -0.0346 -0.0469 -0.0363
 5735W        W23259   0.748  17.692  14.687 -0.1617  0.2127 -0.0275
 5736W        W23260  15.157   1.974  15.140  0.1700  0.1284  0.0946
 5737W        W23261   9.992   6.313   0.373  0.0279 -0.1892  0.3962
 5738W        W23262   2.657   0.308   3.324 -0.0315  0.1409 -0.0176
 5739W        W23263   6.608   8.538   1.508 -0.3093 -0.1228 -0.5941
 5740W        W23264   1.469   9.541   1.357 -0.0632 -0.1595 -0.2043
 5741W        W23265  11.972  13.577  13.684  0.1639 -0.3062 -0.1105
 5742W        W23266   2.567  11.756   3.916 -0.3441  0.2723  0.1194
 5743W        W23267   8.557   3.352  12.410 -0.2348 -0.0778  0.0921
 5744W        W23268   6.478   4.978   4.758 -0.0120 -0.3043  0.1730
 5745W        W23269  13.201  16.177   0.609 -0.0806 -0.1705  0.0496
 5746W        W23270  17.230   6.751   2.570  0.1477 -0.2916  0.0512
 5747W        W23271   8.007  15.065  13.786 -0.0117 -0.0999  0.0633
 5748W        W23272   9.558   5.516  13.393  0.2901  0.1079  0.1647
 5749W        W23273   4.337   8.602  14.022 -0.2672  0.1345 -0.1116
 5750W        W23274   4.753   5.307   4.660 -0.1620  0.4470  0.2751
 5751W        W23275   7.728   3.536  13.819 -0.0691  0.2915 -0.0637
 5752W        W23276   3.343   7.399  15.160 -0.1516  0.1534 -0.0762
 5753W        W23277  16.564  11.597   2.675 -0.3652 -0.0474  0.0674
 5754W        W23278   0.375  13.181  12.270  0.3414  0.0918  0.2257
 5755W        W23279   7.190  13.918   4.714 -0.0489 -0.1405 -0.1262
 5756W        W23280   8.790  14.832  16.068 -0.1549 -0.0470  0.0021
 5757W        W23281   3.939   4.495   1.337  0.0960 -0.0950 -0.2439
 5758W        W23282   4.980   3.524  13.425  0.2717  0.0308 -0.0423
 5759W        W23283  11.316   5.806  13.304 -0.2104 -0.0662 -0.1294
 5760W        W23284  11.745  12.152  11.503 -0.0621 -0.3141  0.1584
 5761W        W23285  17.356   6.234  11.966  0.2737 -0.0472  0.0345
 5762W        W23286   9.149   4.776   2.200 -0.0995 -0.0802 -0.1309
 5763W        W23287  17.700   5.183   5.631 -0.0634  0.1668  0.1403
 5764W        W23288   8.985   6.376   3.323 -0.0738  0.2702  0.1336
 5765W        W23289   8.344  10.941  12.422  0.0938  0.1451  0.3333
 5766W        W23290   4.147   9.419  14.098 -0.1083 -0.0826  0.0908
 5767W        W23291  17.418   9.856   4.559 -0.1214 -0.0124 -0.0678
 5768W        W23292   7.412   4.890   2.442  0.2768  0.0713 -0.1167
 5769W        W23293   4.607  11.972   0.268 -0.1201 -0.1626 -0.2731
 5770W        W23294   0.639   3.670  14.295 -0.1531  0.0721 -0.2569
 5771W        W23295  12.998   7.939   4.863 -0.3559  0.1722 -0.0019
 5772W        W23296   6.332   9.855  15.343 -0.0240  0.0621 -0.1447
 5773W        W23297   4.628  11.476  15.450  0.0587  0.1287  0.1971
 5774W        W23298   2.789  12.211   3.692  0.0995  0.0556  0.1607
 5775W        W23299  12.374  16.447   2.050  0.2608  0.0226  0.5180
 5776W        W23300   2.955   5.204  14.869  0.4591  0.1698  0.2619
 5777W        W23301   8.335   7.965  15.117  0.2498 -0.3267 -0.2530
 5778W        W23302   7.983   5.253  12.464  0.2387 -0.3317  0.0708
 5779W        W23303  12.142   8.296   3.443  0.1095  0.3565  0.2670
 5780W        W23304   5.137   5.725   2.501 -0.0491  0.2971  0.0879
 5781W        W23305  15.103  15.807  14.360  0.0908  0.2916 -0.2186
 5782W        W23306   4.603   4.372  15.022 -0.3919 -0.1660 -0.1127
 5783W        W23307   5.999  13.268  14.483 -0.2024  0.0296 -0.0615
 5784W        W23308  17.153   9.432   2.894  0.1793 -0.0421 -0.0088
 5785W        W23309   3.266   1.051   3.386 -0.0932  0.0551 -0.2567
 5786W        W23310  16.795  16.659   2.349 -0.3193  0.0651 -0.1093
 5787W        W23311  17.035  11.697   1.763  0.1170  0.1940 -0.0507
 5788W        W23312   3.834   6.789   5.261 -0.2027  0.0240  0.0823
 5789W        W23313  11.494  10.122  14.520 -0.0854  0.0889 -0.7452
 5790W        W23314  10.981   0.682  13.952  0.1318  0.2143 -0.0783
 5791W        W23315  14.197   9.027  14.278 -0.0061  0.0142  0.0997
 5792W        W23316  14.739   9.252  12.287  0.2506  0.0790  0.1209
 5793W        W23317  10.435   6.241   0.634  0.0476 -0.1064 -0.0179
 5794W        W23318  15.131  13.372  15.705  0.0110  0.1404 -0.0339
 5795W        W23319  16.004   7.024  12.942 -0.2375 -0.1414  0.1075
 5796W        W23320  13.642   7.702  13.388  0.0870  0.0198  0.0804
 5797W        W23321   8.642  17.205   3.571 -0.1465 -0.2428  0.0417
 5798W        W23322   4.619   2.985   4.538  0.1413  0.1054  0.1924
 5799W        W23323  15.854   4.658   2.914  0.2748  0.2078  0.0672
 5800W        W23324   6.790  14.137  15.984 -0.1438 -0.1203 -0.0220
 5801W        W23325  15.328  12.201  11.232 -0.3007  0.0330  0.0438
 5802W        W23326  14.130   5.979   2.356 -0.0653  0.2513 -0.1363
 5803W        W23327   8.012  11.271   5.273  0.1816 -0.0775  0.0260
 5804W        W23328  11.709   7.264   3.903 -0.0552  0.1290  0.2150
 5805W        W23329   7.184   9.311   4.574  0.1230 -0.4479  0.2159
 5806W        W23330   1.038  16.642   1.698  0.0876  0.1529  0.1889
 5807W        W23331  10.008   0.374   3.684 -0.0939 -0.0633 -0.0049
 5808W        W23332  15.213   8.386  15.525  0.0903 -0.1091 -0.0185
 5809W        W23333   1.436  11.608  14.360  0.1418  0.4245  0.2381
 5810W        W23334  14.657  14.349  16.147 -0.1098  0.0868  0.0824
 5811W        W23335   6.130   0.942   1.451 -0.0598 -0.1479 -0.2457
 5812W        W23336   8.827  16.669  14.602 -0.0804 -0.0769 -0.0402
 5813W        W23337  16.488  10.447   0.874 -0.0769 -0.0418  0.0685
 5814W        W23338   7.762  11.781   1.058  0.2300 -0.2742 -0.0224
 5815W        W23339  15.725   6.224   1.438  0.1303  0.3174  0.0439
 5816W        W23340  16.915   5.371   3.947 -0.0758 -0.1482  0.2131
 5817W        W23341  12.365   7.631  11.605 -0.2660  0.1067 -0.2090
 5818W        W23342  15.435   4.594   1.978  0.1489 -0.2063  0.3119
 5819W        W23343   6.885   8.766  13.821  0.2282  0.2784 -0.0013
 5820W        W23344   0.024   0.296  15.009  0.0426  0.0038  0.1675
 5821W        W23345   0.698  11.727   4.654  0.0713  0.1850 -0.2065
 5822W        W23346   8.783   9.610  10.753 -0.0422  0.0311 -0.0566
 5823W        W23347  10.662   2.157  13.601  0.3568  0.0171 -0.0425
 5824W        W23348  11.590   4.884  14.786  0.0922  0.0777 -0.0093
 5825W        W23349   4.253   4.391  15.953  0.2381  0.1679 -0.0259
 5826W        W23350  15.390  16.821   4.612  0.0632  0.3130  0.0659
 5827W        W23351   8.017   8.212   0.661  0.0344  0.0295 -0.0362
 5828W        W23352   6.332   4.957   3.562  0.0165  0.1354  0.0167
 5829W        W23353  14.858  13.147   2.036 -0.0160 -0.0741 -0.1854
 5830W        W23354  10.561  15.515   4.007 -0.1516 -0.1227 -0.4516
 5831W        W23355  14.036  10.329   1.732  0.2034  0.3573 -0.2581
 5832W        W23356  12.684   3.699   2.246 -0.0171 -0.1004 -0.0409
 5833W        W23357   2.274  17.660  16.021 -0.0760 -0.0922  0.1663
 5834W        W23358  14.931   8.248  12.747 -0.1091  0.0290 -0.2205
 5835W        W23359  11.233  17.044   0.142 -0.2918 -0.0859 -0.1812
 5836W        W23360   0.424  16.329  16.444 -0.0393 -0.0943  0.2789
 5837W        W23361   4.114   9.321   2.055  0.1729 -0.3011 -0.2146
 5838W        W23362   8.924  14.116   3.927 -0.2031  0.2335 -0.1458
 5839W        W23363   0.670   1.858   5.048  0.3310  0.0027 -0.1774
 5840W        W23364   7.210  15.919   0.186 -0.2221 -0.3039 -0.0047
 5841W        W23365   8.360  10.435   3.294 -0.1279 -0.2873 -0.3260
 5842W        W23366   5.025  14.854   1.380  0.1170 -0.3355  0.2033
 5843W        W23367   1.855   5.346  13.698  0.1741  0.0720 -0.0567
 5844W        W23368   7.693  13.952  15.720  0.1322  0.0605  0.2124
 5845W        W23369  13.167   9.593   0.365 -0.2939 -0.3116  0.0737
 5846W        W23370   1.905  10.681  13.877 -0.0592  0.0839  0.1454
 5847W        W23371  12.685   6.865   4.153 -0.0588  0.0445  0.0357
 5848W        W23372   3.042   6.655   2.965 -0.3937  0.0196  0.1267
 5849W        W23373   0.278  15.091  13.740  0.1094  0.0009  0.1185
 5850W        W23374  14.432   4.321   1.947 -0.1979 -0.0396  0.3848
 5851W        W23375  11.826  12.328  13.638  0.0420  0.1521 -0.1435
 5852W        W23376   6.146   3.172  14.031  0.0388  0.0752  0.1265
 5853W        W23377  17.248   5.893  15.079 -0.4060 -0.3914 -0.2046
 5854W        W23378   7.494   4.145  16.046 -0.0134 -0.2291 -0.2632
 5855W        W23379   4.280   1.099   3.578  0.0110 -0.1171 -0.2320
 5856W        W23380  11.419  12.153   3.286 -0.0526 -0.1612  0.2766
 5857W        W23381   4.529  11.546   5.045 -0.1663 -0.0258 -0.2165
 5858W        W23382   7.129   0.137  12.223  0.1248  0.3632 -0.1614
 5859W        W23383  10.455   0.400  13.500 -0.3029 -0.0663  0.1214
 5860W        W23384   6.235  16.677   5.053 -0.0546 -0.0946 -0.2137
 5861W        W23385  12.364   6.576  11.646  0.3008  0.2428  0.0560
 5862W        W23386  15.619   7.399  12.312 -0.0073  0.0729 -0.0124
 5863W        W23387   4.148   2.631  12.181  0.1909 -0.0172  0.1565
 5864W        W23388   8.677  10.587   3.634  0.0072 -0.0185  0.2012
 5865W        W23389  10.472  10.589  13.159  0.2542  0.1981 -0.1324
 5866W        W23390  12.134   3.174  12.597  0.0841  0.0825 -0.0294
 5867W        W23391   4.438  17.626   5.315 -0.3051  0.0591 -0.1685
 5868W        W23392  11.052  14.537   1.657 -0.0848 -0.0760 -0.0512
 5869W        W23393   2.315   9.102  14.896 -0.3435  0.0444  0.0473
 5870W        W23394   0.912   0.720  14.729  0.1686 -0.0105  0.0636
 5871W        W23395  15.520  15.033  14.519 -0.0190 -0.1967 -0.1180
 5872W        W23396  17.612   0.257   3.989  0.1435  0.3837 -0.0546
 5873W        W23397  15.581   5.014   0.119  0.1842  0.1415  0.1651
 5874W        W23398   7.640  17.880   5.265  0.2694  0.0297 -0.1282
 5875W        W23399   2.388   1.301   2.499 -0.0402 -0.0406  0.3433
 5876W        W23400   3.020  13.752  14.302  0.2713  0.2473 -0.0569
 5877W        W23401  14.332  16.360  13.212 -0.1200  0.1206  0.2286
 5878W        W23402  17.438   8.667  11.288 -0.0579  0.0575 -0.1971
 5879W        W23403  14.694   0.164   4.555  0.0066 -0.0025  0.0445
 5880W        W23404  13.106  17.559  10.868  0.0873  0.1164 -0.0279
 5881W        W23405   6.338   2.161   1.625 -0.2051  0.0292 -0.2432
 5882W        W23406  12.642   8.754   2.601  0.3546  0.3162  0.0446
 5883W        W23407   4.496   0.262  16.015 -0.1390  0.0402  0.2742
 5884W        W23408  12.799  15.169  13.486  0.1217 -0.0017  0.0005
 5885W        W23409  14.329   1.108   3.601  0.0101 -0.0300 -0.3117
 5886W        W23410   9.450   8.300   3.324 -0.5811  0.1111 -0.2017
 5887W        W23411   4.692   3.255   6.002 -0.4476 -0.2467  0.1733
 5888W        W23412  10.883   0.574   6.033 -0.1490 -0.3535 -0.2314
 5889W        W23413  10.433   8.225   1.167 -0.0197  0.1104 -0.0607
 5890W        W23414   0.057  11.257  11.057 -0.0578 -0.2417 -0.0062
 5891W        W23415   9.466   9.206  12.194 -0.0103  0.0624 -0.4395
 5892W        W23416  16.124   4.572  12.690  0.2218  0.0965  0.1260
 5893W        W23417   7.959   0.370   3.967  0.0198 -0.0168 -0.1068
 5894W        W23418  11.464  11.202  15.664 -0.0547 -0.1859 -0.4425
 5895W        W23419  16.391  14.075   5.579 -0.2805  0.1645  0.1130
 5896W        W23420   5.508   0.768   0.284 -0.2211 -0.0187 -0.0253
 5897W        W23421   3.737  10.043   3.833  0.1589 -0.2020 -0.0862
 5898W        W23422  13.161   6.215   2.734  0.1282 -0.2041 -0.0251
 5899W        W23423   0.844   4.962   1.664  0.1524 -0.2922 -0.0361
 5900W        W23424   0.011  12.117  12.390 -0.0468  0.1451  0.0661
 5901W        W23425   4.984  16.791   2.781  0.1372 -0.1490 -0.1046
 5902W        W23426   7.007   3.993   2.500 -0.0114  0.0290  0.1802
 5903W        W23427   4.618  14.645   2.698  0.0568  0.0429 -0.2226
 5904W        W23428   5.034  11.063  11.504  0.0472  0.2407  0.1548
 5905W        W23429   7.011  10.441   4.969 -0.2223 -0.0957  0.0159
 5906W        W23430   6.264  12.862   3.409 -0.0436 -0.2152 -0.3002
 5907W        W23431  12.104  14.609  10.384  0.0952  0.1605 -0.0048
 5908W        W23432   2.776   2.862   2.416  0.0827  0.1290  0.3467
 5909W        W23433   1.963   7.904  11.298  0.0214 -0.0735  0.0674
 5910W        W23434  11.002  10.264   2.312 -0.1599 -0.1805 -0.1303
 5911W        W23435  16.281   3.598   5.149  0.4286  0.2983  0.0700
 5912W        W23436   8.607  13.933  13.229 -0.2696  0.0150 -0.0082
 5913W        W23437  15.534  13.880  10.154  0.0197 -0.0474  0.0713
 5914W        W23438   8.235   2.972   4.690  0.1076 -0.1388  0.3745
 5915W        W23439   4.863  10.602  11.764 -0.1003 -0.2132  0.3478
 5916W        W23440   1.141   5.740  12.058 -0.1777 -0.1083  0.0267
 5917W        W23441   3.514  12.814  16.161  0.1954 -0.0741  0.3103
 5918W        W23442  15.368  11.743  13.174  0.1904 -0.1328  0.0850
 5919W        W23443  13.403   4.709  12.258  0.0090  0.1253 -0.2307
 5920W        W23444  14.299   9.730   0.597 -0.1983  0.1012  0.2793
 5921W        W23445  12.314  13.121   1.262  0.2663 -0.2785  0.0052
 5922W        W23446  11.155   5.986  11.833  0.0672  0.1630  0.1689
 5923W        W23447  14.019   8.922  14.777  0.0651 -0.2175  0.0434
 5924W        W23448   3.968  10.455  15.804  0.0115  0.1898 -0.0463
 5925W        W23449  17.408   1.720   0.662 -0.1947 -0.2148  0.0920
 5926W        W23450   6.344   3.585  13.844 -0.1598  0.2903  0.0604
 5927W        W23451   2.001  11.186   1.754 -0.4299  0.1876 -0.0752
 5928W        W23452   3.459   2.987   4.342  0.0724 -0.0658 -0.1258
 5929W        W23453   2.166   2.091  15.874  0.0440 -0.0768  0.4252
 5930W        W23454   7.454   8.871  11.766 -0.0011  0.1137  0.1961
 5931W        W23455   0.989  15.841   2.506  0.0706  0.1143  0.3670
 5932W        W23456   0.551  16.033  12.396 -0.2532 -0.0036 -0.2545
 5933W        W23457   8.768   5.327  13.603  0.1057 -0.1696 -0.1157
 5934W        W23458  13.051   3.150  13.425  0.1217  0.1242  0.4028
 5935W        W23459  16.050   0.316  13.006 -0.3675  0.1513  0.3613
 5936W        W23460  10.727   9.549  15.674  0.0211 -0.0124 -0.0703
 5937W        W23461   7.950  10.150   1.061  0.4536 -0.0422  0.2095
 5938W        W23462  16.919  12.944   5.196 -0.0666  0.2622  0.0698
 5939W        W23463  10.697  15.352  15.331 -0.0334  0.3394 -0.0679
 5940W        W23464  14.963  15.693  13.455 -0.0389  0.1314 -0.2679
 5941W        W23465  17.818   0.721   2.549  0.0622  0.1650  0.1406
 5942W        W23466   2.266   1.917  15.148 -0.2035 -0.2032  0.0670
 5943W        W23467  13.059   2.626  16.326 -0.0699 -0.3058  0.0158
 5944W        W23468  10.179   6.881  15.719  0.1294 -0.2590 -0.1759
 5945W        W23469   5.304   1.417   3.981  0.0898  0.1351 -0.2265
 5946W        W23470  10.955   3.301   0.607 -0.2757  0.0002 -0.0499
 5947W        W23471  16.423   6.673  15.806 -0.1265 -0.0823 -0.1298
 5948W        W23472  12.558  16.481   2.554 -0.2107  0.1370  0.1064
 5949W        W23473  15.371   8.483   3.445  0.1755  0.3653 -0.0378
 5950W        W23474   7.545  12.971   3.415  0.2397 -0.3115 -0.2325
 5951W        W23475   1.813   3.436  12.076 -0.0434  0.0362  0.1508
 5952W        W23476  14.095  11.034   2.158  0.2635 -0.3925  0.2626
 5953W        W23477  14.217   8.802  12.826 -0.0932 -0.0722  0.1948
 5954W        W23478   2.320   2.568  15.754  0.1529 -0.0669  0.2664
 5955W        W23479   8.702  15.484   1.656 -0.0621  0.0286 -0.2254
 5956W        W23480   3.655  13.973   4.897  0.1134 -0.0146 -0.0441
 5957W        W23481   6.259  16.565  11.937  0.0955 -0.0856 -0.1172
 5958W        W23482   7.950  13.097   1.711 -0.4690 -0.2020 -0.1227
 5959W        W23483   3.468  11.565   4.442  0.1618  0.1521 -0.3980
 5960W        W23484   2.101   7.835   0.352 -0.2000  0.1814 -0.2172
 5961W        W23485   5.895  12.979  13.821  0.1669  0.2983 -0.1192
 5962W        W23486   5.050   4.720   0.960  0.3394  0.0013  0.0979
 5963W        W23487   2.869   9.845   2.018  0.0702 -0.4324  0.1692
 5964W        W23488  12.999   9.223  12.864 -0.0851  0.0187  0.0249
 5965W        W23489   6.511  17.429  14.917 -0.1929  0.1997  0.2345
 5966W        W23490   3.363   1.893   1.047 -0.0020 -0.0454  0.1381
 5967W        W23491   8.832  17.462   2.226  0.3051  0.0107 -0.0920
 5968W        W23492   3.855  11.489   1.651 -0.0280  0.0686 -0.0256
 5969W        W23493   4.444   8.913  15.632 -0.4714  0.1815 -0.4139
 5970W        W23494   5.357  10.613   2.563 -0.0483 -0.2983 -0.0313
 5971W        W23495  10.892   0.616  15.737  0.2118 -0.2624  0.0714
 5972W        W23496  11.156  14.344  13.751 -0.2148 -0.1212 -0.0517
 5973W        W23497  16.468  17.518   2.502 -0.1539 -0.2161 -0.0685
 5974W        W23498  15.664   6.160   1.935 -0.0932  0.2254  0.0964
 5975W        W23499  15.684   2.614  13.810  0.1662 -0.3039 -0.0686
 5976W        W23500   8.774  15.675  12.539  0.0001 -0.2964 -0.1112
 5977W        W23501   7.472  15.762   2.001 -0.0827  0.1305 -0.0083
 5978W        W23502   6.444  10.012   4.505 -0.1195 -0.0126 -0.2609
 5979W        W23503  10.888  12.579   4.500  0.2603 -0.1213  0.1039
 5980W        W23504  15.026  17.586  14.393 -0.0305 -0.4413  0.0232
 5981W        W23505  17.276  12.823  16.052  0.1274  0.1499 -0.0470
 5982W        W23506  17.219  16.531   3.237 -0.2200 -0.4470 -0.0073
 5983W        W23507  12.180  16.863  13.886  0.0502 -0.1962  0.0305
 5984W        W23508   5.425   9.148   2.797  0.0155 -0.1709 -0.3563
 5985W        W23509   7.259  12.597  13.916 -0.0856 -0.1847  0.2103
 5986W        W23510  10.262   8.691   3.598 -0.4052  0.1424 -0.2829
 5987W        W23511   5.329   4.316  12.100  0.0254 -0.0704 -0.0712
 5988W        W23512  10.752  11.016   4.372  0.0611  0.3529 -0.2615
 5989W        W23513   4.595   7.076  13.184 -0.2264  0.1881  0.1172
 5990W        W23514  15.849  14.803  12.735 -0.1660  0.0717 -0.0767
 5991W        W23515  10.649   4.712  13.296  0.0890  0.5079  0.1802
 5992W        W23516  15.978   1.861  15.420  0.1555  0.1606 -0.1757
 5993W        W23517   6.718   2.196  12.548 -0.0758 -0.0427  0.0231
 5994W        W23518  10.814   8.128  12.492  0.1548 -0.3259 -0.3228
 5995W        W23519   3.439   5.709   3.598  0.2145 -0.3253 -0.4065
 5996W        W23520  17.637  13.389  11.816  0.2625 -0.0825  0.1812
 5997W        W23521   2.412   4.916  12.737  0.1633 -0.0325 -0.0617
 5998W        W23522  16.892   7.679   4.415  0.1919 -0.2393  0.1722
 5999W        W23523   7.236  14.488   4.076 -0.0696  0.1292 -0.0633
 6000W        W23524   1.697  16.482  13.459 -0.2383  0.2621  0.0245
 6001W        W23525  10.541   2.766  14.457 -0.0457 -0.0762  0.1914
 6002W        W23526  12.781   9.927   1.294  0.2099  0.0386 -0.3247
 6003W        W23527  15.454   2.243   4.725  0.1617 -0.1083  0.3113
 6004W        W23528   9.190  10.849  12.359 -0.3795  0.0503 -0.0673
 6005W        W23529   0.660   2.112   1.016 -0.1204  0.1824  0.1912
 6006W        W23530   1.120   4.557   3.608  0.0461  0.1145 -0.0186
 6007W        W23531  14.109   9.540  14.279 -0.3296  0.1443  0.1871
 6008W        W23532   8.548  14.880  12.823  0.1815  0.1460  0.1664
 6009W        W23533   9.903   6.989  15.277  0.3646 -0.1139  0.0289
 6010W        W23534   1.534   8.853  12.410  0.0214 -0.1627 -0.0977
 6011W        W23535  11.067   8.471   1.440 -0.3030  0.0563  0.0500
 6012W        W23536   4.157  11.294  11.546  0.1547 -0.0419  0.0628
 6013W        W23537   7.981  16.768  15.939  0.1003 -0.0303  0.2386
 6014W        W23538  10.889   1.840  11.958 -0.0070 -0.3835 -0.3343
 6015W        W23539   0.754  16.165   0.467  0.0591  0.0276  0.0307
 6016W        W23540  17.278  17.150   3.170 -0.1015  0.1669 -0.1834
 6017W        W23541  11.359   5.861   5.657  0.1244  0.0368  0.1731
 6018W        W23542   9.831   2.345   0.111 -0.1602  0.1294 -0.0789
 6019W        W23543  11.524  13.600   3.513  0.0668  0.0200  0.1036
 6020W        W23544   6.601  10.109  16.216  0.0012 -0.1474  0.2554
 6021W        W23545   3.086  14.500  14.984 -0.0193 -0.0274 -0.4186
 6022W        W23546  13.668  10.805   5.436  0.0662 -0.0904  0.2506
 6023W        W23547   3.554  17.579  12.324 -0.1699  0.1001  0.3067
 6024W        W23548  13.884   4.855  15.780 -0.3762 -0.0545  0.2146
 6025W        W23549  11.966  17.683   3.259 -0.0732 -0.3899 -0.3280
 6026W        W23550  13.019   4.090   1.537 -0.1361 -0.0811  0.0951
 6027W        W23551  15.064   0.717  11.720  0.2762 -0.0006  0.1094
 6028W        W23552   9.530  14.972  15.586 -0.0723  0.2597 -0.4536
 6029W        W23553  15.895  11.874   4.334  0.1221  0.2299 -0.0829
 6030W        W23554  17.363   8.108  16.064  0.0660  0.1766 -0.2087
 6031W        W23555  15.971  14.908   1.984  0.1699 -0.2553 -0.2037
 6032W        W23556   2.949   5.835   0.172 -0.0410 -0.1911  0.0829
 6033W        W23557   0.260   2.389  13.561 -0.0389 -0.0145 -0.3155
 6034W        W23558  14.226  17.685  13.553  0.1194 -0.1047 -0.2689
 6035W        W23559   1.964   5.835  11.654  0.2892 -0.0368 -0.1668
 6036W        W23560  17.485   8.930  15.657 -0.0272  0.1559  0.3324
 6037W        W23561   3.960   0.243  12.190 -0.1118 -0.0449  0.0294
 6038W        W23562   4.508  10.648  12.675  0.0237  0.1251 -0.0257
 6039W        W23563  12.033   5.112   2.691 -0.0942  0.0227  0.2022
 6040W        W23564   1.522   0.895  12.719  0.0009 -0.0217  0.1245
 6041W        W23565   6.961  13.123   1.962  0.1689  0.0949  0.0448
 6042W        W23566   1.194   6.282  15.243  0.0990  0.4249 -0.1432
 6043W        W23567   1.092   7.569  13.014 -0.1030  0.1396 -0.1320
 6044W        W23568  11.831  13.410  12.988  0.1593 -0.3267  0.3516
 6045W        W23569  15.527   9.633  15.609 -0.0964 -0.1933  0.3933
 6046W        W23570   5.748  11.845   2.579 -0.1976 -0.0194  0.0441
 6047W        W23571  16.909  10.982  13.513  0.2911 -0.2091  0.1259
 6048W        W23572  15.012   1.649   5.296  0.0270 -0.3027  0.0474
 6049W        W23573   8.130   2.820   0.999 -0.0059 -0.2001  0.1129
 6050W        W23574   2.689  10.657   1.519  0.1693 -0.1891 -0.0244
 6051W        W23575   9.945   8.419  11.321  0.2677 -0.0042  0.2530
 6052W        W23576   8.663   7.715  12.807  0.0297 -0.2472 -0.1315
 6053W        W23577  10.364  10.643  10.702  0.1910 -0.0613 -0.1664
 6054W        W23578   2.169   2.996   0.173  0.0446 -0.0739  0.1581
 6055W        W23579   2.131   1.060   1.359 -0.0826  0.0980  0.0166
 6056W        W23580   9.980  12.771  15.503 -0.0354 -0.1688 -0.1951
 6057W        W23581   0.674   4.540  13.945  0.1368 -0.1048  0.1622
 6058W        W23582  15.911   4.185   3.015 -0.3605 -0.0592 -0.0673
 6059W        W23583   0.196  16.253  11.713 -0.1554 -0.1736 -0.2107
 6060W        W23584   1.550   0.703   2.629 -0.2352  0.1627  0.0439
 6061W        W23585   1.389  10.053  15.637 -0.3131 -0.4417  0.0667
 6062W        W23586   9.929  11.582   0.822 -0.1401  0.0055  0.0249
 6063W        W23587  14.919  14.479  13.895 -0.0269 -0.0557 -0.1471
 6064W        W23588  16.906  16.209   1.112  0.0917  0.2690  0.1119
 6065W        W23589   0.734   8.801   0.541 -0.3001  0.3076  0.0319
 6066W        W23590   7.422  10.063   1.812  0.1030 -0.0211  0.2804
 6067W        W23591   3.764   7.685   1.412  0.0798  0.1644  0.1188
 6068W        W23592  16.688  14.232  15.728 -0.0292 -0.1989  0.1131
 6069W        W23593  12.541   3.340   4.682 -0.3491 -0.1546 -0.1137
 6070W        W23594   9.470   2.748   2.768  0.1605  0.4895  0.1902
 6071W        W23595   6.311   4.264   3.471  0.2499 -0.2959  0.2444
 6072W        W23596  12.042   0.842  12.622 -0.0494  0.0920 -0.1496
 6073W        W23597  16.749  17.411   2.033  0.1795  0.0829 -0.2109
 6074W        W23598   3.242  15.716  13.258  0.3346 -0.1930 -0.1168
 6075W        W23599  11.033  16.288   5.967  0.0356 -0.2081 -0.0038
 6076W        W23600  12.853   8.746   1.143 -0.0382  0.2063 -0.1050
 6077W        W23601  14.292   0.955   0.860  0.1605 -0.1210 -0.0336
 6078W        W23602  10.266   6.050   2.055  0.0660 -0.0316 -0.3276
 6079W        W23603   4.476  10.864  13.135 -0.0098  0.0870  0.0022
 6080W        W23604   4.317  14.718   4.737  0.0977  0.0043  0.0159
 6081W        W23605   0.130  14.661  16.123 -0.0055 -0.0643 -0.4169
 6082W        W23606   3.045  11.550  13.147  0.0795  0.1680  0.0201
 6083W        W23607   3.968  11.728  15.809  0.1608  0.1221 -0.0680
 6084W        W23608   0.330  13.155  15.589 -0.0896 -0.0235 -0.0984
 6085W        W23609  10.250   3.023   2.648  0.1516 -0.2113 -0.1752
 6086W        W23610  10.242   7.763  14.475  0.2311  0.0738 -0.4125
 6087W        W23611   6.029  11.826  16.076  0.1861 -0.1386  0.1180
 6088W        W23612   4.388   0.263  11.909 -0.0859  0.0518 -0.2265
 6089W        W23613  12.194  16.514   1.129 -0.0371 -0.2971  0.0742
 6090W        W23614   3.634   2.500  14.167 -0.3398  0.1833  0.0170
 6091W        W23615   7.970   7.089  16.030 -0.0376 -0.1610  0.0507
 6092W        W23616  17.876   0.346  16.301 -0.1805 -0.3528 -0.0873
 6093W        W23617   6.644  17.900  15.093 -0.2598  0.2073  0.2338
 6094W        W23618   3.537  15.575   4.657 -0.0138  0.3665  0.2558
 6095W        W23619  16.529   8.945  13.270  0.0054  0.0685  0.0859
 6096W        W23620   4.274  12.824   1.424 -0.0702  0.0431  0.0577
 6097W        W23621  11.335  17.872   4.092 -0.1060 -0.1508 -0.1602
 6098W        W23622  12.572   1.427   5.922  0.3023  0.2678 -0.0041
 6099W        W23623  10.606   7.557  10.561  0.1405 -0.1319 -0.1491
 6100W        W23624   6.066  11.383  15.119 -0.2251 -0.0332  0.0139
 6101W        W23625   9.039  17.741  11.676  0.2070  0.2300  0.2276
 6102W        W23626   4.320   9.726  12.572 -0.0124  0.2424  0.1179
 6103W        W23627  17.820   5.500   3.542  0.1195 -0.2374  0.0767
 6104W        W23628  12.263  14.255  14.336 -0.4584  0.1824  0.0889
 6105W        W23629   8.878   0.857   2.796 -0.1525  0.0537  0.0782
 6106W        W23630   2.954  11.632   1.483 -0.0840  0.4373  0.2782
 6107W        W23631   6.310  10.790   0.916  0.4495 -0.0329 -0.0371
 6108W        W23632  17.477  15.474   4.221 -0.1752  0.2753  0.0345
 6109W        W23633   7.200  10.186  13.859  0.1494 -0.1215 -0.0221
 6110W        W23634   9.343   1.781   2.971 -0.0970  0.0349 -0.0549
 6111W        W23635  14.398   2.602  11.895  0.1584  0.0832  0.1164
 6112W        W23636  15.781   1.394  13.972 -0.0492  0.0388 -0.0852
 6113W        W23637  13.276   6.232  13.073  0.1060  0.2350  0.1958
 6114W        W23638   4.618  12.510   0.218  0.2118  0.0944 -0.2271
 6115W        W23639  10.345   6.252   3.830 -0.0616  0.0107  0.0211
 6116W        W23640   6.233   5.191  12.833  0.0803  0.0123  0.1644
 6117W        W23641  12.780  15.600  14.913  0.2420 -0.2408 -0.0214
 6118W        W23642  16.959  13.823   1.625 -0.3060  0.0852 -0.1460
 6119W        W23643  15.569  10.722   1.219 -0.0638  0.1658  0.0104
 6120W        W23644   4.104  12.709   0.009 -0.3333 -0.1722  0.0718
 6121W        W23645  10.607   8.039  13.011 -0.1261 -0.1084  0.2194
 6122W        W23646  13.491   2.738  13.591  0.0160 -0.0663  0.1168
 6123W        W23647   0.972   5.221  14.045  0.0180  0.2009  0.0451
 6124W        W23648   9.636   4.979   3.672  0.2202  0.0868 -0.1370
 6125W        W23649   0.978  15.565  15.015 -0.0932 -0.0938 -0.1856
 6126W        W23650   3.720  10.067   5.190  0.0747 -0.0846  0.1253
 6127W        W23651  15.209   1.275  13.112 -0.0758 -0.1502 -0.0823
 6128W        W23652  10.885   2.469   1.261 -0.1081 -0.0079 -0.0225
 6129W        W23653  12.355  14.869   2.049  0.1845  0.1395 -0.3369
 6130W        W23654   2.625   1.953  12.795 -0.0385  0.0821 -0.0826
 6131W        W23655  16.604  14.366  14.812 -0.0521 -0.0595 -0.0200
 6132W        W23656  13.005   7.913   2.546 -0.1188 -0.1696  0.0792
 6133W        W23657  15.602   4.602  15.404 -0.1103 -0.0723 -0.0127
 6134W        W23658   9.176   3.467   5.353 -0.0065 -0.1054  0.2619
 6135W        W23659   0.086   0.490  12.907 -0.0564 -0.0655 -0.0992
 6136W        W23660   2.536   0.574  15.368  0.1236 -0.2056 -0.1692
 6137W        W23661   3.535   3.679   0.724  0.1490 -0.2763  0.0660
 6138W        W23662   9.750   4.854   4.814 -0.1944  0.0989  0.2980
 6139W        W23663   9.832  14.124  16.039 -0.0304 -0.0305  0.0705
 6140W        W23664  14.799  12.722  14.108  0.2783 -0.1572 -0.0522
 6141W        W23665   9.989   3.255   1.832 -0.0871  0.1229 -0.3116
 6142W        W23666   7.988   6.947  12.440 -0.0551 -0.1999 -0.0556
 6143W        W23667  17.862  10.505  13.290 -0.4483 -0.2559  0.0489
 6144W        W23668   5.334   2.025   4.195 -0.0942  0.0387 -0.0556
 6145W        W23669   6.918   1.671  16.129  0.1159 -0.0276 -0.0782
 6146W        W23670  13.293   5.795  13.340  0.1396 -0.1957  0.0512
 6147W        W23671  16.491   7.645  12.570 -0.4360  0.1806 -0.3115
 6148W        W23672   5.738   9.478   3.924  0.0490  0.0500 -0.3138
 6149W        W23673  14.381   1.849  15.841  0.1446  0.3333 -0.0466
 6150W        W23674   9.379  15.964  15.199 -0.1198  0.0084  0.0569
 6151W        W23675   3.245   5.987  12.923  0.1614  0.0333  0.1027
 6152W        W23676   0.589   3.353   2.447  0.0034  0.3282  0.1616
 6153W        W23677   9.971   7.883   3.920  0.1016 -0.1153  0.2184
 6154W        W23678  11.596   2.537   0.313 -0.0376 -0.1464 -0.0139
 6155W        W23679   9.687  11.744   3.335 -0.0073 -0.2155 -0.0256
 6156W        W23680   0.521  17.371  16.298 -0.1428 -0.0115 -0.0049
 6157W        W23681   5.458  11.781  16.337  0.2613 -0.0635 -0.0281
 6158W        W23682  11.786   1.910   1.407  0.0713  0.1597 -0.0301
 6159W        W23683  14.797  12.665  12.657 -0.0858 -0.1206  0.2515
 6160W        W23684   7.924   3.994   4.879  0.0001  0.1491  0.2802
 6161W        W23685   0.874   0.170   5.249 -0.1649  0.1184 -0.2233
 6162W        W23686  10.947  16.773  14.640 -0.0595 -0.0623  0.1048
 6163W        W23687  17.400   4.085  12.164 -0.0860 -0.0835 -0.2176
 6164W        W23688  13.381  17.825   5.533 -0.1251  0.1048  0.2024
 6165W        W23689   8.082   5.625   4.341  0.1277 -0.0232  0.1495
 6166W        W23690   3.330  14.869   0.864 -0.1847  0.1717  0.0999
 6167W        W23691  11.998   0.996   1.862  0.0320  0.0613 -0.2327
 6168W        W23692  14.285   1.876  12.964 -0.1418 -0.1407  0.1198
 6169W        W23693  17.316   6.633   1.691 -0.2142  0.2389 -0.0748
 6170W        W23694  15.622   7.166   2.058  0.1347 -0.2404 -0.0056
 6171W        W23695  17.187  12.351   0.435 -0.2438 -0.2382  0.0092
 6172W        W23696   7.110   4.241  13.820 -0.0792  0.3141  0.2094
 6173W        W23697   2.599  10.326  14.783 -0.0644  0.0216 -0.2044
 6174W        W23698  14.873   9.613  11.288  0.1936  0.2527 -0.1737
 6175W        W23699   1.096   1.110   3.113  0.2198 -0.1136 -0.1822
 6176W        W23700   4.735  10.850   1.857 -0.1187 -0.1054  0.2438
 6177W        W23701   4.868   1.746  14.265  0.1192 -0.1062 -0.0695
 6178W        W23702  14.234  14.704   1.298  0.0127 -0.3299  0.0799
 6179W        W23703  15.364  17.679   4.014 -0.0505  0.1880 -0.1037
 6180W        W23704   2.550  17.659  13.508  0.1730 -0.0957  0.0382
 6181W        W23705   5.060  13.083  14.801 -0.1207 -0.0631  0.0039
 6182W        W23706   8.560  11.703   1.774  0.1858 -0.2096 -0.0331
 6183W        W23707  11.536   7.508   0.332  0.1510 -0.3200 -0.1644
 6184W        W23708   1.338   7.511  11.828 -0.0091 -0.0508 -0.2120
 6185W        W23709   4.072   7.945   0.980  0.2312  0.0641 -0.0571
 6186W        W23710  13.833  13.968  12.034 -0.2661  0.1020  0.0088
 6187W        W23711   7.079  17.731  14.047  0.2294 -0.1740  0.0893
 6188W        W23712   9.070   2.922  16.287 -0.0743 -0.2915 -0.0349
 6189W        W23713  16.189  17.188  12.866 -0.1291  0.0972  0.0501
 6190W        W23714  17.236  15.302   1.613  0.4058 -0.4866  0.0679
 6191W        W23715   1.926  15.173   1.681  0.0045  0.1607  0.1874
 6192W        W23716  15.596  17.925   0.679  0.1604  0.0429 -0.2268
 6193W        W23717  11.851   9.632   1.299 -0.1644 -0.2667 -0.2203
 6194W        W23718  10.401  14.738  12.383  0.1248 -0.1510  0.0960
 6195W        W23719   1.652   2.431  11.365 -0.0488  0.3781 -0.1243
 6196W        W23720  14.114   4.127   3.243 -0.0843 -0.1784 -0.0408
 6197W        W23721   1.642  11.791   3.967 -0.0700 -0.2255  0.1368
 6198W        W23722  16.213   0.490  15.637 -0.0018  0.0941 -0.2200
 6199W        W23723   8.458   9.395   1.234  0.2668 -0.1403 -0.0111
 6200W        W23724   3.603   9.028  13.882  0.0859 -0.2316 -0.0912
 6201W        W23725   6.363   4.632   1.535 -0.0833  0.0876  0.3361
 6202W        W23726   5.731   6.931   5.029 -0.0316  0.2207  0.0267
 6203W        W23727  17.537   8.347   4.628 -0.2505  0.4141 -0.2035
 6204W        W23728   6.258  17.967  14.328  0.2062 -0.2954 -0.1828
 6205W        W23729  16.513  10.665   1.949  0.0323 -0.1301  0.1681
 6206W        W23730   0.358  16.853  12.700  0.0411 -0.0983  0.0251
 6207W        W23731   9.238   4.229   4.606  0.0131 -0.0692  0.1368
 6208W        W23732  13.884   3.646  13.431 -0.1298 -0.1896  0.2178
 6209W        W23733  16.487   0.260  16.183  0.1332 -0.1777  0.1014
 6210W        W23734   5.480  16.124  10.773 -0.3961  0.0677 -0.0262
 6211W        W23735  13.873   9.525  14.915 -0.3955  0.2040 -0.1124
 6212W        W23736   7.212   0.438   1.762 -0.1522  0.0304  0.3213
 6213W        W23737  16.062  16.833  13.912 -0.0991  0.1296  0.1042
 6214W        W23738   8.184  15.562   5.325 -0.4298 -0.0919  0.3414
 6215W        W23739  16.305   1.515  14.048  0.1155  0.1012  0.0090
 6216W        W23740   1.780   9.568  11.498  0.2732 -0.1390  0.1360
 6217W        W23741   2.850  10.854   4.587 -0.4398  0.1473 -0.1591
 6218W        W23742   2.761   0.036  12.305  0.2274  0.1136  0.1506
 6219W        W23743   0.788  13.062   2.803  0.1182  0.1276  0.3337
 6220W        W23744  16.632   8.199  11.993  0.2387  0.1485  0.1682
 6221W        W23745   4.560   4.375  11.492  0.2004  0.1317  0.0512
 6222W        W23746   6.336  15.495  15.101  0.0765  0.1321  0.3764
 6223W        W23747  17.812  13.698   4.909  0.1492  0.2999  0.0844
 6224W        W23748  12.649   6.738  13.955 -0.2049  0.3261  0.0583
 6225W        W23749   0.868  13.766   0.150  0.0695 -0.0043 -0.3477
 6226W        W23750   2.817  12.826   5.090 -0.1306 -0.1405 -0.1762
 6227W        W23751  15.099  14.081  12.408 -0.1101  0.1903  0.2664
 6228W        W23752   3.624   5.152   0.363  0.0415  0.1033 -0.1007
 6229W        W23753  13.835  13.193   3.837 -0.1802  0.2929 -0.0510
 6230W        W23754   9.576  13.675  16.123 -0.0027  0.0708  0.3305
 6231W        W23755  13.650  13.221   1.177 -0.2046  0.2042 -0.5008
 6232W        W23756   1.732   4.426   1.907 -0.3112  0.0895 -0.1710
 6233W        W23757   8.145   1.401   4.519  0.1158 -0.1744 -0.0762
 6234W        W23758  14.113   0.154  14.039 -0.2043  0.0378 -0.1451
 6235W        W23759  10.247  15.019  12.772 -0.0726  0.0746  0.0762
 6236W        W23760  13.404   9.979  11.686  0.1145 -0.0367 -0.3226
 6237W        W23761   2.637   6.511   2.585  0.1846  0.2296 -0.2758
 6238W        W23762   1.690  12.758  16.323 -0.0051 -0.0992 -0.0999
 6239W        W23763  14.025  15.483  14.016 -0.1609  0.0887  0.1240
 6240W        W23764   0.826   6.758  14.313 -0.0676  0.0568  0.0379
 6241W        W23765   7.643   8.581   2.057  0.2664  0.1400 -0.2733
 6242W        W23766   9.969  13.967   5.593  0.2366 -0.1565 -0.0089
 6243W        W23767   6.238   4.729  12.504  0.2266  0.4317 -0.0851
 6244W        W23768  12.203   4.875  11.071  0.1381 -0.0313 -0.1235
 6245W        W23769   7.529   0.198  15.539 -0.1513 -0.0434  0.0999
 6246W        W23770   0.084   2.903   4.281  0.0634 -0.0514  0.0650
 6247W        W23771   7.948   0.787  12.344 -0.1161 -0.1123  0.1692
 6248W        W23772   8.142   7.420   3.017  0.3737 -0.0292  0.1148
 6249W        W23773   9.903  10.860  12.504  0.2308  0.0641 -0.0963
 6250W        W23774  17.334  12.351   2.485  0.1357 -0.3057  0.1643
 6251W        W23775   9.417  15.966   3.260 -0.1709  0.3853  0.0011
 6252W        W23776   5.869  11.911  13.064  0.2200  0.0930  0.1345
 6253W        W23777  12.205  10.363  12.620 -0.1845  0.2536 -0.0072
 6254W        W23778   4.389   4.127   2.556 -0.2168  0.0495  0.0253
 6255W        W23779   1.765   5.756  15.549  0.1301  0.2723 -0.0013
 6256W        W23780   7.398   1.528  15.059  0.2191  0.0904 -0.2481
 6257W        W23781  16.751  16.031   3.585  0.1747 -0.0213 -0.2771
 6258W        W23782   9.901  14.885  12.403 -0.0305  0.0294  0.1376
 6259W        W23783   5.508   0.341   2.387 -0.4670 -0.2194 -0.2731
 6260W        W23784  10.092  10.812  15.495  0.0593 -0.1331 -0.1107
 6261W        W23785   0.502   3.847   2.101 -0.2334 -0.0937  0.1024
 6262W        W23786   8.313  10.551  12.887 -0.2060 -0.0371 -0.0799
 6263W        W23787   6.071   1.422   3.426 -0.1091 -0.0210 -0.0179
 6264W        W23788  15.687   2.202   1.006 -0.1664 -0.0868 -0.0717
 6265W        W23789   1.319   5.817  12.561 -0.0788  0.4874  0.1306
 6266W        W23790   8.921   6.806  16.310  0.1212 -0.0293  0.0931
 6267W        W23791  15.279  17.314   5.433  0.1246 -0.1724 -0.2064
 6268W        W23792  11.302   9.098  13.811  0.0287  0.2059 -0.1164
 6269W        W23793   2.006  12.297  11.471  0.0468 -0.0703  0.0360
 6270W        W23794   7.528   1.073   3.525 -0.3228  0.1151  0.2404
 6271W        W23795  15.131  17.322   1.724  0.0480  0.0976  0.1917
 6272W        W23796  12.793   4.966  14.199 -0.0193 -0.3042  0.0862
 6273W        W23797   2.078  17.220   4.895  0.5872  0.1651 -0.0234
 6274W        W23798   7.490   2.636  11.195 -0.2089 -0.0373 -0.2646
 6275W        W23799   6.611   5.605  11.096 -0.0431 -0.0268  0.5026
 6276W        W23800   6.268   8.104   0.719 -0.0208 -0.1155 -0.1477
 6277W        W23801   4.091   4.176   3.415  0.1147 -0.0960 -0.0917
 6278W        W23802  15.474  12.044  16.225 -0.3344 -0.0106 -0.1351
 6279W        W23803   3.763   9.331   0.516  0.0455 -0.0552  0.1616
 6280W        W23804   7.965  16.509  14.167  0.0388  0.1844 -0.0652
 6281W        W23805   2.508  17.583   0.466 -0.3026 -0.0414 -0.0642
 6282W        W23806   0.684   7.051  13.951  0.0681  0.0387  0.5199
 6283W        W23807   0.447   7.578  10.721  0.1363 -0.0482 -0.1764
 6284W        W23808  15.657  11.758  11.859 -0.0348  0.1671  0.0462
 6285W        W23809   2.857   3.654   0.073  0.0143 -0.0546 -0.0580
 6286W        W23810  16.498  12.246   2.965  0.1709 -0.2102 -0.0269
 6287W        W23811   0.962   3.281   3.652  0.2221 -0.1824 -0.1127
 6288W        W23812  10.231   5.203  14.642 -0.1128  0.2265 -0.0863
 6289W        W23813   3.402  13.892   2.913  0.0385 -0.1626  0.2573
 6290W        W23814  10.710   3.545  15.477 -0.0435  0.1119 -0.0626
 6291W        W23815   3.098   1.485   3.193 -0.1498 -0.4134  0.0494
 6292W        W23816   1.199   5.396  10.989  0.1736 -0.0357 -0.4523
 6293W        W23817   9.398   3.849   5.177 -0.2241 -0.1594 -0.3488
 6294W        W23818  17.482   4.432   4.592 -0.3059 -0.2755 -0.0796
 6295W        W23819   8.429   4.411  15.746  0.3854  0.5464 -0.1426
 6296W        W23820  15.938   3.559  13.174 -0.0462 -0.3901 -0.3465
 6297W        W23821   2.649   9.599   3.435 -0.0344  0.3250  0.0428
 6298W        W23822  13.509  16.883   2.364  0.2204  0.1403  0.0097
 6299W        W23823  12.596  15.587   2.166  0.0949  0.0106 -0.2887
 6300W        W23824  15.934   4.129  15.225  0.2309  0.2805 -0.4528
 6301W        W23825   9.088  10.458  12.089  0.0913 -0.2197 -0.2416
 6302W        W23826  14.293   7.352  14.821  0.2539 -0.4222 -0.1112
 6303W        W23827   2.860   6.815   1.536  0.1867  0.3506  0.1532
 6304W        W23828   9.034   9.913  13.003  0.0080  0.0604  0.1010
 6305W        W23829   7.056  15.503  13.956 -0.1257  0.0018 -0.1899
 6306W        W23830  16.585   5.205  11.543 -0.1495  0.2453 -0.0270
 6307W        W23831  10.714   8.525  15.765 -0.3092  0.1237 -0.2283
 6308W        W23832  11.916   7.292   1.231  0.0392 -0.0232  0.3840
 6309W        W23833   3.348   7.004  15.920 -0.0099  0.1422 -0.3737
 6310W        W23834  11.628  10.697  15.781  0.1180  0.4173  0.2238
 6311W        W23835   9.277  14.800  12.686  0.3944  0.0799 -0.2042
 6312W        W23836  13.302  11.651   5.118  0.2151 -0.0292  0.0256
 6313W        W23837   1.091   9.199   2.770  0.0856  0.1454 -0.0331
 6314W        W23838   6.099  12.778   2.348  0.1531 -0.2372  0.0811
 6315W        W23839  11.117  14.657  12.824  0.2536 -0.0120 -0.1357
 6316W        W23840   7.343   6.341  10.884  0.1126 -0.2559 -0.1503
 6317W        W23841  11.906  12.372   1.825 -0.0969 -0.0287  0.1296
 6318W        W23842   9.507  10.740  11.797 -0.0491 -0.2183  0.2784
 6319W        W23843  15.464  11.560  14.231  0.3257 -0.2876  0.0299
 6320W        W23844  13.415  11.910   4.613 -0.0207 -0.0846 -0.0828
 6321W        W23845   7.693   9.448  14.176 -0.0879 -0.0045  0.1553
 6322W        W23846   1.965  16.158   1.873  0.2034 -0.0402  0.4111
 6323W        W23847  15.174   7.756  12.719  0.0660 -0.0103 -0.0263
 6324W        W23848   9.300  10.316  13.190 -0.0310  0.0566 -0.3028
 6325W        W23849  15.130   1.049   0.349 -0.0760  0.0805 -0.0592
 6326W        W23850   1.160  17.916   0.267 -0.0354 -0.0204  0.0127
 6327W        W23851  12.110   5.876  15.432 -0.0271 -0.0759 -0.0933
 6328W        W23852  15.970  13.879   3.310  0.0899  0.4994  0.2836
 6329W        W23853   5.037  13.296  12.317  0.1103 -0.1805  0.3510
 6330W        W23854   5.577  13.942  14.860 -0.1628  0.2637  0.0459
 6331W        W23855  14.592   7.140   2.954 -0.1497 -0.1050  0.1652
 6332W        W23856   4.684   6.197  16.017 -0.1085 -0.0974  0.3023
 6333W        W23857   1.417   8.361  16.247 -0.0908  0.2056 -0.2203
 6334W        W23858  15.883   9.008  11.702 -0.3363  0.3470  0.0687
 6335W        W23859  17.944  11.261   0.405  0.0172 -0.2411  0.0812
 6336W        W23860  14.101   7.788   3.309 -0.0508 -0.1822  0.0137
 6337W        W23861   4.508   8.066   4.367  0.1334 -0.1873 -0.2126
 6338W        W23862   8.065  16.137  15.157 -0.1347  0.0409 -0.2939
 6339W        W23863   4.395  17.647  11.239  0.2259 -0.0565 -0.0141
 6340W        W23864  16.360   5.314   0.687  0.0717 -0.0968 -0.0449
 6341W        W23865   8.789  15.540   2.186 -0.0370 -0.1501  0.0465
 6342W        W23866   3.869  12.771  11.402  0.0157  0.0328  0.0933
 6343W        W23867  13.553   8.134   1.390  0.0679 -0.1027 -0.1413
 6344W        W23868   7.643   2.839   3.306 -0.2698  0.1148  0.1446
 6345W        W23869   7.430   1.198  13.254 -0.2370  0.0857 -0.2610
 6346W        W23870  11.502  13.140  15.365  0.0344  0.0181 -0.0629
 6347W        W23871  17.587   3.041   4.438 -0.0378  0.1802  0.1125
 6348W        W23872  16.234   2.665  16.420  0.2963 -0.2777  0.3423
 6349W        W23873   2.862   2.770  12.581 -0.0764 -0.0322 -0.3529
 6350W        W23874   7.700  11.925  11.872  0.0337 -0.1457 -0.0053
 6351W        W23875   0.248   4.217   4.609 -0.0598 -0.1631 -0.0868
 6352W        W23876   4.489   9.563   0.804  0.0398  0.1203  0.0040
 6353W        W23877   2.340   1.579   2.964  0.1155  0.1539 -0.1881
 6354W        W23878  15.318  17.196  12.938 -0.2931 -0.1936  0.0512
 6355W        W23879  17.214  13.314   5.367  0.1918 -0.2013 -0.0412
 6356W        W23880  11.432  12.869   0.800 -0.0615 -0.4662 -0.1114
 6357W        W23881   7.833   0.986  16.321 -0.4721 -0.0331  0.2215
 6358W        W23882   6.142   9.320  12.869  0.1505 -0.1398  0.0363
 6359W        W23883   2.572  17.321   4.752 -0.1819  0.2214 -0.0073
 6360W        W23884  15.501   9.300   1.552 -0.1231  0.0647  0.0117
 6361W        W23885   6.704   3.208  12.051 -0.1563 -0.0457 -0.0978
 6362W        W23886   5.959  16.467   2.237 -0.0160 -0.0316  0.0603
 6363W        W23887  13.031  12.963   0.406  0.4256  0.0283  0.1895
 6364W        W23888  12.742   3.389  11.542 -0.0420 -0.1350 -0.0604
 6365W        W23889   4.676  16.032  15.687  0.2747  0.0408 -0.1566
 6366W        W23890   9.027  13.899  14.448  0.1110 -0.2507  0.2049
 6367W        W23891  13.400  17.861   1.348  0.0114 -0.0802  0.1035
 6368W        W23892  12.179   7.617   4.718 -0.0344 -0.2408 -0.1038
 6369W        W23893  15.561   6.391  13.293 -0.0529  0.0948 -0.1213
 6370W        W23894  11.370   3.665   3.022 -0.1841  0.1504  0.0765
 6371W        W23895  16.817   8.571   0.794  0.0610  0.3636 -0.0455
 6372W        W23896   7.488   2.229   1.452 -0.2285  0.1276  0.0461
 6373W        W23897  12.913  16.374  11.614  0.1018 -0.0592  0.2072
 6374W        W23898  13.352  10.048  13.056 -0.1255  0.0052 -0.3649
 6375W        W23899   8.760   7.661  11.457 -0.2790 -0.0287  0.0130
 6376W        W23900   7.671   1.439  14.547 -0.0329 -0.1761  0.0334
 6377W        W23901   9.723   7.922   3.478  0.0694 -0.0562 -0.1833
 6378W        W23902   2.187   3.584  14.083  0.5178 -0.0420 -0.0817
 6379W        W23903   4.903   2.532   4.524 -0.0258 -0.0623  0.2081
 6380W        W23904   3.370  15.540   2.651  0.4474  0.0923 -0.0058
 6381W        W23905  15.418  15.861  12.680  0.0090  0.1368 -0.3034
 6382W        W23906   6.609  15.370  12.641 -0.1243 -0.0671 -0.0071
 6383W        W23907   5.361  13.012   1.507 -0.0330 -0.1511  0.0996
 6384W        W23908  12.797   8.485   0.677  0.1457 -0.2708 -0.1626
 6385W        W23909  15.780  11.060  10.319 -0.0249 -0.0485  0.2489
 6386W        W23910   7.691   3.009  14.300  0.0270 -0.2040 -0.1745
 6387W        W23911   9.075   6.347  11.398  0.1000 -0.1285  0.1937
 6388W        W23912  15.506  14.533  15.291 -0.0876 -0.0874  0.0776
 6389W        W23913  14.020   2.980   3.117 -0.2098  0.0086  0.2287
 6390W        W23914   3.583  17.489  14.503  0.2122  0.1133  0.2393
 6391W        W23915  13.370   8.364  14.432 -0.1659 -0.2895 -0.0005
 6392W        W23916   9.464  11.079  12.791 -0.1494  0.1069  0.1032
 6393W        W23917  17.463  14.633  15.898  0.2406  0.1316  0.0645
 6394W        W23918   3.974  13.650  14.874  0.1512  0.1337  0.0413
 6395W        W23919  15.583   7.647   2.169  0.0510 -0.6183 -0.0165
 6396W        W23920   7.595  15.569  11.290 -0.1302  0.2686 -0.0041
 6397W        W23921   0.134   5.082   4.266  0.0010  0.1752  0.0458
 6398W        W23922  16.469   4.272  12.962 -0.4377  0.0061  0.2581
 6399W        W23923   0.123   9.818   0.417 -0.1718  0.2255  0.1180
 6400W        W23924   7.868   9.498  13.732  0.1543 -0.4128  0.4985
 6401W        W23925   6.922  13.180   5.235  0.1763  0.1116 -0.1064
 6402W        W23926  12.074   3.582   1.088  0.2894  0.0420  0.0550
 6403W        W23927  12.699  12.604   2.555 -0.1110  0.0963 -0.0079
 6404W        W23928   6.123  10.224  12.350 -0.1652  0.0926 -0.1396
 6405W        W23929   6.421  11.060  15.091  0.0152  0.0609 -0.0539
 6406W        W23930   0.846   6.056  11.590 -0.0891 -0.2218  0.0843
 6407W        W23931   4.963  14.316  14.208 -0.1892 -0.0185  0.2476
 6408W        W23932   3.347  13.053  12.343 -0.3075 -0.1114  0.1864
 6409W        W23933  14.042   4.449  16.257 -0.1167 -0.1660 -0.2492
 6410W        W23934   7.183   4.479   4.572 -0.1225 -0.0405 -0.0746
 6411W        W23935  15.500   6.277   0.544  0.1946  0.1409  0.0258
 6412W        W23936  15.077   9.468  13.965 -0.0547 -0.0170 -0.0494
 6413W        W23937   3.794   6.955  15.534  0.1196 -0.1608  0.3002
 6414W        W23938   6.437  10.465  12.952 -0.1219  0.2274  0.0712
 6415W        W23939   2.961   7.077   0.403 -0.4271 -0.0329  0.1308
 6416W        W23940   8.509  12.598  12.867 -0.0963 -0.0297 -0.0112
 6417W        W23941   2.344  10.878   2.658 -0.3852  0.0189 -0.1126
 6418W        W23942  10.700   9.854   4.884 -0.0676 -0.0391 -0.1139
 6419W        W23943   0.255  16.987   0.104  0.0137  0.1673 -0.2733
 6420W        W23944  10.458   5.344   1.191  0.1322 -0.1151  0.2435
 6421W        W23945   7.515  10.945  15.573  0.3060 -0.0081 -0.1787
 6422W        W23946  15.144   0.777  12.591  0.1316 -0.1410 -0.1360
 6423W        W23947  15.665   8.098   3.328  0.2387  0.4697  0.1715
 6424W        W23948   3.815   1.288  12.343  0.0740  0.1318 -0.3372
 6425W        W23949   9.575  14.422  12.793  0.1916 -0.4846 -0.2066
 6426W        W23950  15.992  16.466   2.952  0.1048  0.1142  0.0875
 6427W        W23951   2.956   4.976   4.702  0.0144 -0.0672  0.1094
 6428W        W23952   2.246   3.886  13.170  0.2153 -0.3513  0.2495
 6429W        W23953   2.058  14.194  14.295  0.2795 -0.1341 -0.0408
 6430W        W23954  13.413  11.368   2.648  0.1471  0.0016 -0.0429
 6431W        W23955   6.389   5.137   3.087  0.0028  0.1852 -0.2975
 6432W        W23956  17.401  14.688  14.132 -0.1061  0.0887  0.1179
 6433W        W23957   7.688   4.149   0.515  0.0909  0.1029  0.0908
 6434W        W23958  14.565  10.766  11.912 -0.0380  0.3975  0.1883
 6435W        W23959  11.126  13.727   5.010 -0.0330  0.0166 -0.0758
 6436W        W23960   7.156  12.196   1.411  0.2428 -0.1399 -0.1595
 6437W        W23961  17.203   2.593   5.027 -0.2664 -0.1412 -0.0799
 6438W        W23962   7.569  14.982   3.385  0.0953  0.1626 -0.1899
 6439W        W23963   4.724  15.813  14.126 -0.0726 -0.0053  0.2184
 6440W        W23964   4.331   0.477   0.240  0.4446 -0.0701  0.0285
 6441W        W23965  12.274  10.429  15.115  0.2112 -0.0734  0.2376
 6442W        W23966   3.046   5.057  15.806  0.0104 -0.2597  0.0234
 6443W        W23967   8.123   8.687   3.033 -0.1739 -0.0697  0.1457
 6444W        W23968  10.427   7.775   0.957  0.3272  0.0571 -0.1540
 6445W        W23969   7.722  11.545   0.635 -0.0872 -0.2438  0.0332
 6446W        W23970   8.302   0.871   3.340 -0.0535 -0.2967  0.2010
 6447W        W23971   3.781  11.231  13.691 -0.2238 -0.1154 -0.2118
 6448W        W23972  17.791  10.008   1.700  0.2437  0.0274  0.0167
 6449W        W23973  15.402  14.034  15.390 -0.2898  0.1219 -0.0448
 6450W        W23974   4.734   5.980   1.648 -0.1556  0.0550  0.2102
 6451W        W23975  13.475  15.339  13.702 -0.1118  0.1379 -0.0158
 6452W        W23976   9.526  16.682   0.785  0.0304 -0.3338  0.1755
 6453W        W23977  13.461  11.881  16.304  0.0064  0.1248 -0.0131
 6454W        W23978  13.373   7.442   0.582 -0.1755 -0.0052 -0.2451
 6455W        W23979   0.835  15.391   2.593  0.1789 -0.2234 -0.0100
 6456W        W23980   3.437   1.383   3.734 -0.0272  0.0326 -0.2155
 6457W        W23981  13.719  15.418   1.032  0.3015  0.0291  0.1715
 6458W        W23982   4.368  10.840  15.691 -0.1636  0.1360  0.2991
 6459W        W23983   0.686  16.143  11.887  0.0250 -0.1249 -0.0074
 6460W        W23984  17.470   0.346  15.969  0.0167  0.1649  0.0739
 6461W        W23985   3.546  12.457  11.567  0.1659 -0.0570 -0.0068
 6462W        W23986   4.277   7.163   2.389 -0.0016 -0.4453 -0.2154
 6463W        W23987   5.711   8.310   1.901  0.0222 -0.1178  0.1899
 6464W        W23988  15.291   9.659  14.963 -0.3627  0.1424 -0.1748
 6465W        W23989   9.227   1.338   5.554  0.0298 -0.0369 -0.1376
 6466W        W23990   3.009  16.446  14.812  0.1315  0.1346 -0.0258
 6467W        W23991   8.177  12.585   3.875  0.1958  0.0363 -0.0146
 6468W        W23992  12.237  10.938   2.683 -0.2074 -0.0089  0.2649
 6469W        W23993   4.205   6.456  16.011 -0.0994 -0.0397 -0.3266
 6470W        W23994   1.304  11.518   2.243  0.0084 -0.0086 -0.2583
 6471W        W23995  11.235  13.629  14.862 -0.3805  0.3935  0.1962
 6472W        W23996  11.631  17.388  12.352  0.1580 -0.0498  0.2845
 6473W        W23997  16.219  11.941   3.282 -0.4429 -0.2003 -0.0681
 6474W        W23998  13.047  13.809   6.431  0.0454  0.3830  0.3733
 6475W        W23999  14.607   5.759   4.793 -0.1138 -0.1391 -0.1704
 6476W        W24000  17.238  15.135  14.815  0.0469 -0.1911 -0.0023
 6477W        W24001   8.526   0.136   1.541  0.1656  0.2820 -0.2358
 6478W        W24002   6.019   6.452  10.347  0.3083 -0.1394 -0.3187
 6479W        W24003   8.365   3.784  10.192  0.1180 -0.0556  0.0036
 6480W        W24004  16.783  17.926  11.913  0.1432 -0.2622  0.0258
 6481W        W24005   8.876  16.470  15.043  0.3506 -0.0502  0.2258
 6482W        W24006   1.662  15.731  16.230 -0.1739 -0.0332  0.0084
 6483W        W24007  17.313   4.851  13.185  0.0152 -0.2722 -0.1538
 6484W        W24008  10.611   7.421   2.387  0.1087  0.2059 -0.0225
 6485W        W24009  16.747  13.307   2.743  0.2230  0.2495 -0.1494
 6486W        W24010   0.427  17.432  11.996  0.0736 -0.0474  0.0100
 6487W        W24011  12.177  14.037  12.304 -0.0331 -0.2024  0.0492
 6488W        W24012   8.942   8.379  15.955  0.0669  0.0018  0.2609
 6489W        W24013  14.379  10.679   0.473  0.0717 -0.1010  0.3040
 6490W        W24014   3.787   7.583  12.342  0.0422 -0.3048 -0.0900
 6491W        W24015   7.327  15.792  13.593  0.0193 -0.1542  0.0527
 6492W        W24016   8.852  11.106  16.320 -0.1217  0.0384  0.0525
 6493W        W24017   1.218   9.551  15.628 -0.2457 -0.0081 -0.1540
 6494W        W24018   6.665  12.762  13.241 -0.1825  0.1030 -0.1618
 6495W        W24019   8.769  10.648   1.285  0.1260 -0.1673  0.0697
 6496W        W24020   4.310  12.595   3.683 -0.2824 -0.1429 -0.2174
 6497W        W24021   7.845  10.648  13.028 -0.0720 -0.2704 -0.1675
 6498W        W24022   7.533   2.146   2.491 -0.2531 -0.0260 -0.0845
 6499W        W24023   2.656   7.774  12.862 -0.1569 -0.3100 -0.2793
 6500W        W24024  11.954  13.402  11.928 -0.0518 -0.0107 -0.2596
 6501W        W24025   3.383   1.010  15.273 -0.4049  0.0204 -0.0714
 6502W        W24026   1.409   6.772  11.170  0.0333  0.0210 -0.0706
 6503W        W24027   1.974   2.703   2.123 -0.0410  0.0255  0.0599
 6504W        W24028   7.752  17.283  13.533  0.0535  0.1817 -0.3301
 6505W        W24029   6.954  11.964  11.218  0.1395 -0.2503  0.1324
 6506W        W24030  17.090   6.988   4.125  0.1433  0.1752  0.1710
 6507W        W24031   8.987   3.737  11.119  0.1321 -0.0618  0.0730
 6508W        W24032   1.355   7.223  15.782 -0.2118  0.0219 -0.1069
 6509W        W24033   1.103  14.493  15.612 -0.3215  0.3522  0.1519
 6510W        W24034  14.432  16.297   2.986  0.0251 -0.0850 -0.2150
 6511W        W24035   5.720   7.338  11.374 -0.0633 -0.2304 -0.1740
 6512W        W24036  13.987   0.192   1.280 -0.1073 -0.4058 -0.3813
 6513W        W24037   4.500   0.205  15.382 -0.0079  0.1718 -0.0935
 6514W        W24038  17.711   9.288  14.711 -0.0349 -0.2667 -0.1592
 6515W        W24039   1.477   0.863   4.896 -0.0498 -0.2738  0.1688
 6516W        W24040   5.425   3.624  15.641  0.2894 -0.1178  0.4678
 6517W        W24041  13.130   8.499   4.775  0.3549 -0.2096  0.1871
 6518W        W24042  10.346   3.745  15.697 -0.0606  0.1199  0.2575
 6519W        W24043  10.856  10.211   0.006  0.1819 -0.3488 -0.0627
 6520W        W24044   3.326  14.410   3.097  0.2208  0.0170 -0.0676
 6521W        W24045   0.018   1.060   0.129  0.0965 -0.1220 -0.0771
 6522W        W24046  12.632  11.165  14.349 -0.3038  0.0343  0.0630
 6523W        W24047  14.376   6.698   4.261 -0.2277  0.0444  0.1109
 6524W        W24048   5.417   9.839   2.964  0.0355  0.2044  0.2474
 6525W        W24049  12.101  10.945  14.524 -0.0877  0.1589 -0.0273
 6526W        W24050  12.180  16.709  15.654 -0.2436 -0.1500  0.0390
 6527W        W24051   6.321  14.636  12.140 -0.0603  0.1923  0.1423
 6528W        W24052  10.820   3.507  12.212  0.0386 -0.0307  0.0604
 6529W        W24053   3.666   5.063   0.862 -0.0986  0.2108  0.1191
 6530W        W24054   0.962   5.392  12.498 -0.0963 -0.0221  0.0243
 6531W        W24055   7.275   5.488  13.607  0.1373  0.2997  0.0866
 6532W        W24056   1.849   1.011   2.327  0.0899 -0.1460  0.1218
 6533W        W24057  11.735   0.169   3.988 -0.1438 -0.0264  0.2430
 6534W        W24058  17.055  13.473   1.981  0.3280  0.0105  0.0731
 6535W        W24059   9.775   2.984   4.171  0.0473  0.2030 -0.2353
 6536W        W24060   7.710  10.837   2.410  0.0079 -0.0158  0.3601
 6537W        W24061   2.754  15.354   0.707 -0.1676 -0.2561 -0.0985
 6538W        W24062   6.847  15.938  11.708  0.1073 -0.1042 -0.0532
 6539W        W24063   8.040   7.481   1.211  0.2990 -0.0080  0.1818
 6540W        W24064  15.780   6.159  12.558 -0.1027  0.0645 -0.0016
 6541W        W24065  14.465   0.681   4.582  0.0631 -0.3282 -0.2703
 6542W        W24066  16.770   1.137   3.270 -0.1830  0.0949 -0.3075
 6543W        W24067   2.763  13.568  12.628 -0.1515  0.2293 -0.0320
 6544W        W24068   3.843   5.590   3.820  0.0522  0.1018 -0.0261
 6545W        W24069  14.025  16.780   1.450 -0.0167 -0.0359  0.0999
 6546W        W24070  13.127   6.977  15.617 -0.0790  0.2904 -0.0031
 6547W        W24071   6.061   1.541   2.151 -0.3089 -0.1168 -0.0784
 6548W        W24072  15.969   2.396   4.778  0.1524  0.1749  0.4299
 6549W        W24073   3.462   3.920  11.899  0.1388  0.1372  0.2582
 6550W        W24074   9.173  13.618  13.349 -0.0250 -0.1220 -0.2223
 6551W        W24075   2.830   8.617  12.291  0.1704 -0.2014  0.0510
 6552W        W24076  15.819  17.125   4.638 -0.0729 -0.0654  0.1095
 6553W        W24077  16.324  14.813  13.949  0.1115 -0.0963 -0.0746
 6554W        W24078   8.376  12.935   3.428 -0.4425  0.0442  0.0603
 6555W        W24079  11.830  16.176  11.668 -0.3331  0.2847 -0.0126
 6556W        W24080  17.573  16.340  11.808 -0.0517  0.0610 -0.0449
 6557W        W24081   1.920   1.457   2.257  0.1239 -0.0484  0.2590
 6558W        W24082   7.748   9.662  14.925  0.0952  0.0954 -0.0883
 6559W        W24083   9.729   5.436  12.478  0.0560 -0.3258 -0.2624
 6560W        W24084  11.359   4.442   0.495 -0.2003  0.1298 -0.0549
 6561W        W24085   7.831  14.230   3.019 -0.0287 -0.0460 -0.4342
 6562W        W24086   8.988  15.439  10.812  0.0013 -0.1408  0.2747
 6563W        W24087   4.069  15.630  15.470  0.3949  0.1490  0.0744
 6564W        W24088   4.053   6.089  13.349 -0.3137 -0.0905 -0.0711
 6565W        W24089  15.717   6.236  16.120 -0.0593 -0.0281 -0.0734
 6566W        W24090   4.140  16.677   2.689  0.3994  0.0659 -0.1425
 6567W        W24091   9.679   2.157   4.286 -0.2612 -0.1253 -0.1979
 6568W        W24092  15.858   3.783   0.620  0.1976  0.0508  0.1129
 6569W        W24093  10.339  12.064   1.197 -0.2395 -0.2209  0.2147
 6570W        W24094   7.590  14.756   1.711  0.1050  0.2153  0.1802
 6571W        W24095  17.187  11.869  14.328  0.0896 -0.1611 -0.0943
 6572W        W24096  10.993  13.142  15.003  0.2283 -0.2927  0.0490
 6573W        W24097  11.085   4.584   1.521  0.2039  0.0206 -0.3666
 6574W        W24098   7.659   6.157  12.440  0.1694 -0.1598 -0.0212
 6575W        W24099  12.118   3.721   4.892  0.1024  0.0126  0.1816
 6576W        W24100   8.678  12.655  16.414  0.0958 -0.2645 -0.1198
 6577W        W24101   4.230   8.197  14.754  0.2114 -0.2387  0.2055
 6578W        W24102   3.713  14.704   1.531 -0.0117  0.0054 -0.2820
 6579W        W24103  12.071   1.731   2.328 -0.2979  0.0232  0.1297
 6580W        W24104   1.798   3.381   4.769  0.3279  0.3128 -0.4121
 6581W        W24105   6.569  12.154  12.634 -0.3961 -0.5099 -0.1909
 6582W        W24106   2.918   1.504  14.609  0.0354 -0.3261  0.0767
 6583W        W24107   6.208   2.873   2.635 -0.1522 -0.0652  0.2026
 6584W        W24108   8.069  15.569  15.119 -0.0057 -0.0331 -0.0868
 6585W        W24109  15.123   5.347   0.788 -0.2884  0.0834 -0.1994
 6586W        W24110  13.879   5.931   3.168 -0.0623  0.2669  0.4421
 6587W        W24111   2.506  14.003  12.426  0.3784  0.0351  0.3498
 6588W        W24112   7.604   7.746   0.175  0.4238 -0.1888 -0.1421
 6589W        W24113   6.658  10.815  13.463 -0.7429  0.1049 -0.2117
 6590W        W24114   5.824  10.615   1.165 -0.1700 -0.0105  0.0888
 6591W        W24115  14.425   2.178  16.374  0.0112 -0.1313  0.0602
 6592W        W24116  14.265   3.686  13.737 -0.3121  0.1124 -0.3813
 6593W        W24117  13.505   2.350  15.110 -0.2640 -0.2609  0.1899
 6594W        W24118  10.515  14.647  12.923 -0.2781  0.0519  0.0597
 6595W        W24119  12.502   4.641  14.474  0.1659 -0.3169  0.0909
 6596W        W24120   3.724   4.578  14.570 -0.1857  0.5183  0.1598
 6597W        W24121  14.054  16.174   1.574  0.3122  0.0764 -0.1998
 6598W        W24122  11.283  14.661   4.185 -0.3382 -0.1190 -0.0296
 6599W        W24123  16.193   3.570  11.580 -0.1564  0.0078  0.0869
 6600W        W24124   9.231   3.948  15.247  0.2861 -0.2171 -0.1894
 6601W        W24125   8.270  12.953  12.073  0.1760 -0.1546 -0.0002
 6602W        W24126   1.996  14.504  13.531  0.1273  0.0527 -0.0194
 6603W        W24127   6.233   8.313  12.207  0.1139  0.0410 -0.2389
 6604W        W24128   8.659   4.926  14.930 -0.0432  0.1008  0.1336
 6605W        W24129   1.805  13.544  13.513  0.0686 -0.2334 -0.0205
 6606W        W24130   2.433   1.858   4.318  0.0831 -0.0613  0.3016
 6607W        W24131   7.926  15.080  15.959 -0.0431  0.0919  0.0560
 6608W        W24132   9.070  15.077   1.667  0.1977 -0.0980  0.0058
 6609W        W24133   8.308  15.246  16.247 -0.3644  0.1827  0.1167
 6610W        W24134  16.096   0.376   5.048 -0.2155 -0.0296  0.0397
 6611W        W24135   6.320  10.436  15.353 -0.2500 -0.0636 -0.0852
 6612W        W24136   5.759  11.485   2.250 -0.0094  0.2539 -0.0195
 6613W        W24137   0.891  15.631   0.215 -0.3129 -0.1975 -0.0008
 6614W        W24138   0.324  14.969  11.855  0.0567  0.0296 -0.1561
 6615W        W24139   2.346   7.490  11.144  0.1775  0.2978  0.0155
 6616W        W24140   3.606   7.323   3.992  0.0090  0.0835  0.3258
 6617W        W24141   6.441   8.455  14.759 -0.0685 -0.4605  0.2732
 6618W        W24142  13.211   4.695   2.224 -0.2924  0.0282  0.0303
 6619W        W24143   5.292   5.178   1.679  0.0596  0.4793  0.1289
 6620W        W24144  15.649   7.965   4.641 -0.0831  0.0354  0.1707
 6621W        W24145   9.406  16.199   2.106  0.0572 -0.0740 -0.0869
 6622W        W24146   5.175   2.761   4.067 -0.2538 -0.0028 -0.1486
 6623W        W24147  12.758   1.857  10.360  0.1235 -0.2128  0.0982
 6624W        W24148   5.514  16.104   1.494  0.0403 -0.0448  0.2327
 6625W        W24149  11.217   2.859  14.204  0.2415  0.0102  0.4304
 6626W        W24150  12.689  16.102   6.404 -0.3871  0.3594  0.0005
 6627W        W24151   3.746  12.254   5.509  0.0176 -0.1668 -0.0011
 6628W        W24152   7.897   9.814   3.656 -0.0159  0.1944  0.1736
 6629W        W24153  12.521   8.926  16.226  0.0714 -0.1571  0.1306
 6630W        W24154   7.684   2.192  13.572  0.0689  0.2333 -0.0577
 6631W        W24155   3.699  16.828   3.000 -0.1661 -0.0172 -0.1412
 6632W        W24156   5.725   7.192   1.033  0.1596 -0.0843 -0.0369
 6633W        W24157   2.232   3.550   3.976 -0.1788  0.2798  0.1904
 6634W        W24158   9.998  13.024   4.026  0.2862  0.0267  0.3920
 6635W        W24159  12.797  12.697   0.961  0.2288  0.0561  0.0325
 6636W        W24160  14.689  16.187   2.550 -0.2289  0.1288  0.2488
 6637W        W24161   6.326  16.008  14.330  0.1315 -0.1150  0.3724
 6638W        W24162   7.064   2.734   3.495  0.0731 -0.2048 -0.1735
 6639W        W24163  14.388   9.277  13.039 -0.2124 -0.1980  0.0553
 6640W        W24164  14.054  15.680  12.031  0.0279 -0.1348 -0.1580
 6641W        W24165   6.559  14.959  13.926 -0.0783  0.0549  0.1316
 6642W        W24166   2.600   8.682   4.666  0.0496 -0.1987  0.2675
 6643W        W24167   5.049   7.907   3.020 -0.2621  0.3382  0.1503
 6644W        W24168  12.369   8.891  15.238 -0.0642  0.0592 -0.1488
 6645W        W24169   1.394  13.246  13.649  0.1318 -0.1648 -0.0869
 6646W        W24170  17.096   0.432   3.899 -0.2036  0.1412  0.1463
 6647W        W24171  16.198   4.614   4.485  0.2015  0.1556 -0.2127
 6648W        W24172  11.121   2.661   4.114  0.1553  0.0749  0.1884
 6649W        W24173  12.475  12.769  13.127  0.0973  0.2207 -0.1068
 6650W        W24174   1.524  11.010   3.855 -0.0882  0.1120  0.0042
 6651W        W24175   3.703  12.200   5.000  0.2126  0.3723  0.2093
 6652W        W24176   5.629  15.199  14.242  0.0891 -0.0903 -0.0919
 6653W        W24177   7.213  15.202   2.797  0.0993  0.1623  0.1781
 6654W        W24178  10.996   9.385  14.785 -0.1695 -0.3538 -0.2400
 6655W        W24179  13.614  16.073   0.317 -0.0853 -0.1845 -0.0975
 6656W        W24180  10.480   7.619  13.336 -0.0876 -0.0740 -0.1722
 6657W        W24181  11.191   7.378   4.682 -0.2242  0.0044 -0.1509
 6658W        W24182  12.967   7.513  14.247  0.0269 -0.3030 -0.0052
 6659W        W24183  13.763   5.458   3.167 -0.1206 -0.1507  0.0507
 6660W        W24184  10.626  14.669  16.051 -0.0219 -0.0083 -0.6475
 6661W        W24185  11.647   2.844  14.743 -0.0640  0.1544 -0.1083
 6662W        W24186  14.276  13.802  11.901  0.0117  0.1063 -0.3789
 6663W        W24187  10.892   5.340   2.216  0.2322 -0.0442 -0.0558
 6664W        W24188   0.286  10.600  15.112 -0.0035 -0.0354 -0.0559
 6665W        W24189  13.675  14.676   4.535  0.0779  0.6312  0.0318
 6666W        W24190   1.701   6.943  14.159  0.0134 -0.0176  0.2971
 6667W        W24191  17.609   5.489   4.383  0.2368  0.0232  0.0857
 6668W        W24192   3.555   9.853  12.250  0.0389  0.0563 -0.1792
 6669W        W24193   3.778  10.331  14.263  0.0276  0.1814 -0.0747
 6670W        W24194  10.814  16.626   3.027 -0.0891 -0.0821 -0.3224
 6671W        W24195  11.725   9.147   2.569 -0.3007 -0.0380 -0.0253
 6672W        W24196  16.118   6.934   0.364 -0.1161 -0.3270  0.2056
 6673W        W24197  17.667   4.543   0.641  0.0954 -0.0474 -0.0162
 6674W        W24198   4.948   4.997  12.365 -0.1659 -0.0213 -0.0210
 6675W        W24199  13.098  17.492   1.539  0.0107 -0.2258  0.0627
 6676W        W24200   6.848   7.419   0.324  0.4871 -0.1438 -0.0037
 6677W        W24201  14.756   7.155  14.669 -0.3776 -0.1628 -0.1717
 6678W        W24202   2.635  15.030  15.821 -0.2552 -0.3143 -0.2021
 6679W        W24203   1.853  17.691  12.891 -0.1652 -0.0764  0.0809
 6680W        W24204  11.385  15.974   3.486  0.2423  0.1306  0.0309
 6681W        W24205  12.821   7.568  12.784 -0.3419  0.0542  0.0240
 6682W        W24206   3.468   3.385   3.109 -0.4096  0.1509 -0.1883
 6683W        W24207   6.343  17.776  15.434 -0.2378 -0.1179  0.0525
 6684W        W24208   9.895  17.077  13.656  0.1822 -0.1371 -0.0159
 6685W        W24209  17.177  11.088   3.160  0.1065 -0.0494 -0.1267
 6686W        W24210   8.248   7.867   1.570 -0.2540 -0.1049 -0.1771
 6687W        W24211   2.647  15.201   0.202  0.2341 -0.0497 -0.1888
 6688W        W24212  14.054   3.540  14.424  0.2292  0.3534 -0.0391
 6689W        W24213   7.737   2.357   3.307 -0.2186 -0.0755  0.1825
 6690W        W24214   2.193   6.416  11.234 -0.0723  0.1093 -0.1276
 6691W        W24215   8.918   9.956   4.872 -0.1838 -0.0265 -0.0530
 6692W        W24216   0.992  14.248  12.819 -0.3117 -0.1723 -0.1892
 6693W        W24217  16.124  11.303  14.887  0.0093 -0.0562  0.1857
 6694W        W24218  15.154  17.811  15.350 -0.0461  0.0774 -0.1139
 6695W        W24219  11.851  10.187  14.090 -0.0560  0.1905  0.0925
 6696W        W24220  16.913  11.028  14.950 -0.0661  0.3064 -0.0335
 6697W        W24221   9.095   0.912  11.446 -0.0373  0.2018  0.0047
 6698W        W24222  16.191  15.276  11.734  0.0360  0.0562  0.1449
 6699W        W24223  15.354  14.784  12.071  0.0467  0.1198  0.0193
 6700W        W24224   8.786  11.017  15.204 -0.0770  0.5526 -0.1125
 6701W        W24225   7.787   7.031   4.692 -0.0684 -0.0003 -0.3818
 6702W        W24226  16.074   5.095  13.756 -0.0240 -0.0145 -0.1364
 6703W        W24227   7.692   7.483   3.298  0.2086 -0.0530 -0.0502
 6704W        W24228  17.965  14.105   0.205 -0.1257 -0.3238  0.0753
 6705W        W24229  14.823   0.295  13.137  0.1462 -0.2422  0.1962
 6706W        W24230   0.940   7.746   1.598 -0.1016  0.1619 -0.0352
 6707W        W24231  12.276  13.537   3.136 -0.0776 -0.3017  0.3424
 6708W        W24232  10.762  13.257  14.055  0.0329 -0.1005 -0.3924
 6709W        W24233  11.002   0.262  16.140 -0.0135 -0.0569  0.3412
 6710W        W24234   1.771  10.713   2.760 -0.0467 -0.0671  0.1062
 6711W        W24235  10.922   9.688  12.711  0.1553 -0.0139 -0.1579
 6712W        W24236   0.930  16.612  14.042  0.1734  0.3643 -0.1653
 6713W        W24237  17.307  17.367  15.578  0.1788  0.0649 -0.3756
 6714W        W24238   3.128  12.641   1.485  0.2372  0.1202  0.0026
 6715W        W24239   7.384   7.868   3.001 -0.1310  0.0475 -0.0755
 6716W        W24240   9.691   5.849  13.752  0.2551 -0.0670 -0.0461
 6717W        W24241   7.488   8.240   0.452 -0.0667 -0.2803 -0.3292
 6718W        W24242   3.300   9.167  14.756 -0.3712  0.1620 -0.0467
 6719W        W24243  10.972  13.546   1.958 -0.0738 -0.1480  0.3232
 6720W        W24244  12.364  13.710  11.551 -0.5727 -0.1069  0.0241
 6721W        W24245   7.647   9.090   0.286 -0.2612 -0.0896 -0.1986
 6722W        W24246  12.784  14.550  12.878  0.1716  0.0745  0.0957
 6723W        W24247  10.652   9.588   3.544  0.1935  0.2662 -0.3365
 6724W        W24248  12.390   5.997  11.913 -0.1450 -0.0735  0.0903
 6725W        W24249  17.494   8.743  14.680 -0.0822  0.0769  0.0746
 6726W        W24250   1.335   3.297  13.321 -0.0927  0.1268 -0.1199
 6727W        W24251  12.767   4.823   2.427  0.2553  0.3458 -0.1384
 6728W        W24252  12.907   7.650  16.251  0.0060 -0.2111  0.0223
 6729W        W24253   6.623   7.114  11.899 -0.4832 -0.3548  0.0131
 6730W        W24254  16.262  10.217  16.454 -0.2278 -0.2661  0.1635
 6731W        W24255   8.304   5.578  11.656 -0.2071  0.0191  0.0121
 6732W        W24256  10.814   0.048  13.539 -0.2934 -0.1805 -0.0147
 6733W        W24257   3.507   9.221  12.426 -0.0297 -0.1015 -0.0580
 6734W        W24258  10.999  13.247   2.488 -0.0714 -0.2637  0.2855
 6735W        W24259   9.361  11.867  13.233 -0.3675  0.2417 -0.0216
 6736W        W24260   1.022   8.761   2.497 -0.0683 -0.0379  0.1313
 6737W        W24261  12.402   4.870  13.932 -0.0797 -0.2251 -0.0323
 6738W        W24262   8.846  16.685   0.753  0.3712 -0.0734  0.0468
 6739W        W24263   8.829   5.083   3.113 -0.2099  0.0935  0.0960
 6740W        W24264  11.171   3.744  15.734 -0.1784  0.1957  0.1400
 6741W        W24265   4.673  14.904  14.994 -0.2299 -0.3173 -0.2104
 6742W        W24266  17.737  12.911  14.769 -0.0727  0.3219 -0.0086
 6743W        W24267  12.528   9.888  11.216  0.0330  0.0761  0.0925
 6744W        W24268  10.118   1.312   0.949 -0.1305 -0.0906 -0.3043
 6745W        W24269   1.302  10.294  13.218  0.1134 -0.2346 -0.1185
 6746W        W24270   0.431   4.565  11.541 -0.2067  0.3226  0.2229
 6747W        W24271   7.840  12.820   4.994  0.1271  0.2869 -0.1518
 6748W        W24272   4.182  14.525  15.201 -0.1809  0.1961 -0.0709
 6749W        W24273   2.597  11.733  15.018 -0.2045 -0.3186 -0.1756
 6750W        W24274   6.890   2.668   0.966  0.2770  0.0794 -0.0248
 6751W        W24275   3.054   0.419   2.475  0.1868  0.0534 -0.1973
 6752W        W24276  14.405   5.872   3.011  0.2482 -0.0095 -0.1698
 6753W        W24277   4.775   9.654   2.561  0.0767  0.0003 -0.1139
 6754W        W24278  12.975   6.142  12.634 -0.0677  0.2336  0.2198
 6755W        W24279   7.951  11.310   0.256  0.0974  0.0622 -0.3182
 6756W        W24280  14.826  14.086   1.814 -0.0877 -0.1646 -0.0604
 6757W        W24281   0.744  14.794  16.246  0.1574  0.1837  0.3811
 6758W        W24282  16.151   7.908   1.757  0.2074 -0.2162  0.2786
 6759W        W24283   2.583  16.741   1.390 -0.0370  0.2679  0.0238
 6760W        W24284   3.925  16.483   1.349  0.1835  0.0622 -0.3111
 6761W        W24285   3.540  15.871  16.130  0.0819 -0.3028  0.1617
 6762W        W24286  13.106   2.326  14.347 -0.1319  0.2503 -0.1255
 6763W        W24287   2.730  12.866   2.924  0.2682 -0.0141  0.1741
 6764W        W24288   0.621  15.219  14.969 -0.2323 -0.1045  0.0502
 6765W        W24289   2.186   8.006  12.569  0.0823  0.0395 -0.1581
 6766W        W24290  10.685  11.990   0.330 -0.1467  0.1395  0.0126
 6767W        W24291   2.316  12.175  16.186  0.1058  0.1862  0.3552
 6768W        W24292  15.473   3.308   1.764  0.1417  0.0644  0.3311
 6769W        W24293  11.993  17.740   2.662  0.2511  0.1407  0.1236
 6770W        W24294   5.700  15.380  11.680  0.0779  0.0686 -0.0412
 6771W        W24295  17.249   1.291  15.627  0.3084  0.1167  0.0708
 6772W        W24296   4.252   5.369   3.619  0.3073 -0.1715  0.1216
 6773W        W24297   2.189   9.944  13.133 -0.1979  0.0630  0.0420
 6774W        W24298  16.471  17.528  15.462  0.0178  0.3123  0.2491
 6775W        W24299  17.337  14.669  16.420 -0.1087  0.1979 -0.0220
 6776W        W24300   5.207  14.406  11.935  0.2341 -0.0116  0.2998
 6777W        W24301   0.393   8.291  11.871  0.1767  0.0390 -0.1122
 6778W        W24302   9.106  11.641  14.577 -0.2524  0.2833  0.0114
 6779W        W24303  13.950   9.616   4.731  0.1365 -0.2283 -0.0572
 6780W        W24304   7.285   7.985  11.486  0.1572  0.0766  0.0253
 6781W        W24305  14.194   9.176  11.058  0.0173 -0.0174  0.0323
 6782W        W24306  10.944  10.750  12.872  0.0460  0.1241  0.2010
 6783W        W24307   6.382  13.072   0.677  0.0312 -0.0859  0.0122
 6784W        W24308   8.022   1.288  12.145  0.0585  0.1723 -0.0040
 6785W        W24309   1.655   6.241  14.286 -0.3433  0.0621  0.0495
 6786W        W24310   2.323  17.047  11.695  0.1373  0.2283 -0.2271
 6787W        W24311  11.505   5.405  11.172 -0.0575  0.1881 -0.1042
 6788W        W24312   3.817   9.838   2.167  0.1751 -0.0785  0.2911
 6789W        W24313  15.054  15.769   2.524  0.1517 -0.2651  0.2605
 6790W        W24314   6.395  12.166  11.417 -0.2020 -0.0734 -0.0048
 6791W        W24315  17.871  10.061   0.048  0.1682 -0.3450  0.0658
 6792W        W24316   0.428   8.782  14.627  0.0830 -0.0251 -0.4407
 6793W        W24317   4.135  16.382  12.066  0.0149 -0.3390  0.4652
 6794W        W24318   9.000  10.114   2.547  0.0205 -0.0449  0.0386
 6795W        W24319   1.648   4.981  13.495  0.0128 -0.1438  0.0991
 6796W        W24320  13.466   3.130  13.869 -0.0334  0.1323 -0.3541
 6797W        W24321  12.387  14.299   4.750  0.0319  0.1023  0.1303
 6798W        W24322   1.033   6.102  12.915  0.0342 -0.0297  0.0294
 6799W        W24323   7.356  13.596  12.563  0.0464  0.0907  0.2775
 6800W        W24324   3.136  14.898  14.646 -0.0444 -0.0781 -0.1834
 6801W        W24325  10.789   8.315  14.771 -0.0167  0.1038 -0.3068
 6802W        W24326  10.741   4.425   5.339  0.0847  0.0044  0.1014
 6803W        W24327  15.312   5.383   2.607 -0.2146 -0.2171 -0.0377
 6804W        W24328   9.989   1.206   1.724 -0.2476  0.2421 -0.4709
 6805W        W24329  17.317   4.373  15.206 -0.0653  0.0925 -0.1655
 6806W        W24330  12.822   1.878   3.690 -0.1076 -0.5607 -0.0498
 6807W        W24331   3.327   1.329   2.760  0.1701  0.1383 -0.1351
 6808W        W24332   5.464  12.155  14.836  0.0967 -0.2195  0.3346
 6809W        W24333   2.989  16.364   2.236  0.3955 -0.0713 -0.2989
 6810W        W24334   8.466  10.852   1.631 -0.0089  0.1280  0.1291
 6811W        W24335   8.031  11.887   1.943 -0.2244 -0.0305 -0.0750
 6812W        W24336  10.621  13.673  13.162 -0.1206  0.1028 -0.1590
 6813W        W24337   0.016   8.126   4.136  0.0655 -0.2881  0.3496
 6814W        W24338   6.812  15.906   1.982  0.1461  0.0675  0.1352
 6815W        W24339   8.474  17.523  14.767  0.2227  0.0729 -0.0909
 6816W        W24340   4.375   4.632  13.280 -0.0030 -0.1288 -0.4463
 6817W        W24341   8.421   8.976   2.172 -0.0205  0.1564  0.4027
 6818W        W24342   8.801   3.843   1.426  0.0373 -0.2233  0.0076
 6819W        W24343   8.716  15.188  13.372 -0.1977 -0.1205 -0.1047
 6820W        W24344   6.861   2.100  13.831 -0.0777  0.4639  0.4143
 6821W        W24345   3.582   7.880  15.354 -0.0440  0.0674  0.2820
 6822W        W24346  11.008   1.073   4.721 -0.1609 -0.2263  0.0183
 6823W        W24347  14.109  15.512  10.913  0.3892  0.1358  0.1443
 6824W        W24348   1.775  11.248  12.153  0.1116 -0.0655  0.1687
 6825W        W24349  10.838   0.806   0.819  0.2149 -0.1395  0.0591
 6826W        W24350  12.480   9.294   0.124 -0.2366  0.2080  0.1064
 6827W        W24351   1.997  12.541  10.787 -0.1481  0.3199 -0.0226
 6828W        W24352   8.562   5.432  14.918  0.1528  0.1402 -0.1456
 6829W        W24353   3.755   0.723   2.593  0.0174 -0.1500  0.2400
 6830W        W24354   7.047   4.239   5.048 -0.1394 -0.5180  0.1477
 6831W        W24355   8.875   2.747  12.882  0.1256 -0.3729 -0.1734
 6832W        W24356  15.695   7.159   0.585  0.2411  0.2485 -0.2774
 6833W        W24357  13.698   4.372  12.383  0.2035  0.0360  0.1161
 6834W        W24358   6.763   5.650  15.633 -0.1397 -0.1364  0.1756
 6835W        W24359   4.293   4.846  12.815 -0.3329 -0.0065  0.0985
 6836W        W24360  12.326   5.563   0.369  0.2408  0.0057  0.0087
 6837W        W24361   1.468   2.789   3.131  0.0507  0.0208 -0.1307
 6838W        W24362  13.815  13.829  11.046  0.2934 -0.2261  0.0261
 6839W        W24363   1.162   8.151   3.803 -0.0022  0.2241 -0.0553
 6840W        W24364  11.899  12.098   4.424 -0.0098  0.0097  0.0471
 6841W        W24365  16.469  13.725   4.243  0.0815 -0.1089  0.0162
 6842W        W24366   6.368  12.436  13.940  0.1301  0.1858 -0.0321
 6843W        W24367  10.895   4.561  12.253 -0.0440 -0.2986  0.3686
 6844W        W24368  16.388  11.304  14.207 -0.0198 -0.0582  0.0827
 6845W        W24369   1.917  12.320  13.189 -0.1553 -0.5254  0.0531
 6846W        W24370  13.622  17.184   4.195  0.1903 -0.0999 -0.1388
 6847W        W24371   5.346  12.508   4.533 -0.2406 -0.2673 -0.2520
 6848W        W24372  12.980  13.047  11.688  0.0058 -0.0533  0.1854
 6849W        W24373   6.628  11.056   4.476  0.3188  0.5173 -0.0618
 6850W        W24374   3.331   4.525  13.062 -0.0537 -0.0963 -0.2852
 6851W        W24375   1.070  10.815   2.932  0.0008  0.1822 -0.1089
 6852W        W24376   9.311  14.162   3.606 -0.1184 -0.1130 -0.1119
 6853W        W24377  17.169   6.382  13.478 -0.0846  0.4287 -0.0723
 6854W        W24378  15.337  15.612  10.674  0.0591  0.1343 -0.3661
 6855W        W24379   7.069   9.870   5.852  0.1647  0.0900 -0.1256
 6856W        W24380   1.512   5.442  14.213  0.2133  0.0709  0.0195
 6857W        W24381   1.066   1.921   3.090  0.1436  0.0832  0.0299
 6858W        W24382   2.532  10.933  13.660  0.3714  0.3726  0.1092
 6859W        W24383  17.718  14.569  15.474  0.1584 -0.0102  0.0170
 6860W        W24384  14.835   4.315   1.133  0.1667 -0.2790  0.1088
 6861W        W24385   1.085   9.430   1.038  0.1662  0.1991 -0.2946
 6862W        W24386  13.330  12.828   2.415  0.3133 -0.1212  0.0442
 6863W        W24387   1.846   8.863   4.059  0.1279 -0.2992  0.2979
 6864W        W24388  16.024   4.867  15.449 -0.2694  0.0528  0.0778
 6865W        W24389  14.424  12.732  16.093  0.5761 -0.0189  0.0992
 6866W        W24390  14.441  10.038   1.778  0.0786 -0.1588 -0.0572
 6867W        W24391  17.019   5.030  15.941 -0.3648  0.1523  0.2230
 6868W        W24392   5.540   2.817   3.388  0.1261  0.3738  0.2448
 6869W        W24393   2.037  16.106  13.220 -0.2472 -0.1006  0.2199
 6870W        W24394  13.568  13.761   0.987 -0.1808 -0.3586  0.1760
 6871W        W24395  16.989   2.475  14.677 -0.2252 -0.0309  0.0538
 6872W        W24396  12.480   9.326   3.908  0.1233  0.2043  0.3326
 6873W        W24397   3.126   0.183   0.309 -0.3600 -0.2656 -0.1423
 6874W        W24398  10.380  10.106  11.907 -0.3144 -0.1844 -0.1122
 6875W        W24399   4.336   6.298   1.839 -0.3726  0.1809 -0.2319
 6876W        W24400  14.623   2.399  15.053  0.2094  0.0991 -0.0436
 6877W        W24401  13.589   0.924   1.933 -0.0707  0.1541  0.1878
 6878W        W24402   3.519   3.840  12.452  0.1163 -0.0554  0.2036
 6879W        W24403  10.830   4.921   5.024  0.1902 -0.2055 -0.2435
 6880W        W24404   0.231   6.307  12.519  0.0144  0.2260  0.0757
 6881W        W24405   2.568   1.510   1.578  0.1539 -0.0691  0.0443
 6882W        W24406  11.870  13.845  15.672 -0.0814  0.0655 -0.0749
 6883W        W24407  11.744  11.703  14.210  0.2773  0.2996 -0.0057
 6884W        W24408   1.069   3.102   3.113  0.1638 -0.0611  0.0710
 6885W        W24409  11.861  16.853   1.094 -0.0624 -0.2638  0.0807
 6886W        W24410  13.459  17.375  13.948  0.0016 -0.0290  0.0663
 6887W        W24411   6.599   9.637  16.076  0.1638  0.1589  0.1420
 6888W        W24412  16.093   3.648  14.458  0.0236  0.0851  0.2138
 6889W        W24413   3.498  17.832   0.388 -0.1869 -0.1728  0.1934
 6890W        W24414   8.391  12.415   4.415  0.0996 -0.0415  0.2572
 6891W        W24415   1.479  15.967  14.922 -0.1869  0.2289  0.0536
 6892W        W24416  14.499  13.330   6.063  0.1509  0.0615  0.3325
 6893W        W24417  16.827  10.741   1.068 -0.1443  0.2716 -0.2059
 6894W        W24418  10.088   8.279   4.332  0.1302 -0.2237  0.1679
 6895W        W24419  14.814  16.330  13.323  0.0598  0.2399 -0.2520
 6896W        W24420   6.252   0.611   0.587 -0.1403  0.1993  0.4830
 6897W        W24421   6.915  13.564   4.335 -0.0841  0.1621  0.2430
 6898W        W24422  16.709   4.566   2.570  0.0123  0.0619 -0.0242
 6899W        W24423   1.356   2.713  16.034  0.2584 -0.0698 -0.2869
 6900W        W24424   9.452   3.477  13.406 -0.1903  0.0737 -0.2445
 6901W        W24425  13.838  12.883  13.967 -0.1252  0.3409  0.0858
 6902W        W24426   3.031  14.199   1.322 -0.1599  0.1987  0.1263
 6903W        W24427  12.678   0.217   1.040 -0.1377 -0.1582 -0.0679
 6904W        W24428   7.394  14.447   1.339  0.0633 -0.1019  0.0452
 6905W        W24429  12.394  17.261  14.159 -0.2342 -0.1079 -0.0533
 6906W        W24430   3.146   6.542   2.546  0.1181  0.0630  0.2683
 6907W        W24431   2.678   4.054  13.389  0.1175 -0.0891 -0.0403
 6908W        W24432   2.647   2.231   1.808 -0.0659  0.0212 -0.2669
 6909W        W24433  10.819   8.610   3.883  0.0544  0.0218 -0.0460
 6910W        W24434   7.731  13.000  16.171 -0.1890  0.0956  0.0176
 6911W        W24435   7.519   4.074   0.960  0.2004  0.3926  0.0704
 6912W        W24436   8.840   8.582  15.265  0.0279 -0.0224 -0.0103
 6913W        W24437   3.543   6.434  15.449  0.1788  0.0355  0.0769
 6914W        W24438   7.778   8.940  15.385  0.1027 -0.0599  0.2041
 6915W        W24439   6.371   3.374  15.389 -0.2154  0.3831 -0.0584
 6916W        W24440   0.358   8.234   4.992  0.2616 -0.0075 -0.0439
 6917W        W24441   3.567   4.014  14.359 -0.1012  0.2470 -0.4293
 6918W        W24442   6.487   1.617  14.980  0.1277  0.2228  0.0709
 6919W        W24443  16.387   9.897   3.141 -0.0241  0.1113  0.1502
 6920W        W24444   1.105   6.671   3.971 -0.0704  0.1145 -0.0629
 6921W        W24445   1.233   4.117   3.318  0.0308  0.2074 -0.1153
 6922W        W24446  14.015  14.643   4.934 -0.0920 -0.0142  0.1392
 6923W        W24447  13.594  10.936  14.374 -0.1363 -0.1952 -0.0854
 6924W        W24448   9.810  15.954   2.441  0.0509 -0.1575 -0.1913
 6925W        W24449   3.428   1.296   5.045 -0.0483  0.1939 -0.1357
 6926W        W24450   7.822  11.788   0.157 -0.1591  0.2047 -0.1400
 6927W        W24451   2.446   5.593   4.309 -0.0432 -0.0476  0.0643
 6928W        W24452  10.693   3.833   3.690 -0.2535 -0.1636 -0.1443
 6929W        W24453  14.737   1.813   1.874 -0.4362  0.1849  0.1222
 6930W        W24454   1.939   3.602   3.568 -0.2226  0.3275  0.1466
 6931W        W24455  15.483   5.166   2.127 -0.1401  0.1345  0.0466
 6932W        W24456  17.972  16.072  16.393  0.1276 -0.0579 -0.1897
 6933W        W24457   1.150   6.833  15.541  0.0019  0.1927 -0.0638
 6934W        W24458   1.927   7.688   1.726 -0.1207 -0.1872 -0.2292
 6935W        W24459   2.468   5.600  11.656 -0.0170  0.1741  0.1288
 6936W        W24460   8.860  12.700  11.562  0.1954 -0.0947 -0.2326
 6937W        W24461  17.487   3.987   2.389  0.2889  0.1773  0.1201
 6938W        W24462   7.481   9.067   1.876  0.2917 -0.0505 -0.2869
 6939W        W24463   6.714  12.058   3.811  0.1392 -0.0177 -0.0653
 6940W        W24464  11.650   2.779  12.035 -0.1225 -0.1335 -0.0474
 6941W        W24465  13.389  13.305  13.095  0.2817  0.4037  0.1689
 6942W        W24466  16.392  16.756   2.658 -0.2151 -0.0985  0.1842
 6943W        W24467   5.624   5.798  13.435  0.1188 -0.2807 -0.2139
 6944W        W24468  14.805  10.489  13.968 -0.0461 -0.1828  0.0921
 6945W        W24469   4.951  10.933  12.476  0.0746  0.1455 -0.2017
 6946W        W24470  15.472   8.748  15.225 -0.0871 -0.0382 -0.0534
 6947W        W24471   3.573   7.029  11.326 -0.0434  0.2031  0.0164
 6948W        W24472   0.747  12.849   0.003 -0.2450 -0.2471  0.0483
 6949W        W24473  12.913   4.598   2.924  0.0442  0.3646  0.2635
 6950W        W24474   5.364   6.483   2.077 -0.0503 -0.2053  0.1585
 6951W        W24475  17.496  13.453   3.249  0.2128  0.8061  0.0801
 6952W        W24476   4.281  10.409   0.925 -0.2884  0.3460 -0.0864
 6953W        W24477   1.438  15.645   4.404 -0.1903  0.0309 -0.1296
 6954W        W24478   0.329   5.846  14.879  0.0383  0.3039  0.1802
 6955W        W24479  13.817   6.008   3.645 -0.1000 -0.1799  0.1888
 6956W        W24480  15.926   5.249   1.565  0.0254  0.0846  0.0287
 6957W        W24481   9.667   4.498   4.485  0.1598  0.1934 -0.0917
 6958W        W24482   5.056  13.596  12.798 -0.0525  0.1466 -0.1130
 6959W        W24483   3.785   8.550  13.890 -0.1754 -0.1602  0.3276
 6960W        W24484   1.588   0.104   1.265 -0.1971 -0.1631 -0.0543
 6961W        W24485   7.381  11.414  14.627  0.0379 -0.0177  0.1316
 6962W        W24486  16.978   6.244   0.921 -0.0207  0.0093  0.2259
 6963W        W24487  16.204   9.246  15.135 -0.3003  0.0330  0.0731
 6964W        W24488  10.462  17.156   5.049  0.1837  0.0443  0.0570
 6965W        W24489   1.140   6.409  16.243  0.3227 -0.1909 -0.5788
 6966W        W24490  16.998   4.173   1.497  0.0726  0.0606  0.0431
 6967W        W24491   9.037  17.589  14.097  0.0914 -0.0880  0.2085
 6968W        W24492   9.237  11.327   5.043 -0.2780 -0.3420 -0.0557
 6969W        W24493   4.745  14.716  16.044 -0.1159  0.1924 -0.0047
 6970W        W24494   6.128  16.426  15.956 -0.4820  0.1252 -0.2986
 6971W        W24495   4.559   5.836  11.979  0.0686 -0.1538 -0.2833
 6972W        W24496  11.937   5.810   4.152 -0.0610 -0.0831 -0.1418
 6973W        W24497  10.447  12.364   0.702  0.0925 -0.0848 -0.1851
 6974W        W24498   3.021  15.909   2.486  0.0136  0.0507  0.0716
 6975W        W24499   3.353   1.227  14.348  0.0204 -0.0340  0.0968
 6976W        W24500   3.287  15.465  15.945  0.2617  0.0128  0.0346
 6977W        W24501   3.515  17.129  12.055  0.2516 -0.0242 -0.1028
 6978W        W24502   1.617  14.394  16.293  0.3186 -0.1290 -0.0657
 6979W        W24503   4.019   4.168   3.963 -0.0535  0.1415  0.0544
 6980W        W24504  17.334   1.538   1.915 -0.2329 -0.2208  0.1384
 6981W        W24505   4.625  12.188  15.986 -0.0423 -0.0818  0.0608
 6982W        W24506   6.325   1.467  13.993 -0.0634 -0.0144 -0.2029
 6983W        W24507   9.757  15.105  14.396 -0.0237 -0.1090  0.1677
 6984W        W24508  17.913  17.091   1.383  0.2541 -0.3713 -0.0532
 6985W        W24509   4.999  15.818   3.052 -0.3796 -0.1980 -0.4138
 6986W        W24510  11.669   4.658  15.926  0.1594 -0.1791 -0.3062
 6987W        W24511  13.696  11.040  15.329  0.1469  0.0149  0.2187
 6988W        W24512  10.427   1.778   2.336 -0.2647 -0.1356 -0.0487
 6989W        W24513  11.464  15.252  12.930 -0.3309 -0.0372  0.0645
 6990W        W24514  10.046   2.541   2.787  0.1011 -0.1927  0.2730
 6991W        W24515   7.867   1.281  14.155 -0.0277  0.0081  0.0226
 6992W        W24516   4.913  15.464  14.957 -0.4441  0.3788  0.3106
 6993W        W24517  16.034  13.001   3.445 -0.1770  0.1451  0.2534
 6994W        W24518   3.972  13.821  15.331 -0.0056 -0.0299  0.1957
 6995W        W24519   0.442   2.895  15.325  0.1102 -0.0326  0.0731
 6996W        W24520   7.329   1.128   4.816  0.0417  0.0401 -0.1622
 6997W        W24521   6.546   4.669  14.886 -0.1261  0.2509  0.1808
 6998W        W24522   1.971   6.648   3.893 -0.2141  0.0970 -0.1203
 6999W        W24523   5.471   2.459   3.764 -0.3106  0.0540 -0.0237
 7000W        W24524  14.880  10.812   4.576 -0.0331 -0.2758 -0.0222
 7001W        W24525   3.726  11.131  11.760  0.0307 -0.0373  0.0033
 7002W        W24526   8.606  13.933   1.991  0.2154  0.0090  0.0751
 7003W        W24527   6.750   5.628   3.000  0.2428 -0.0967 -0.1571
 7004W        W24528  15.318   7.637  15.106 -0.1305 -0.1867  0.1272
 7005W        W24529   3.525  16.582  13.448 -0.0253 -0.0059  0.3058
 7006W        W24530   2.600  13.177   3.805 -0.1935  0.0537  0.2903
 7007W        W24531   8.388   1.572  12.167  0.2997 -0.0871  0.0420
 7008W        W24532   8.139  15.857   3.824  0.0396  0.0882 -0.0328
 7009W        W24533  15.217   2.556   3.315 -0.1523 -0.2009  0.3305
 7010W        W24534   5.630  16.334   5.152  0.0841  0.3439 -0.0909
 7011W        W24535   2.483   4.113   0.253 -0.1518 -0.4032 -0.0887
 7012W        W24536  16.857   5.965  10.958  0.0033 -0.0686 -0.1771
 7013W        W24537   8.071  15.734  12.594  0.1590  0.3035 -0.4277
 7014W        W24538  10.259   3.787  11.279  0.1174 -0.2106  0.0491
 7015W        W24539  11.413   7.492  11.793 -0.1078  0.2205 -0.1635
 7016W        W24540  11.364  12.972   4.732 -0.0504  0.2460  0.4070
 7017W        W24541   8.986  16.501   4.887  0.1907  0.2443 -0.1153
 7018W        W24542   0.055   9.891   1.263  0.0309  0.4149 -0.0020
 7019W        W24543   2.736   2.610  10.691  0.1019 -0.0899  0.0414
 7020W        W24544   6.700  16.636  14.980  0.1607  0.1853 -0.0617
 7021W        W24545   9.729   3.755   3.708  0.1758  0.2823 -0.1666
 7022W        W24546  16.097  12.453   2.682 -0.3120 -0.1323  0.1550
 7023W        W24547   7.084   6.585  14.623 -0.1185  0.1949 -0.2319
 7024W        W24548   5.927  13.855  13.314 -0.1043  0.1170 -0.0260
 7025W        W24549   1.928  11.866  14.471  0.1720  0.5289 -0.0235
 7026W        W24550   5.939  10.412  13.750 -0.0501 -0.3122  0.1959
 7027W        W24551   5.532   5.425  14.959 -0.0916  0.1559 -0.1405
 7028W        W24552   5.477   2.505   4.996 -0.1477 -0.0200 -0.0258
 7029W        W24553  10.471   2.006   3.689 -0.1444 -0.1682 -0.2569
 7030W        W24554   5.120   9.835  13.130 -0.0839 -0.0168  0.2367
 7031W        W24555  10.829  10.752  16.209 -0.2316 -0.1954 -0.0117
 7032W        W24556  13.735  14.006   3.257  0.0136 -0.0178 -0.3457
 7033W        W24557   8.773  12.014   3.473  0.1401 -0.0983  0.1037
 7034W        W24558  10.385   9.995   1.045 -0.2455  0.0063 -0.0263
 7035W        W24559  11.748  11.397  12.010 -0.3365  0.0765 -0.3055
 7036W        W24560   8.764  12.711   1.806  0.0913  0.0499  0.0851
 7037W        W24561   6.525   8.073  13.961 -0.0682 -0.0159  0.1387
 7038W        W24562  13.042   3.162   4.070  0.2997  0.0807  0.1756
 7039W        W24563  10.468  11.255   1.675 -0.2449  0.2234  0.0359
 7040W        W24564  17.712   0.196   5.228 -0.0190  0.2578 -0.1807
 7041W        W24565   8.540   5.821   5.103  0.1235 -0.0695 -0.0399
 7042W        W24566  14.085  13.545   0.870  0.0825  0.3298  0.3781
 7043W        W24567  11.128   7.186  12.719  0.0200 -0.2256 -0.0091
 7044W        W24568  15.181  14.219   4.512 -0.0567  0.2395 -0.2215
 7045W        W24569  17.550  12.061  15.995 -0.1296  0.0122 -0.2531
 7046W        W24570   3.034  14.823  11.914 -0.2744  0.0247 -0.0965
 7047W        W24571   7.870  13.672   3.033 -0.3604  0.3723  0.0916
 7048W        W24572  13.525   7.712   2.469  0.0255 -0.0493  0.1329
 7049W        W24573  10.297   8.035   2.517 -0.1765  0.0406  0.0116
 7050W        W24574   1.912   2.939   2.804  0.0923 -0.1323  0.2878
 7051W        W24575   8.741   7.700  15.594 -0.4395  0.0626  0.1957
 7052W        W24576  16.371   9.780   1.289  0.0912 -0.2893 -0.0085
 7053W        W24577   1.012   8.717  12.530  0.1957 -0.0050 -0.3139
 7054W        W24578   2.926   9.176   3.787  0.3079  0.0115  0.1221
 7055W        W24579  13.587   1.559  15.757  0.1024 -0.1782 -0.1648
 7056W        W24580   8.468   6.508   1.421  0.0486 -0.0849 -0.0646
 7057W        W24581  11.915   9.758   1.776  0.0542  0.1237 -0.1907
 7058W        W24582   4.544  15.280   4.846  0.0372 -0.2166  0.2803
 7059W        W24583   0.259  11.021  12.584 -0.0176  0.1670  0.0098
 7060W        W24584   3.606   7.915  11.482  0.1139 -0.2603 -0.1023
 7061W        W24585   1.824  12.738   3.690  0.0038 -0.1183 -0.1381
 7062W        W24586   1.570   1.261  13.945 -0.4440 -0.0225 -0.0170
 7063W        W24587  11.803  16.873   5.418  0.1565 -0.1553 -0.1521
 7064W        W24588   4.934   2.262  11.774  0.3248  0.0461  0.0551
 7065W        W24589  10.866   5.939  13.097  0.1302  0.4422  0.0873
 7066W        W24590  16.009  17.106   2.639  0.1353  0.2719  0.0540
 7067W        W24591   7.687   1.522   3.219  0.2226  0.1025  0.1316
 7068W        W24592   9.560  14.915   3.200  0.0041 -0.0261  0.0593
 7069W        W24593  11.336   5.054  10.856 -0.1101 -0.0390  0.0079
 7070W        W24594   4.715   6.617   2.608 -0.0138  0.2516  0.2052
 7071W        W24595   6.122   7.744  11.595 -0.2068 -0.2413 -0.0973
 7072W        W24596  15.140  11.083   3.642 -0.2123 -0.1238 -0.0784
 7073W        W24597  16.483   5.093  15.387 -0.3123 -0.1270  0.2863
 7074W        W24598   1.608   6.548  13.857 -0.1894 -0.1481 -0.0821
 7075W        W24599   8.340   1.610   3.133 -0.2003  0.1302  0.1344
 7076W        W24600   1.537  16.432  14.712  0.1219 -0.0143 -0.1626
 7077W        W24601   7.296  15.140   4.789 -0.4142  0.0670  0.1003
 7078W        W24602  17.024  14.071  14.842 -0.2554 -0.2396  0.1947
 7079W        W24603  11.216   1.532   1.980  0.0667 -0.0382  0.0316
 7080W        W24604   7.107   0.873   1.227 -0.1680 -0.0460 -0.1390
 7081W        W24605   0.981   7.959  15.218  0.0811  0.0511  0.0174
 7082W        W24606   7.326   6.362  14.232  0.2847  0.1123 -0.2045
 7083W        W24607  13.029  10.338   1.200  0.2224 -0.0461 -0.3069
 7084W        W24608   6.814   8.132  11.049 -0.0043 -0.0733 -0.1774
 7085W        W24609  16.533  15.965  16.160  0.4603  0.0994 -0.1100
 7086W        W24610   2.159   0.186   2.068 -0.2314  0.0955 -0.0089
 7087W        W24611   8.899   9.128   2.086 -0.1862 -0.3384  0.1723
 7088W        W24612   4.632   7.237   1.741 -0.0365  0.1473  0.2910
 7089W        W24613   9.768   8.706   3.495  0.0269 -0.0117 -0.1650
 7090W        W24614   7.554   4.013   1.588 -0.0750  0.2058 -0.1914
 7091W        W24615  15.198  15.470  12.464 -0.1955  0.1689  0.2630
 7092W        W24616  13.278  14.278   5.203 -0.0823  0.0724  0.1793
 7093W        W24617  12.606  12.053  12.989 -0.2440  0.1609 -0.0944
 7094W        W24618  11.681   9.192   3.034  0.1402 -0.1661 -0.0737
 7095W        W24619   7.638   1.704   1.667  0.2087  0.1741  0.2002
 7096W        W24620  14.654   3.941   1.813  0.1617 -0.3607 -0.3226
 7097W        W24621  11.727  17.169   0.153 -0.1415  0.2521  0.0026
 7098W        W24622  14.278   9.633   2.042  0.0803  0.0752 -0.0234
 7099W        W24623   1.158  15.828  11.961 -0.1246  0.0223 -0.1722
 7100W        W24624   0.652   1.620   0.774 -0.1516  0.1528 -0.2591
 7101W        W24625  13.205   2.520   0.679  0.0717  0.1337 -0.2307
 7102W        W24626  12.136  11.062  14.037  0.0640  0.3116  0.0682
 7103W        W24627  13.639   1.603  13.072 -0.1501 -0.0501 -0.1761
 7104W        W24628  14.719  17.056  14.278  0.0516 -0.0519  0.1869
 7105W        W24629  12.805  10.460   3.077 -0.1566  0.5650 -0.1209
 7106W        W24630   2.890   1.852  16.234 -0.0717  0.0912 -0.0945
 7107W        W24631   1.280   1.624   1.470  0.2687  0.2553 -0.0354
 7108W        W24632   9.735  15.563  14.272 -0.2753 -0.2861 -0.0492
 7109W        W24633   5.320  10.435  15.616  0.0781  0.3440 -0.0363
 7110W        W24634  11.409   4.484   3.354 -0.0306  0.0585  0.0576
 7111W        W24635  12.139  12.684   2.755  0.1887 -0.0670 -0.1140
 7112W        W24636   3.757   5.456   3.328 -0.5608 -0.0939 -0.2378
 7113W        W24637  11.891   7.816   0.534  0.1222 -0.1517 -0.1133
 7114W        W24638   7.221  12.278  12.707 -0.1542  0.4298  0.2741
 7115W        W24639   0.845   1.687  13.526  0.1440 -0.3493  0.0712
 7116W        W24640  10.590   6.166  15.266 -0.4347  0.0092  0.0176
 7117W        W24641  12.211   8.884  12.359 -0.1396 -0.2384  0.0731
 7118W        W24642   5.909   6.371   0.559  0.0266 -0.1751  0.0731
 7119W        W24643   5.409  17.098   4.679 -0.1001 -0.0383 -0.1002
 7120W        W24644   8.495   7.600  11.912  0.0052 -0.1047 -0.2537
 7121W        W24645  15.335  13.152  14.980  0.0665 -0.2260  0.2911
 7122W        W24646  14.107  15.263  11.391  0.0181  0.0240 -0.4471
 7123W        W24647  17.816  12.396   1.109  0.0568 -0.1001  0.0627
 7124W        W24648   0.560   5.620   0.950 -0.1808 -0.1723 -0.2432
 7125W        W24649   3.783  17.294  10.643  0.3045 -0.0906 -0.3446
 7126W        W24650   5.567  14.697  15.453  0.0929  0.1115 -0.2012
 7127W        W24651   7.263   1.100  15.470  0.3777 -0.4401  0.2511
 7128W        W24652   4.635   6.709  12.294 -0.0309  0.2232 -0.0024
 7129W        W24653   6.887   0.409  14.355  0.3598 -0.0622  0.3576
 7130W        W24654  15.181  10.351   1.027  0.0429  0.2161 -0.1685
 7131W        W24655   1.956   5.828   2.663 -0.1167 -0.2316  0.0240
 7132W        W24656   7.984  17.894  15.245  0.1424 -0.1580 -0.1640
 7133W        W24657   2.433  13.019   3.323  0.2106  0.0908  0.3203
 7134W        W24658   7.177   9.619  15.061  0.0930 -0.1230 -0.0805
 7135W        W24659  15.604   5.578   0.246  0.0064  0.0174  0.1523
 7136W        W24660   1.271   1.160  11.790  0.1709 -0.0111  0.0436
 7137W        W24661   3.516   9.019  15.203  0.2087 -0.1135  0.2173
 7138W        W24662  13.117  10.884  16.162  0.1233  0.1619  0.1128
 7139W        W24663  14.912   0.552   4.769  0.1162  0.1254 -0.2775
 7140W        W24664   7.635   0.876  11.727 -0.1023  0.2620 -0.1794
 7141W        W24665   4.543   7.414  16.004 -0.0409  0.0811 -0.0121
 7142W        W24666   7.594  14.883  13.804  0.2376 -0.2918  0.0438
 7143W        W24667  11.692   5.824  11.929 -0.0243 -0.2484 -0.0069
 7144W        W24668   1.067   4.714  16.010 -0.0517  0.0210 -0.0462
 7145W        W24669   1.931  17.829  11.767 -0.0774  0.5885  0.2756
 7146W        W24670   1.817  11.234   0.680 -0.2894  0.2052 -0.0375
 7147W        W24671  14.700   4.557  15.422  0.0751 -0.1722  0.1186
 7148W        W24672   4.845   4.670   2.533  0.0366  0.1714 -0.2812
 7149W        W24673   0.954  17.033  16.253  0.1096  0.1466 -0.2831
 7150W        W24674   0.309   6.116  11.578  0.0163 -0.1587  0.0051
 7151W        W24675   3.516   2.424  14.634 -0.0293 -0.2086  0.4558
 7152W        W24676  16.760  13.760   1.150 -0.0027  0.0277  0.2146
 7153W        W24677   4.196  12.711  15.940 -0.2319  0.0521  0.0936
 7154W        W24678   9.460  15.417   5.273 -0.4288 -0.1328 -0.1851
 7155W        W24679  11.294   0.545  11.658 -0.0012 -0.3734 -0.1767
 7156W        W24680  12.773  17.113   0.649 -0.2138 -0.0846 -0.1206
 7157W        W24681   4.699  14.336  16.401  0.0920  0.2345  0.0460
 7158W        W24682  14.881   3.288  14.561 -0.0984  0.0413 -0.0681
 7159W        W24683   1.521   6.663   2.294 -0.0100 -0.2813 -0.1053
 7160W        W24684  13.862  11.228   3.498 -0.0016  0.2129  0.0748
 7161W        W24685  14.263  17.013  11.863 -0.1897  0.4617 -0.0006
 7162W        W24686   8.010   2.215  16.266  0.1700 -0.1623 -0.1694
 7163W        W24687  13.698   7.400  11.739  0.0478  0.0379  0.0262
 7164W        W24688  17.216  14.829   1.994  0.0354  0.1374  0.0288
 7165W        W24689   1.598   7.324   3.916 -0.1359  0.0104  0.1329
 7166W        W24690  11.402   1.496   1.400  0.2477 -0.1021 -0.2761
 7167W        W24691   6.372  10.690  13.917 -0.1065 -0.0415  0.0230
 7168W        W24692  16.719   2.805  12.318 -0.3084  0.0038  0.0117
 7169W        W24693   8.985   7.411   4.196 -0.3267 -0.3614  0.0118
 7170W        W24694   5.889  17.315  15.625 -0.2109  0.2103  0.1963
 7171W        W24695  17.462  17.532   3.553 -0.1749 -0.1569  0.0436
 7172W        W24696  12.693  11.758   2.717 -0.2285 -0.3457 -0.1849
 7173W        W24697   2.749  15.938  12.538  0.1416 -0.0768  0.1252
 7174W        W24698  13.688  17.579  15.469  0.2109  0.1129 -0.1445
 7175W        W24699   1.105   7.656  15.736  0.2257 -0.2178  0.0860
 7176W        W24700   5.385   1.755   0.651  0.0071 -0.2212  0.1085
 7177W        W24701   6.950   4.462  11.785  0.0232 -0.0915 -0.0866
 7178W        W24702   1.199  14.374   4.491  0.1126 -0.2366 -0.0630
 7179W        W24703   5.233   6.101   3.372 -0.2314  0.0722  0.0237
 7180W        W24704  12.585   0.556  11.446 -0.3333  0.0563  0.0841
 7181W        W24705  12.439   7.766   2.124 -0.0743  0.0768  0.1018
 7182W        W24706   2.665   5.893  10.791 -0.1993  0.0840  0.1678
 7183W        W24707  14.837  10.812   0.378 -0.1202 -0.0614 -0.1652
 7184W        W24708   6.092   1.097   2.359 -0.0039  0.2833 -0.0752
 7185W        W24709   5.701   4.242   0.455  0.0281 -0.1358 -0.1051
 7186W        W24710   1.277  13.231  10.462  0.0513  0.0858  0.0732
 7187W        W24711  11.466   0.953  13.904  0.4891  0.0885 -0.1928
 7188W        W24712  11.081   8.200  12.972 -0.0553 -0.0214 -0.0711
 7189W        W24713   2.583  10.451   5.744  0.1076 -0.4198  0.0567
 7190W        W24714  11.066   9.519  13.926 -0.0992 -0.0087  0.2358
 7191W        W24715  11.474   2.249  15.770 -0.4200 -0.1478  0.0836
 7192W        W24716   9.874   6.552   3.701 -0.0824 -0.3789  0.0420
 7193W        W24717  11.716  10.845   5.590 -0.1009 -0.3503 -0.3563
 7194W        W24718   7.558  10.494   5.185 -0.4656  0.1035 -0.0739
 7195W        W24719  14.725   2.566   3.260  0.4544 -0.1280  0.1271
 7196W        W24720   9.054   2.175  15.671 -0.1327  0.1253 -0.1193
 7197W        W24721   0.018  16.675   1.695  0.0808  0.0647  0.1316
 7198W        W24722   2.338  11.987  15.671  0.1922  0.0870  0.0605
 7199W        W24723  15.754  10.310  13.651  0.1920  0.2651  0.0281
 7200W        W24724   3.137  13.418  13.267  0.1236  0.1815 -0.0882
 7201W        W24725  15.668   9.142  15.440  0.2306 -0.2470 -0.0630
 7202W        W24726  11.131  16.454  15.571 -0.0473 -0.1888 -0.0764
 7203W        W24727   8.514  16.837   1.084 -0.1326 -0.0825  0.1534
 7204W        W24728  10.390  17.860   3.559  0.0191  0.1694  0.0085
 7205W        W24729   8.204  11.969  16.242  0.5095 -0.0480  0.3162
 7206W        W24730   9.471   0.713   4.893 -0.0073  0.0487 -0.1357
 7207W        W24731   7.732  16.524   2.678 -0.1722 -0.0025 -0.0208
 7208W        W24732   2.504  16.204  13.398  0.2162  0.1943 -0.2023
 7209W        W24733  17.441  11.532   3.505 -0.1423 -0.2503  0.0810
 7210W        W24734   8.967  12.571  15.857 -0.0838 -0.1438  0.2570
 7211W        W24735  13.214   8.841  12.200 -0.0142 -0.1905 -0.1799
 7212W        W24736  16.630  13.616   0.652  0.2071  0.0861 -0.1335
 7213W        W24737  16.866   9.218  16.168 -0.0286 -0.1984  0.1928
 7214W        W24738   1.352   5.342   5.567  0.3190 -0.1154 -0.1065
 7215W        W24739  14.708   7.789   2.472 -0.3000  0.0230  0.1236
 7216W        W24740  12.017  12.904   3.992 -0.2740 -0.2957  0.0747
 7217W        W24741  11.212   8.387   2.491  0.2126  0.0103 -0.1788
 7218W        W24742  15.948  12.952   3.986  0.1434  0.1051 -0.0095
 7219W        W24743   9.706  15.318   1.408  0.1236  0.1392 -0.1587
 7220W        W24744   0.074   2.736  13.854 -0.1247 -0.2021  0.1105
 7221W        W24745  13.141   6.374   2.244  0.0453  0.3767  0.0889
 7222W        W24746   8.135  11.002   4.846  0.0948  0.0187  0.1031
 7223W        W24747   8.663   7.322  13.183 -0.2878  0.1085 -0.0590
 7224W        W24748  11.735  10.483   0.146  0.1837  0.0690  0.1042
 7225W        W24749   4.853   0.945   1.540  0.2826 -0.0577  0.2741
 7226W        W24750  15.315  11.147  16.021  0.2352 -0.4053 -0.0691
 7227W        W24751   3.487   4.665   5.050 -0.1973  0.0129 -0.1899
 7228W        W24752   2.194  10.452   2.823 -0.1386  0.2264  0.0129
 7229W        W24753  17.861  14.223   2.045 -0.2777 -0.1885 -0.0986
 7230W        W24754  14.032  17.198  10.865  0.2108 -0.0190 -0.0037
 7231W        W24755  11.450   1.473   3.947  0.1284 -0.2866  0.3388
 7232W        W24756   0.724   3.383   0.502  0.0819  0.0536 -0.2832
 7233W        W24757  12.606  11.821   2.055  0.0418  0.1726 -0.1375
 7234W        W24758   6.408   3.883   4.547 -0.0541  0.0641 -0.1703
 7235W        W24759   3.772   4.902  14.901  0.3109  0.0349  0.0027
 7236W        W24760  17.264   5.919   4.303 -0.0942 -0.0541 -0.2711
 7237W        W24761  17.213  15.753   2.483  0.3110 -0.0208  0.1326
 7238W        W24762   2.515  10.585  14.015  0.1826 -0.0947  0.0272
 7239W        W24763   7.661   0.790  15.397 -0.1320 -0.0825  0.0419
 7240W        W24764  12.308  11.078   3.479  0.0001  0.1408  0.0149
 7241W        W24765   9.455  12.962   0.632 -0.4448 -0.1104 -0.3605
 7242W        W24766   8.334  16.863   3.305 -0.1522 -0.2390 -0.2813
 7243W        W24767   0.669   6.227   2.909 -0.0111 -0.0482 -0.0435
 7244W        W24768  16.301   5.750   0.936  0.4406 -0.0343  0.1331
 7245W        W24769   9.842  11.042  14.191  0.2651  0.2394  0.0418
 7246W        W24770   7.052  10.363   2.674  0.1755 -0.2309 -0.2152
 7247W        W24771   6.901   2.476  15.767 -0.0698 -0.1526 -0.1176
 7248W        W24772  13.930   0.022  12.254 -0.3148  0.2251 -0.2741
 7249W        W24773   1.624   2.471  16.396 -0.0771  0.4738 -0.0266
 7250W        W24774  17.805  14.154   4.679 -0.1833 -0.2412  0.0148
 7251W        W24775   7.189   2.503  11.564  0.0344  0.1558 -0.0825
 7252W        W24776  11.403  11.156   2.556  0.0348  0.0154  0.1631
 7253W        W24777   4.552  16.913  13.632  0.0301 -0.0554 -0.1150
 7254W        W24778   7.077   7.371  14.594 -0.0458  0.0155 -0.1904
 7255W        W24779  15.368   0.454  14.168 -0.2372 -0.1035  0.3043
 7256W        W24780   9.587   7.444  15.207  0.0925 -0.5023  0.1687
 7257W        W24781  13.645   6.376  15.001  0.0185 -0.0868  0.1747
 7258W        W24782  10.629   7.939   0.095  0.0472  0.0759  0.3895
 7259W        W24783   2.511  12.533  15.756  0.0924  0.1042  0.2408
 7260W        W24784   0.342  12.301   0.910 -0.0795 -0.0732  0.0005
 7261W        W24785   7.339   9.702  12.310  0.1769  0.2272  0.1351
 7262W        W24786   6.007  17.518  14.466 -0.3299  0.0160  0.2093
 7263W        W24787  17.643  15.635   1.766  0.4231 -0.2961  0.1750
 7264W        W24788  12.179  17.497  11.682 -0.3250  0.1281 -0.5070
 7265W        W24789  17.582   7.393   0.507  0.2033 -0.2066 -0.1217
 7266W        W24790   3.694   9.379  15.593 -0.1247 -0.1465  0.0418
 7267W        W24791   5.804   9.492   2.719 -0.2042 -0.3950  0.0257
 7268W        W24792   8.587   3.968  16.167  0.0978  0.0208  0.0029
 7269W        W24793  14.254  11.444   0.842 -0.0590 -0.1349 -0.2539
 7270W        W24794   4.674   1.539   1.715  0.0298 -0.1014  0.3297
 7271W        W24795  15.311   4.527  15.830  0.2156  0.1062  0.0402
 7272W        W24796   9.478   1.277   3.187 -0.1698  0.0436 -0.0609
 7273W        W24797   6.385   7.469   0.079  0.0340  0.4120  0.1527
 7274W        W24798  15.606   0.448   3.235  0.0982  0.0340  0.1027
 7275W        W24799   8.612  16.953   2.916  0.1186 -0.1544  0.0140
 7276W        W24800   3.516   1.979  12.564  0.1508  0.0376 -0.1989
 7277W        W24801  13.928   6.175   0.018 -0.3638  0.1193 -0.2559
 7278W        W24802   6.000  14.171  16.403 -0.1533 -0.1190 -0.1566
 7279W        W24803  15.457  12.130  14.995  0.0962 -0.0943  0.1019
 7280W        W24804  16.565  13.635   1.868  0.2998 -0.0287 -0.3966
 7281W        W24805   1.255  16.488   4.070  0.1295  0.0138  0.0276
 7282W        W24806  17.488   1.150   1.486 -0.1215  0.2119 -0.2377
 7283W        W24807   5.041  16.505   2.329 -0.0343 -0.0122  0.2768
 7284W        W24808  17.732   6.010  11.469  0.1135 -0.0133  0.0619
 7285W        W24809  16.853   4.556   1.739  0.1185  0.1360 -0.0208
 7286W        W24810   1.095   0.277   1.189 -0.0758 -0.2127  0.1176
 7287W        W24811   1.523  12.396   3.405  0.3675 -0.2132 -0.0294
 7288W        W24812   1.486  16.127  12.877  0.0685  0.2533  0.2512
 7289W        W24813   1.798   4.240   4.509  0.0806 -0.0822 -0.2763
 7290W        W24814  14.669   8.061  13.500  0.0413  0.0392 -0.0086
 7291W        W24815  10.984  13.522   3.623 -0.1452  0.0306 -0.2853
 7292W        W24816  16.819   5.689   0.277  0.1832  0.2508  0.0575
 7293W        W24817  13.240   9.858  12.525 -0.3503  0.1147  0.0994
 7294W        W24818  11.903  10.909  11.939  0.2406  0.1814  0.1021
 7295W        W24819  17.691   8.166  15.122 -0.0485  0.0936  0.0410
 7296W        W24820  14.426   7.713  11.706 -0.0561  0.2078 -0.2787
 7297W        W24821  13.871   5.384  14.115  0.0646 -0.1765 -0.2597
 7298W        W24822   5.491  14.758  13.759  0.4058 -0.0222 -0.5423
 7299W        W24823   3.440   5.291  14.662 -0.4989 -0.2647  0.3196
 7300W        W24824  12.739   5.967   4.018  0.1568  0.0850  0.0851
 7301W        W24825   8.363  10.797  14.689 -0.2176 -0.0994 -0.2092
 7302W        W24826  12.231   8.105  11.732  0.4118 -0.2648  0.0530
 7303W        W24827  11.034   3.420   3.770 -0.3579 -0.0252 -0.1007
 7304W        W24828  13.205   4.533   4.911 -0.1208  0.0039 -0.3725
 7305W        W24829   3.735   3.283   3.982  0.0053 -0.0455  0.0619
 7306W        W24830   8.222  16.327   1.563  0.3778 -0.0976  0.1619
 7307W        W24831  12.093  11.951   2.078  0.0014  0.3211  0.1322
 7308W        W24832   6.086  14.684  12.899 -0.0611 -0.1020 -0.1406
 7309W        W24833   2.287   5.345  13.469  0.1628  0.1913 -0.4163
 7310W        W24834   8.069   6.021   3.893  0.0884  0.0202  0.0286
 7311W        W24835   0.453   4.227  14.326 -0.1893 -0.2826 -0.1516
 7312W        W24836  17.859   7.243   3.396  0.2738  0.0612 -0.0933
 7313W        W24837  16.553  10.256  13.124 -0.2229 -0.1761  0.1671
 7314W        W24838  16.826   8.305  15.275  0.2576  0.0622 -0.0385
 7315W        W24839   8.970   2.006   2.719  0.2169 -0.0011 -0.0358
 7316W        W24840  11.855   1.278  11.406 -0.0002  0.1596  0.0909
 7317W        W24841  12.699   3.774  12.343 -0.0625 -0.1125  0.1961
 7318W        W24842   5.305   4.954  16.226 -0.0932  0.2385  0.0064
 7319W        W24843  13.775   4.005  13.133  0.1556 -0.0498  0.2109
 7320W        W24844  15.083   5.238   5.245 -0.0883  0.1813  0.0780
 7321W        W24845  17.124  17.619   0.363  0.2284  0.3687  0.1267
 7322W        W24846  17.037   2.082   2.971 -0.0450 -0.2797  0.1738
 7323W        W24847  16.293   1.807   4.395  0.0978 -0.0309  0.0214
 7324W        W24848   1.396  14.780  12.453 -0.1849 -0.1321 -0.3709
 7325W        W24849  14.811  14.480   0.983  0.0198 -0.1438  0.1890
 7326W        W24850   0.014   0.461   4.884 -0.0314 -0.1519 -0.1170
 7327W        W24851  13.335  17.251  15.968  0.0999  0.2269  0.0358
 7328W        W24852   9.364  15.343   2.045  0.1200  0.1987 -0.1856
 7329W        W24853   5.025  15.708  12.344  0.2491 -0.1614 -0.1257
 7330W        W24854   4.479   0.507  13.479 -0.1746 -0.2591  0.0281
 7331W        W24855  10.176   9.225   3.644 -0.1843 -0.0995  0.4449
 7332W        W24856   2.410  14.108  11.400 -0.1573  0.0947 -0.0362
 7333W        W24857   0.300   2.734   0.363  0.2122 -0.1565  0.5045
 7334W        W24858   2.977   2.921   5.143 -0.1949 -0.2433  0.3358
 7335W        W24859   0.345  14.228   4.472 -0.2857  0.3209 -0.3123
 7336W        W24860   2.868  13.301   1.926 -0.0179 -0.2321 -0.0040
 7337W        W24861   5.348  11.052   3.712  0.2362 -0.2964 -0.2366
 7338W        W24862  16.288  13.503   1.431 -0.0166  0.1780  0.0416
 7339W        W24863  16.953   7.044  15.665 -0.1341 -0.0338  0.0214
 7340W        W24864  12.303   1.734   2.881 -0.3599 -0.0180  0.1512
 7341W        W24865  11.035  16.528  13.377  0.0413  0.0348 -0.1529
 7342W        W24866  10.411  17.412   2.760 -0.0828 -0.1541  0.1523
 7343W        W24867  17.747  14.746  12.084 -0.1575  0.1415  0.2349
 7344W        W24868  14.566   1.668   5.025  0.2578  0.2510 -0.2661
 7345W        W24869  11.446   2.652   4.479 -0.0325  0.3764 -0.1052
 7346W        W24870  14.779   7.884  13.066  0.1217 -0.1114  0.1166
 7347W        W24871   3.264   7.265  14.117 -0.1133 -0.1696  0.3747
 7348W        W24872   3.920   9.127  15.967  0.0611 -0.1609  0.2107
 7349W        W24873  13.935  16.261  15.103 -0.1912  0.0354  0.0825
 7350W        W24874  13.815  13.872  13.281 -0.3270 -0.2055  0.2823
 7351W        W24875   8.840  14.305   3.476  0.2803 -0.1107  0.1186
 7352W        W24876   3.571  10.884  16.082 -0.2121 -0.0277  0.0448
 7353W        W24877  12.984  15.068  12.040  0.0403 -0.1520  0.4611
 7354W        W24878  14.014   4.713   4.377  0.1123 -0.1423 -0.1387
 7355W        W24879   0.573   0.500  13.357  0.1404 -0.0769  0.1341
 7356W        W24880  13.050  16.706   2.640 -0.3091 -0.0908  0.0385
 7357W        W24881  17.486   7.645  11.281  0.0953 -0.0037 -0.0250
 7358W        W24882   6.930   1.069  12.161  0.7064 -0.1605 -0.0433
 7359W        W24883  12.464   5.248   0.737 -0.0508  0.0248 -0.0873
 7360W        W24884   3.311   9.496   1.441 -0.1309  0.0607 -0.0515
 7361W        W24885   2.288   6.520  12.041 -0.1940  0.0212 -0.0643
 7362W        W24886  12.214  17.894  13.418  0.1053  0.0184  0.0417
 7363W        W24887  17.754  16.026  14.162 -0.1929 -0.1188  0.2210
 7364W        W24888   5.007  13.498   4.269 -0.6161 -0.0175  0.2471
 7365W        W24889   5.758   7.003  12.908 -0.1583  0.1483 -0.0841
 7366W        W24890   7.423   2.128  14.005  0.2269 -0.0320  0.2114
 7367W        W24891  12.012   7.377   1.992  0.0059 -0.0381 -0.0600
 7368W        W24892  10.871   9.400   4.725 -0.1949  0.1109 -0.3399
 7369W        W24893   0.479   7.480  13.110  0.1081 -0.0870  0.0902
 7370W        W24894   0.683   7.821  11.191  0.0725  0.0601  0.0671
 7371W        W24895   1.112   5.726  13.959 -0.2033  0.0709 -0.2643
 7372W        W24896   6.788  17.524  15.436 -0.2697 -0.1056 -0.0568
 7373W        W24897  11.978   4.355  15.576 -0.1162  0.0149  0.2132
 7374W        W24898   1.048   8.265   1.952  0.2589 -0.2565  0.1643
 7375W        W24899   6.543   7.034   0.386  0.0679  0.0848  0.2170
 7376W        W24900  13.598   4.813  15.329  0.0728  0.1086  0.3475
 7377W        W24901   9.139   1.459   3.989 -0.0210 -0.0045  0.2556
 7378W        W24902   9.567  13.224  12.327  0.0267  0.0339  0.2004
 7379W        W24903   8.536  12.746  13.728  0.0147  0.2122  0.0361
 7380W        W24904  12.413  10.575   3.468 -0.0381 -0.0221 -0.3961
 7381W        W24905   0.885  16.184   1.850 -0.2574 -0.2903 -0.0274
 7382W        W24906   7.079  14.449  16.224 -0.3458 -0.0818 -0.0166
 7383W        W24907  14.996   3.506   4.494  0.2730  0.1866 -0.0275
 7384W        W24908  13.961  17.186   3.555  0.1752  0.0163  0.0145
 7385W        W24909  11.108  13.753  16.041 -0.2232 -0.1237 -0.1342
 7386W        W24910   2.894  11.594  12.657  0.1207  0.1067 -0.2328
 7387W        W24911   6.213   7.484   1.054  0.0991 -0.0285  0.2658
 7388W        W24912  16.773   6.773   5.904 -0.2238  0.0231 -0.1549
 7389W        W24913  16.180  16.002   2.792  0.3141  0.5002 -0.0928
 7390W        W24914   9.771  16.888   3.270  0.0140 -0.1750  0.1589
 7391W        W24915   8.451   4.924   3.909 -0.0079 -0.0633 -0.0495
 7392W        W24916  14.407   3.696  15.560  0.0859 -0.1090 -0.0258
 7393W        W24917  17.971  17.040  15.041 -0.0758  0.0915 -0.1053
 7394W        W24918   3.685   5.318  12.168 -0.0637 -0.0409 -0.1988
 7395W        W24919   7.843  14.542   3.427 -0.2309 -0.1310 -0.3082
 7396W        W24920   8.169   2.477   2.829  0.1450  0.1415 -0.2703
 7397W        W24921  14.013   0.411   5.165  0.1502 -0.1216  0.0331
 7398W        W24922  12.185   5.470  12.671 -0.1434 -0.1844 -0.0836
 7399W        W24923  16.938   0.720  16.085 -0.2336  0.0555  0.2065
 7400W        W24924   4.706  15.031   3.069  0.0023 -0.1252 -0.2005
 7401W        W24925  13.290   9.077   1.218 -0.2813  0.2699  0.1424
 7402W        W24926   3.658  13.869   3.314 -0.0239  0.2497  0.1800
 7403W        W24927  16.966   6.064   0.040  0.2386  0.2337 -0.1857
 7404W        W24928  16.189   2.320   2.500  0.0201  0.3527  0.0522
 7405W        W24929   0.632   9.563  11.406  0.1003 -0.1332 -0.2350
 7406W        W24930   9.529  17.793  11.619 -0.0964  0.1013  0.2145
 7407W        W24931  12.737  15.816  16.280 -0.2849 -0.1816 -0.0204
 7408W        W24932  12.996   1.240  15.035 -0.0657  0.2718 -0.0526
 7409W        W24933   2.334  11.118   4.019 -0.1130 -0.1466  0.1675
 7410W        W24934  16.177   7.019   0.828 -0.0587 -0.1931 -0.2020
 7411W        W24935  14.852   5.975   4.485  0.0174 -0.0554 -0.0929
 7412W        W24936   5.287   8.468  14.012  0.0831  0.4604  0.1499
 7413W        W24937  16.164   0.007   2.316 -0.1628 -0.3327 -0.0733
 7414W        W24938   8.399   5.242  14.033  0.1980  0.2385 -0.2020
 7415W        W24939   0.604   2.448   4.527  0.4498 -0.0910 -0.1465
 7416W        W24940   6.100   5.831  14.353 -0.1004 -0.0683  0.2548
 7417W        W24941  13.962   5.201   3.949  0.1043 -0.0450  0.3074
 7418W        W24942   7.625  17.063  15.285  0.0458 -0.0859 -0.1277
 7419W        W24943   2.360  12.290  13.588 -0.1774  0.0554 -0.0695
 7420W        W24944   1.594   4.425   2.968  0.0144 -0.2383  0.0124
 7421W        W24945   7.271  15.392  14.467  0.1423 -0.0550  0.1492
 7422W        W24946  10.689   4.768   3.614  0.0875  0.0481  0.0265
 7423W        W24947  14.243  12.876   3.615 -0.2048 -0.2034 -0.1914
 7424W        W24948   0.936   5.894   1.140  0.0659 -0.0871 -0.0478
 7425W        W24949   5.626   0.864   2.132 -0.1641 -0.1384  0.1147
 7426W        W24950  16.687  14.687  12.933  0.2502  0.1837 -0.0670
 7427W        W24951   3.842  10.841  15.026 -0.0274 -0.2237  0.0528
 7428W        W24952   7.764  11.421  13.369 -0.1956  0.3056  0.1598
 7429W        W24953   2.287   9.084   4.242  0.1120 -0.2332 -0.1101
 7430W        W24954   2.921  15.397   2.551 -0.0621  0.1542 -0.2739
 7431W        W24955  10.887  13.213   0.912  0.0837  0.0629 -0.1477
 7432W        W24956  14.632   7.446   4.222 -0.3654  0.1288  0.0932
 7433W        W24957   4.282   2.543  12.723 -0.1048 -0.1738 -0.0631
 7434W        W24958  11.755   9.118   4.553 -0.1289  0.0155 -0.2300
 7435W        W24959   6.459   8.973  12.982 -0.0350  0.0634 -0.1981
 7436W        W24960   9.275   2.043   2.031  0.2482 -0.1902 -0.1858
 7437W        W24961   7.818  12.759  15.224  0.0816 -0.0029  0.3866
 7438W        W24962   3.491   7.987   3.487  0.2070 -0.3124  0.1718
 7439W        W24963   9.247   7.674   3.036 -0.2818  0.2856  0.0585
 7440W        W24964  14.221   2.514   4.556 -0.0023 -0.2471 -0.2105
 7441W        W24965  11.348   1.541   0.320  0.0542  0.0684 -0.3226
 7442W        W24966   5.059  16.988   5.002  0.1266 -0.2266  0.0419
 7443W        W24967   2.614   1.087   0.162  0.1478  0.0902  0.1255
 7444W        W24968  13.553   5.964   1.830  0.3403  0.2682  0.0950
 7445W        W24969   8.715   7.938  16.003 -0.0569 -0.0337  0.0052
 7446W        W24970  17.567   7.162  14.489 -0.0679  0.1738  0.2284
 7447W        W24971   5.132   7.349   1.803 -0.2978 -0.2894 -0.0857
 7448W        W24972  17.016   3.828  11.213 -0.0902  0.2463 -0.1125
 7449W        W24973   1.748   6.474  15.076 -0.1703 -0.0000  0.0191
 7450W        W24974  16.130   2.432  12.580 -0.0556  0.1641  0.0783
 7451W        W24975   7.907   0.420  11.338 -0.0417  0.2249 -0.1119
 7452W        W24976   9.245   8.324   3.894  0.3111 -0.2143 -0.3813
 7453W        W24977   1.554  12.828   3.118 -0.0293  0.1548  0.0326
 7454W        W24978   2.032   9.357   3.875  0.1641 -0.2159  0.0224
 7455W        W24979   0.205  10.830   2.175  0.0376 -0.2844 -0.1332
 7456W        W24980   1.959   6.615  15.990 -0.2879  0.1387  0.0731
 7457W        W24981  10.888  13.069  14.512  0.1259  0.1841 -0.2559
 7458W        W24982   9.797   1.499  14.590 -0.0270  0.0969 -0.2189
 7459W        W24983  11.020  10.681  11.970 -0.1613 -0.0315  0.0800
 7460W        W24984   9.590   9.917   3.530 -0.1060  0.3016  0.0483
 7461W        W24985   0.871   6.863   3.557  0.1560 -0.2662 -0.0798
 7462W        W24986   9.337  13.459  12.853  0.0784  0.0148  0.0914
 7463W        W24987   7.703   7.749   1.502  0.0332  0.1348 -0.0585
 7464W        W24988   3.786   3.288   0.945  0.2093 -0.3450 -0.0718
 7465W        W24989  10.814  14.995  12.651 -0.0556 -0.1272  0.3228
 7466W        W24990   5.323  15.866  16.313  0.2173 -0.0445  0.0146
 7467W        W24991  10.403   6.166  14.154  0.1821 -0.4021  0.0505
 7468W        W24992  16.751  16.515   3.368 -0.0283  0.2950  0.0174
 7469W        W24993  11.604  16.295  12.306  0.0450 -0.2134  0.2214
 7470W        W24994   5.900   9.855   3.653 -0.0235 -0.2720 -0.1211
 7471W        W24995  16.495   6.608   5.104 -0.0648  0.0621  0.3623
 7472W        W24996   2.231   4.859   0.471 -0.0129 -0.0037 -0.2552
 7473W        W24997  12.745   7.455  13.280 -0.2783  0.2387 -0.1231
 7474W        W24998   7.298   4.362  12.684 -0.1312 -0.0578  0.3610
 7475W        W24999  13.281   0.059  15.728 -0.2760  0.0207  0.3601
 7476W        W25000   0.997  16.456  14.835 -0.0517 -0.2049  0.1411
 7477W        W25001   0.453  17.553   0.773 -0.2195 -0.3241  0.0199
 7478W        W25002  16.203   7.426  15.693  0.3197  0.1529 -0.1191
 7479W        W25003  10.377   1.420   0.106 -0.3296  0.0513 -0.0750
 7480W        W25004  13.605   5.426   4.956  0.2191 -0.2715  0.0407
 7481W        W25005   2.371  14.059  12.962  0.1757 -0.0378 -0.1864
 7482W        W25006  10.873  15.608  14.862 -0.2865 -0.0507 -0.0361
 7483W        W25007  15.996  13.556  16.386 -0.0668 -0.3780 -0.1681
 7484W        W25008   8.608   9.160  15.862 -0.0075 -0.0839 -0.0354
 7485W        W25009   1.858   8.612   4.471  0.0184  0.3873  0.0304
 7486W        W25010   8.775  15.201  14.335  0.2281 -0.2069 -0.3249
 7487W        W25011   1.385   5.007  14.529 -0.0020 -0.2647  0.0641
 7488W        W25012  13.931   0.450   2.120  0.1887  0.3791 -0.0977
 7489W        W25013   6.447   3.983   3.076 -0.1643 -0.1660  0.1491
 7490W        W25014  15.436  12.302   2.884 -0.2706  0.0614  0.0098
 7491W        W25015   1.956  14.290   3.067 -0.0105 -0.1291  0.1161
 7492W        W25016   8.756  16.410   0.338  0.1099 -0.3912 -0.0060
 7493W        W25017   1.980   7.938   0.908 -0.2304 -0.0993 -0.1729
 7494W        W25018   3.136  17.544   1.347  0.0531  0.1493  0.0164
 7495W        W25019  12.986   1.602   3.271 -0.1124 -0.0853 -0.0342
 7496W        W25020  14.519  14.183   4.412 -0.1199  0.2432 -0.0826
 7497W        W25021   2.666   9.663   2.893  0.0266 -0.2012 -0.0698
 7498W        W25022  14.930   0.459  13.947  0.0136  0.2056 -0.0827
 7499W        W25023  10.884  14.230  15.888  0.2610  0.0791 -0.2323
 7500W        W25024   8.038   7.577  14.305 -0.0638  0.0569  0.2331
 7501W        W25025   1.067   1.750  11.649 -0.0148 -0.2641  0.0245
 7502W        W25026   2.934   3.191  12.876  0.0565 -0.2092 -0.1094
 7503W        W25027   0.200   1.925  14.470 -0.0719  0.0914  0.1411
 7504W        W25028  17.604  12.075  12.033 -0.3788 -0.2706 -0.1221
 7505W        W25029   1.772   6.345  12.148  0.4546 -0.0421 -0.1661
 7506W        W25030  11.411   8.135  13.909 -0.0687  0.2984  0.2353
 7507W        W25031  13.797   8.347  14.005 -0.1636 -0.0021 -0.0464
 7508W        W25032   4.867   4.883   2.964  0.1048 -0.2374  0.3153
 7509W        W25033   6.419   8.863  15.782  0.0930  0.0696 -0.2016
 7510W        W25034   2.746   1.374   2.860 -0.0601  0.1700  0.0338
 7511W        W25035  10.771  17.331  14.380  0.0054  0.0402  0.0150
 7512W        W25036  15.430  16.090   1.406 -0.1123  0.2959 -0.1134
 7513W        W25037   8.796   7.092  12.704 -0.0984  0.1293 -0.1619
 7514W        W25038   7.433  16.733   1.120 -0.0564  0.1056 -0.3052
 7515W        W25039  11.358  17.778  12.260  0.0173 -0.0760 -0.0710
 7516W        W25040  13.237   3.970  13.267  0.3170 -0.0697  0.1120
 7517W        W25041   5.807  10.124   0.984 -0.2238 -0.0837 -0.2449
 7518W        W25042  15.828  10.555  11.528 -0.2978 -0.2184 -0.4061
 7519W        W25043  16.037   5.720  12.889  0.1814 -0.2780 -0.0675
 7520W        W25044  17.427  12.446   4.075 -0.3640 -0.0025 -0.0224
 7521W        W25045  14.636   9.635   2.429 -0.1408  0.3046 -0.2204
 7522W        W25046  14.492  15.804  14.945  0.1699 -0.2075 -0.2397
 7523W        W25047  10.310  13.338   0.231 -0.0419  0.1784 -0.2179
 7524W        W25048   7.662  10.852   0.056 -0.1439 -0.4112 -0.1407
 7525W        W25049   0.277   9.306   4.109  0.3474 -0.0187 -0.4653
 7526W        W25050   7.291  16.620   2.418  0.1514 -0.0019 -0.2739
 7527W        W25051  14.993   7.919  14.718 -0.2808  0.2242 -0.1278
 7528W        W25052  17.266   4.638   3.321 -0.0688  0.2715  0.0019
 7529W        W25053  16.018  12.705  14.306 -0.1518  0.4411 -0.2220
 7530W        W25054   6.208   0.614  11.698  0.2348 -0.0143  0.1889
 7531W        W25055   5.689  16.172  12.139  0.1262 -0.1373 -0.1987
 7532W        W25056   7.139   9.614  16.280  0.0045 -0.1481  0.0441
 7533W        W25057   9.802  15.429  12.341 -0.0041  0.3541  0.1609
 7534W        W25058   4.625   1.396   1.232 -0.3245 -0.3145 -0.2115
 7535W        W25059   8.463   0.416   3.253 -0.3157  0.0097  0.0307
 7536W        W25060   6.092  10.378  14.318  0.0471  0.1987 -0.0961
 7537W        W25061  10.251  15.145   3.525 -0.1501  0.1847  0.0318
 7538W        W25062   9.584   4.233   1.113  0.1455 -0.0600  0.0351
 7539W        W25063   6.016   3.794   0.461 -0.3346 -0.1265  0.0509
 7540W        W25064   7.408  10.387  13.005  0.0543 -0.0104 -0.4130
 7541W        W25065  10.703  13.844   1.515  0.0339 -0.0478  0.0157
 7542W        W25066  14.901  12.210  12.556 -0.1905 -0.0898 -0.3273
 7543W        W25067   4.104  17.761  12.240 -0.0121  0.0821  0.1472
 7544W        W25068   9.439   0.706   2.212 -0.1267 -0.2877 -0.0038
 7545W        W25069   5.542   4.464  15.106 -0.0298 -0.0104  0.3948
 7546W        W25070   0.234  11.647  14.897 -0.1496  0.1243  0.0408
 7547W        W25071   7.164   3.298  12.998 -0.1374  0.3162 -0.3468
 7548W        W25072  13.485   1.966  16.005 -0.0549  0.0493 -0.1787
 7549W        W25073  17.811  16.326  15.628  0.1167 -0.0010  0.1059
 7550W        W25074   1.541   1.246   2.607  0.2249 -0.2044 -0.2422
 7551W        W25075   2.925   6.087   2.821 -0.1958  0.0200 -0.1419
 7552W        W25076  12.971   0.990  11.496 -0.0343  0.0512 -0.0263
 7553W        W25077  13.066  10.013  15.168 -0.0493 -0.1381  0.0439
 7554W        W25078   7.357   2.631   0.463 -0.0582 -0.0570 -0.1022
 7555W        W25079   9.449  12.773  12.775 -0.0882 -0.1025 -0.3837
 7556W        W25080   9.699   4.308  13.676  0.1887 -0.1032  0.1894
 7557W        W25081   1.390   1.420   4.987 -0.0570  0.0151  0.0103
 7558W        W25082   8.589  16.163   2.632  0.0921 -0.2966  0.3073
 7559W        W25083  15.114  16.653   2.359 -0.0432  0.0368  0.2664
 7560W        W25084   2.231  16.379   3.903  0.1496  0.1106  0.0603
 7561W        W25085  12.891   0.691   1.172  0.1345  0.1751 -0.0462
 7562W        W25086   3.760   1.162   1.798  0.0577 -0.0425  0.0027
 7563W        W25087  11.950   7.575  16.409  0.1749 -0.1332 -0.1210
 7564W        W25088  14.829  15.167   4.854  0.0690 -0.0023  0.1640
 7565W        W25089   3.358  12.962  11.470  0.0812 -0.1860 -0.0794
 7566W        W25090   5.542  13.312   4.057  0.0473 -0.0268  0.0892
 7567W        W25091  15.846   7.492   1.636  0.3836 -0.1412 -0.0363
 7568W        W25092   5.415   2.986  16.055 -0.0430 -0.1451  0.2524
 7569W        W25093   7.151   7.900  14.754 -0.3304  0.1301 -0.2137
 7570W        W25094   8.768   0.608   0.773 -0.3903 -0.2011  0.1214
 7571W        W25095   4.302   1.105  10.992 -0.2160 -0.0397  0.0029
 7572W        W25096  14.926   5.052  14.087 -0.0615 -0.1664 -0.0461
 7573W        W25097  15.649   2.825   1.794 -0.2405  0.1230  0.2561
 7574W        W25098  16.953  15.676  14.929  0.0697  0.0617 -0.5049
 7575W        W25099  16.217  11.206  11.270  0.2517 -0.0190  0.1143
 7576W        W25100   4.443   7.763  11.772  0.0432  0.2721 -0.3589
 7577W        W25101   6.132  14.576  11.587  0.2124 -0.1186  0.0381
 7578W        W25102   9.540  14.850   1.785  0.1562 -0.0083 -0.3434
 7579W        W25103  15.728  11.251  12.017 -0.0530  0.0663  0.1780
 7580W        W25104   9.789  15.879  12.853 -0.1688  0.1080 -0.0110
 7581W        W25105   0.222  17.643  12.394  0.3092  0.1135 -0.1141
 7582W        W25106   5.483   9.144   0.798  0.1545 -0.0177 -0.1439
 7583W        W25107  12.823   4.532  13.930  0.4081 -0.2104  0.0939
 7584W        W25108   9.885  13.175  15.762  0.2265  0.3841 -0.2735
 7585W        W25109  11.869  11.740  15.196  0.1867 -0.0544  0.0588
 7586W        W25110  12.899  12.526  12.859  0.1450  0.2083  0.1120
 7587W        W25111   0.072   7.760   1.033 -0.0584 -0.0274 -0.0239
 7588W        W25112   6.867   0.894   4.398 -0.4428  0.0525 -0.1865
 7589W        W25113   5.011  11.982  13.755  0.3063  0.2317  0.0838
 7590W        W25114  11.475   8.169   2.135  0.1077 -0.0672 -0.1560
 7591W        W25115   3.047   7.403   2.118  0.0632 -0.2989  0.0853
 7592W        W25116   8.542   1.894  15.750 -0.1398  0.1478 -0.2835
 7593W        W25117  17.254   9.494  15.198  0.1192 -0.0351  0.0642
 7594W        W25118   8.179   7.620  12.918 -0.1305  0.0109 -0.1946
 7595W        W25119  13.881  12.468   1.763 -0.1810 -0.4747  0.2170
 7596W        W25120  16.573   5.616   3.423  0.0134  0.2596 -0.5446
 7597W        W25121   9.552   2.366  14.219  0.1438  0.2612  0.3101
 7598W        W25122  11.406   1.475   0.784 -0.1971 -0.1364  0.1613
 7599W        W25123   1.518  17.941  14.935  0.1511 -0.0080 -0.2539
 7600W        W25124   4.954  12.311  12.381 -0.2522  0.0154  0.1143
 7601W        W25125  13.204   4.264  12.480 -0.0907 -0.2289  0.0966
 7602W        W25126   9.741   0.652  14.132  0.0066 -0.1203 -0.0356
 7603W        W25127   3.502   2.449  16.286  0.0717 -0.1765  0.0780
 7604W        W25128  12.422  11.228   3.927  0.0171 -0.3623 -0.1722
 7605W        W25129   2.374   9.934  10.272  0.3113  0.0347 -0.0562
 7606W        W25130  15.863  16.218  14.455 -0.3114  0.1186  0.1328
 7607W        W25131   5.575  17.010   3.410  0.1450 -0.0932  0.1665
 7608W        W25132   8.359  11.929  13.388  0.3145  0.2033 -0.4086
 7609W        W25133  15.023   6.483  13.608 -0.0934 -0.0653  0.2621
 7610W        W25134   1.820  10.435  14.621 -0.1676  0.2236  0.3716
 7611W        W25135  14.051  10.996   0.815  0.0732  0.0630  0.0819
 7612W        W25136  12.710   6.806  14.856 -0.2873  0.3336 -0.1890
 7613W        W25137   2.105  16.867   0.766  0.4623 -0.1191 -0.1185
 7614W        W25138   3.925   0.260  14.753 -0.1381  0.0255 -0.0873
 7615W        W25139  14.400  10.909  12.755 -0.1519  0.0723  0.0144
 7616W        W25140   0.829  17.147   1.385 -0.0058 -0.0638 -0.0715
 7617W        W25141   7.120   3.716   5.098 -0.3218 -0.2596  0.0044
 7618W        W25142   1.440   8.887   4.466  0.0064 -0.0008 -0.0489
 7619W        W25143  14.334   3.166   0.302  0.2477 -0.0567  0.1027
 7620W        W25144  12.408  12.341  14.582 -0.0219 -0.2470  0.1783
 7621W        W25145  13.269  12.280  13.253  0.1346  0.2707  0.4861
 7622W        W25146  13.319   0.102   2.977  0.3055  0.0334 -0.0476
 7623W        W25147   0.183  13.592  12.518  0.0926  0.2489  0.0455
 7624W        W25148   8.373   3.965  15.485  0.1890 -0.2333 -0.2161
 7625W        W25149  17.970   2.136  13.258 -0.0624  0.1743 -0.0664
 7626W        W25150  17.598  16.343   1.742 -0.0943  0.2277  0.1103
 7627W        W25151  15.995  17.744  13.020 -0.2338  0.1252  0.0398
 7628W        W25152  14.357  17.958  11.969  0.2331 -0.1004  0.1231
 7629W        W25153   7.040   0.355   2.190  0.1746 -0.2038 -0.1113
 7630W        W25154  14.772  12.229   5.152 -0.0553 -0.2739 -0.0805
 7631W        W25155  16.428   4.029   3.124  0.0499 -0.0754 -0.1203
 7632W        W25156  10.080   8.307   5.668  0.2417 -0.1384  0.2979
 7633W        W25157  14.483   1.058  13.283 -0.0707  0.1215  0.3345
 7634W        W25158  10.023   3.558  16.025 -0.1707 -0.1648  0.2244
 7635W        W25159  13.720   2.742  14.328 -0.0581 -0.3323  0.1912
 7636W        W25160  14.662  12.127   0.216 -0.2240 -0.1466  0.0961
 7637W        W25161  12.676  13.732   4.294 -0.1402 -0.0899  0.0011
 7638W        W25162  13.286   6.907  12.178 -0.0179 -0.1109  0.1819
 7639W        W25163  13.569  12.816  11.205  0.0787  0.0234  0.3515
 7640W        W25164  17.725  14.731   1.167 -0.0613  0.2799 -0.0526
 7641W        W25165   1.337   5.164   1.712 -0.0136 -0.1765  0.0617
 7642W        W25166   2.678   3.468   1.574  0.1318 -0.0273  0.1882
 7643W        W25167   2.912   5.815  16.103 -0.1088 -0.3692  0.0633
 7644W        W25168  11.902   7.074   2.946 -0.3090 -0.0580 -0.1003
 7645W        W25169   8.041  17.214  13.056  0.1330 -0.1629 -0.1488
 7646W        W25170   6.723   5.963  13.630 -0.1252 -0.0569 -0.1582
 7647W        W25171   2.154  13.560  12.539  0.0755  0.2384 -0.0870
 7648W        W25172   2.046   0.989  16.203 -0.3436 -0.3362  0.0477
 7649W        W25173  11.294  13.527  11.652 -0.0899 -0.0975  0.1006
 7650W        W25174  12.812  12.389   3.928  0.0325  0.0124 -0.1142
 7651W        W25175  16.931   2.753  12.900  0.1244 -0.2368 -0.0029
 7652W        W25176   7.091   5.191   0.112  0.1695  0.2134 -0.1309
 7653W        W25177   2.480   9.654   4.816 -0.0231 -0.0573 -0.0331
 7654W        W25178  17.298  12.464   2.014  0.3844 -0.0990  0.1360
 7655W        W25179  16.544   0.268  13.739  0.1208  0.0814  0.0678
 7656W        W25180  12.437  12.225   2.621  0.0363  0.0868 -0.0240
 7657W        W25181  13.823  14.871  15.863  0.2727 -0.0348 -0.1018
 7658W        W25182  16.137  15.357   3.102  0.0552 -0.0930 -0.1237
 7659W        W25183  11.490  17.601   0.006  0.2220  0.0930  0.1831
 7660W        W25184   1.958   8.338   2.258  0.0610 -0.1255  0.3401
 7661W        W25185   0.015  16.683   3.636 -0.0318  0.1301 -0.0108
 7662W        W25186   7.286   8.187   4.523 -0.0688  0.2572  0.0862
 7663W        W25187   3.398  12.985  14.274  0.1515  0.1249  0.0950
 7664W        W25188  16.616  12.736  14.422  0.2494 -0.2541 -0.1309
 7665W        W25189  11.635  11.836   3.603  0.0738 -0.3062 -0.0748
 7666W        W25190  15.080   4.373   3.513 -0.0755 -0.1571  0.1620
 7667W        W25191  13.525   6.293  14.475 -0.0880 -0.3493 -0.1359
 7668W        W25192   5.990   3.312   5.272  0.0820  0.1592 -0.2643
 7669W        W25193  13.652   0.438  12.340  0.1471 -0.0277 -0.2626
 7670W        W25194   4.077  13.511   5.311 -0.0593  0.1188 -0.1763
 7671W        W25195   3.990  17.244  12.008  0.1100  0.0495  0.1708
 7672W        W25196  11.874  10.161   1.163  0.1154 -0.3295 -0.2320
 7673W        W25197   6.825   0.404  14.976 -0.0314  0.1348 -0.0626
 7674W        W25198  17.484  17.495  12.217  0.0082  0.1080 -0.0912
 7675W        W25199   5.233  11.828   3.968 -0.2597  0.0219  0.0349
 7676W        W25200   0.552  15.832   3.819  0.2752 -0.2687 -0.2661
 7677W        W25201  13.431   1.901  14.309  0.0883  0.0723  0.0938
 7678W        W25202   1.120  14.443   0.906  0.2598 -0.2171 -0.1543
 7679W        W25203   6.536  17.218   3.369 -0.1102  0.1178  0.2396
 7680W        W25204   9.836   5.554   3.462 -0.1383  0.0304 -0.0807
 7681W        W25205  14.459  15.853  13.585  0.0241  0.3439  0.0859
 7682W        W25206  14.665  12.780   3.310 -0.1295 -0.0295  0.5428
 7683W        W25207   4.603   5.864   2.143 -0.1911 -0.1839 -0.2464
 7684W        W25208  11.978   4.496   0.090 -0.1321 -0.3037  0.3002
 7685W        W25209   5.831   7.352  15.509  0.3092 -0.1201 -0.2125
 7686W        W25210   8.726   9.403   3.805 -0.2267  0.0724  0.3215
 7687W        W25211   4.554  11.987  12.407  0.2086  0.1695 -0.1641
 7688W        W25212   5.419  12.322  13.287 -0.1033 -0.1894  0.0311
 7689W        W25213   1.266   8.376  14.083  0.0619  0.0496  0.1030
 7690W        W25214  17.064   3.455  11.581  0.1541 -0.1646 -0.0961
 7691W        W25215   3.816   0.440   4.934 -0.0372 -0.2950  0.0910
 7692W        W25216  10.622   4.072  11.553  0.0929  0.1637  0.0962
 7693W        W25217   8.197  13.407   6.122  0.2019 -0.1140  0.0969
 7694W        W25218  16.190  10.576   2.403 -0.0645 -0.2389 -0.1041
 7695W        W25219  14.862   4.374   1.656  0.1111  0.1890  0.2912
 7696W        W25220   2.809   6.355  12.051  0.0680 -0.2004 -0.0855
 7697W        W25221   7.321   0.285  16.421 -0.1067  0.1041 -0.0989
 7698W        W25222  10.390  13.060  11.814  0.0989 -0.1114  0.0006
 7699W        W25223  13.073   1.791   1.331 -0.1820  0.4300  0.2647
 7700W        W25224   3.719  10.907   2.514 -0.1825  0.3012  0.1836
 7701W        W25225   1.526   9.104   1.255 -0.1914 -0.1323 -0.2155
 7702W        W25226  14.424   3.669   0.268 -0.0110  0.0213  0.3802
 7703W        W25227   2.270  15.047   0.707  0.2800 -0.2067 -0.1695
 7704W        W25228   6.079  12.228   4.379  0.0412 -0.2928  0.4022
 7705W        W25229  13.472   3.327   3.870 -0.0885  0.4838  0.0357
 7706W        W25230   1.173   3.526   1.583 -0.0777  0.0586  0.0606
 7707W        W25231   8.724   8.008  13.727 -0.0673  0.1615 -0.0457
 7708W        W25232  12.467  17.939  12.935  0.1334 -0.0626 -0.4241
 7709W        W25233   0.194   9.016  10.675 -0.0260  0.1854 -0.2248
 7710W        W25234  16.901  14.933  13.999  0.2234  0.0253  0.0424
 7711W        W25235   1.518   7.250  12.730  0.1345 -0.4052 -0.1178
 7712W        W25236   4.891   6.730   0.814  0.1125 -0.2228 -0.0996
 7713W        W25237  10.614  10.671   1.773 -0.3367 -0.1279 -0.1476
 7714W        W25238  13.047   6.033   1.869 -0.2587  0.0401 -0.0524
 7715W        W25239   7.187   0.312  13.880  0.1710 -0.0290  0.1170
 7716W        W25240   5.777  16.087  14.201  0.3367 -0.0087  0.0321
 7717W        W25241   7.309  12.317   0.519 -0.0415  0.0489  0.0336
 7718W        W25242   3.716   6.385  11.911 -0.1848  0.0675 -0.0104
 7719W        W25243   5.959   2.860   3.699 -0.2358  0.1736 -0.1580
 7720W        W25244   6.316   2.128   4.368  0.0701 -0.1904 -0.3801
 7721W        W25245   0.071   7.893  11.998 -0.1376 -0.0564 -0.1307
 7722W        W25246   9.288   6.003  15.990  0.0657 -0.0062 -0.1842
 7723W        W25247  10.699   4.040  16.432 -0.1109 -0.0569 -0.1117
 7724W        W25248   1.423  10.050  14.742 -0.0935 -0.0553  0.2378
 7725W        W25249   9.781   3.739   1.069 -0.0494 -0.1561 -0.0868
 7726W        W25250  10.401  13.560   3.698  0.2041  0.3019 -0.0772
 7727W        W25251  13.884  11.414   0.533  0.2402 -0.1874 -0.3594
 7728W        W25252  11.795   3.614   0.629 -0.0271  0.1846 -0.0046
 7729W        W25253  13.445   4.924  13.197 -0.0152  0.1287  0.0922
 7730W        W25254   4.596  11.596   0.600  0.3595  0.0518  0.0055
 7731W        W25255   7.934  10.636   0.897 -0.1360 -0.1438  0.0145
 7732W        W25256  17.001  12.916  13.227  0.0005 -0.0326 -0.1318
 7733W        W25257   5.327   0.532  13.235  0.2991 -0.2090  0.0713
 7734W        W25258  16.702  11.229  11.204 -0.0835  0.2735 -0.1305
 7735W        W25259   4.253  17.945   4.275  0.0507  0.0839  0.4214
 7736W        W25260  13.284   5.220  12.827  0.2096  0.2114  0.0860
 7737W        W25261  16.026   9.471  11.457  0.0227  0.1563  0.1790
 7738W        W25262   8.136  16.238   0.254  0.2690 -0.1875 -0.0554
 7739W        W25263  12.719  12.033  14.044 -0.2924 -0.0011 -0.2840
 7740W        W25264   0.186   5.793   0.342 -0.1768  0.1083  0.2929
 7741W        W25265  11.274   3.690   4.472 -0.0940 -0.3632  0.0932
 7742W        W25266  10.001   3.071   0.727 -0.1384 -0.1084 -0.3009
 7743W        W25267  13.737   8.553   1.091  0.0234 -0.0451  0.1073
 7744W        W25268   8.966   9.909  16.055  0.0759  0.0907  0.3534
 7745W        W25269  15.510   4.559   0.985  0.3157  0.0828 -0.1377
 7746W        W25270  14.019   2.329  14.304  0.3622 -0.0964 -0.1718
 7747W        W25271   9.403  16.516   3.079  0.1043 -0.0820  0.0401
 7748W        W25272   4.880  12.058   2.658 -0.0701 -0.1023  0.1902
 7749W        W25273   9.298   8.689   0.909 -0.0878 -0.0876  0.1100
 7750W        W25274   7.435  11.777  13.600 -0.0691 -0.0799  0.0752
 7751W        W25275   8.908  11.898   2.059 -0.1521  0.0553 -0.0665
 7752W        W25276   4.777   8.094  12.150 -0.0462 -0.1427 -0.1681
 7753W        W25277   8.813   0.762   3.347  0.3568 -0.3555  0.3225
 7754W        W25278  14.950  14.355  13.420 -0.1395  0.2713  0.0310
 7755W        W25279   4.784  11.593   1.881  0.1088 -0.0438 -0.0507
 7756W        W25280   3.422   5.128   1.744  0.1663 -0.1642  0.1036
 7757W        W25281   1.567  13.107   3.582  0.3156 -0.1920 -0.0944
 7758W        W25282  15.547   5.037  15.111 -0.1451  0.2846 -0.0609
 7759W        W25283   3.289  13.519   3.298  0.1213 -0.3476  0.2206
 7760W        W25284   8.033   8.096  14.312  0.1595  0.0071 -0.0455
 7761W        W25285  11.389   5.922   0.190 -0.1507 -0.1202  0.1015
 7762W        W25286   0.408   2.699   5.245 -0.0126  0.0432 -0.0596
 7763W        W25287   9.701  14.467  15.676  0.0280 -0.0617  0.1105
 7764W        W25288  14.865  11.301   0.141  0.0218 -0.0127 -0.0693
 7765W        W25289  14.721   9.612   1.385  0.2457 -0.3408  0.2188
 7766W        W25290  16.752   0.669   1.022  0.0220 -0.1084 -0.0556
 7767W        W25291  11.078  12.199   5.250  0.2881 -0.2391  0.1840
 7768W        W25292   1.661  16.822  15.126  0.0445  0.2651  0.3556
 7769W        W25293   6.958  11.054   1.730  0.0908  0.1266  0.1002
 7770W        W25294  17.490  15.917   5.076  0.2339 -0.0815 -0.1935
 7771W        W25295  12.100  10.671   4.531 -0.2341 -0.1925  0.0496
 7772W        W25296  12.445  10.527   5.063  0.1072  0.1809  0.3585
 7773W        W25297   3.376  12.637  10.594 -0.2199 -0.0681  0.1375
 7774W        W25298  15.347  10.980   2.058  0.0978  0.0392  0.1281
 7775W        W25299   0.951  17.754   1.712  0.1828  0.1977 -0.1614
 7776W        W25300   8.205   1.498   0.507 -0.2224 -0.3225  0.0503
 7777W        W25301  10.305   9.963  16.193  0.2215 -0.0491  0.2127
 7778W        W25302   6.925   6.353  15.615  0.2362  0.1084 -0.0821
 7779W        W25303  14.724  13.247   3.494  0.0410 -0.0327  0.1723
 7780W        W25304   8.992   6.090  11.868 -0.0629 -0.0648  0.1948
 7781W        W25305   3.493   8.624   4.102  0.2646 -0.0307 -0.1753
 7782W        W25306   6.469  11.439  15.583 -0.0067  0.0005 -0.2250
 7783W        W25307  12.560   4.419  11.093 -0.0458 -0.1041 -0.3079
 7784W        W25308   7.225  14.675  13.512 -0.0808  0.1987 -0.3126
 7785W        W25309  15.632  16.492   0.339  0.0775 -0.0846 -0.1211
 7786W        W25310  15.201   1.160  11.490 -0.3994  0.0130 -0.1465
 7787W        W25311  15.523   6.065   3.818 -0.1646  0.2522  0.3658
 7788W        W25312   9.608   6.432   0.638 -0.0243 -0.2501  0.1752
 7789W        W25313   0.963   7.471   2.048 -0.0734  0.0289 -0.0229
 7790W        W25314   3.194  16.079  16.424  0.1646  0.0733 -0.0793
 7791W        W25315   3.988   1.349  13.262 -0.1495  0.1243  0.1941
 7792W        W25316  12.691   7.020   1.727  0.3170  0.1629  0.0541
 7793W        W25317  17.823  11.396  13.902  0.1580 -0.2474  0.3803
 7794W        W25318  13.274  13.990  16.017  0.0347 -0.2538 -0.0189
 7795W        W25319  11.702  11.914   0.325 -0.0866  0.2456  0.1644
 7796W        W25320   3.646   0.479  13.493 -0.1246  0.1897 -0.1138
 7797W        W25321  17.437  12.848  14.306  0.1544 -0.0934 -0.0273
 7798W        W25322   7.798   2.839  12.124 -0.0516 -0.0009  0.0314
 7799W        W25323  12.291   8.693  11.706  0.0617 -0.1217  0.2759
 7800W        W25324  10.272  14.464  15.181  0.2404 -0.1293  0.1118
 7801W        W25325   1.994  17.712  14.239 -0.1460  0.3444 -0.2693
 7802W        W25326  15.336   9.801   3.763 -0.2295 -0.0448 -0.4063
 7803W        W25327   7.712   8.378  14.072  0.2092  0.0686  0.0079
 7804W        W25328   3.114  17.583  12.031  0.0688 -0.1435 -0.0160
 7805W        W25329  12.359  17.027  11.619 -0.1478 -0.1173 -0.0761
 7806W        W25330  11.239   4.113  15.393 -0.0452  0.0875 -0.2818
 7807W        W25331   5.980  16.144  12.738 -0.4306 -0.0621 -0.0275
 7808W        W25332  13.081   9.027   1.732  0.1112 -0.0859  0.0070
 7809W        W25333   5.571  11.037   0.452  0.2487  0.1033 -0.3947
 7810W        W25334  16.174   5.009  11.232  0.0571  0.0754 -0.2461
 7811W        W25335  11.679  11.349  13.838  0.1747  0.3174  0.2619
 7812W        W25336   9.783   8.945   1.658 -0.2916 -0.0556 -0.0216
 7813W        W25337   3.746  12.996  13.922 -0.0802  0.1955 -0.0396
 7814W        W25338  11.927   5.235   0.414 -0.3464 -0.0186 -0.0737
 7815W        W25339  14.062   4.088  13.570 -0.2185 -0.0337  0.3125
 7816W        W25340   6.854   5.178   0.897  0.0509 -0.3278 -0.0775
 7817W        W25341   9.965   5.164   1.233 -0.0407 -0.0735 -0.0591
 7818W        W25342  10.113   0.322  14.256 -0.1205  0.1985  0.3595
 7819W        W25343  17.280  15.364   3.785  0.0342  0.2953  0.0346
 7820W        W25344  10.556  10.092  13.298  0.0365  0.2488  0.0855
 7821W        W25345  17.155  15.984  14.551  0.1014  0.2848  0.0320
 7822W        W25346  12.888   5.223  13.762  0.3117  0.0072  0.1055
 7823W        W25347   0.608   7.035  12.910 -0.2302 -0.1417 -0.0911
 7824W        W25348  13.758  10.188   0.004  0.2585  0.2155  0.1024
 7825W        W25349   6.437  15.169  15.460 -0.0942  0.0152  0.1517
 7826W        W25350   2.276   5.587   1.672 -0.0125 -0.0860 -0.0110
 7827W        W25351  17.298   8.503  16.426 -0.0759 -0.2769  0.0886
 7828W        W25352   0.530   5.031  13.685  0.0397  0.3510  0.0122
 7829W        W25353   0.706   2.522  15.037  0.1251 -0.2411  0.0790
 7830W        W25354  16.875  15.963  12.985 -0.0402  0.1029  0.0704
 7831W        W25355  12.637  14.586   0.608 -0.2981 -0.1687  0.2681
 7832W        W25356   7.360   0.757   0.764 -0.2855  0.0746  0.4113
 7833W        W25357   8.457   5.551   5.584 -0.1161  0.1368 -0.0809
 7834W        W25358   1.760   4.439   3.982 -0.0174 -0.0388  0.0376
 7835W        W25359   3.433   8.726   5.055 -0.0620 -0.4240  0.1809
 7836W        W25360  11.260  11.601  12.978 -0.1814  0.1016 -0.0716
 7837W        W25361  14.208   4.691  15.320 -0.3823  0.2830  0.1393
 7838W        W25362  15.875   2.715   4.405  0.2284  0.1724 -0.0850
 7839W        W25363  16.614   8.646   4.018 -0.0498 -0.0776  0.0908
 7840W        W25364   5.448   4.220   3.833 -0.0803 -0.0204 -0.2269
 7841W        W25365  17.205   1.616   3.163  0.1212 -0.0107  0.0493
 7842W        W25366  17.480   2.682  10.758 -0.1121 -0.1578 -0.0229
 7843W        W25367   2.936   8.410  12.832 -0.1955  0.0308  0.1362
 7844W        W25368   6.474   1.743   1.951  0.0788 -0.0911 -0.0836
 7845W        W25369   9.024   8.469  14.727 -0.2141 -0.3753 -0.1238
 7846W        W25370  10.814  16.841  15.749  0.0997  0.1473 -0.1641
 7847W        W25371  15.985   1.770   2.239  0.1946 -0.2909  0.2908
 7848W        W25372  17.547   7.118   4.259  0.0346 -0.0079  0.1728
 7849W        W25373   2.133  13.265  11.670  0.2989 -0.2449 -0.0557
 7850W        W25374  12.547   8.975  14.601 -0.2435 -0.2112 -0.1538
 7851W        W25375  12.921   2.802   1.123 -0.1211 -0.1640  0.0269
 7852W        W25376  10.628  17.195  16.059 -0.4315 -0.2182  0.1629
 7853W        W25377  14.460  13.831  16.353 -0.1059 -0.1012 -0.2094
 7854W        W25378   4.738   2.551   1.386  0.0674 -0.3131 -0.0019
 7855W        W25379  16.075  10.714  16.275  0.1000  0.0492 -0.1982
 7856W        W25380  12.346   3.755   4.415 -0.1719 -0.3572 -0.0598
 7857W        W25381   6.989   9.761   5.315  0.2131  0.0155  0.0608
 7858W        W25382   1.004  10.400  12.153 -0.3530 -0.1197 -0.2278
 7859W        W25383   4.067  17.410  14.672  0.2947  0.3174 -0.2123
 7860W        W25384  17.561  13.603  15.584 -0.1949  0.1886 -0.1089
 7861W        W25385   8.556   8.127  12.505 -0.3018 -0.0905 -0.1041
 7862W        W25386   5.353   7.661   3.863  0.1359  0.2433 -0.2061
 7863W        W25387   5.185   1.662  10.623 -0.0423  0.1862  0.0665
 7864W        W25388   8.987   6.444  15.986 -0.1267 -0.2486 -0.0320
 7865W        W25389   4.655   8.735  13.189  0.1961  0.0900  0.2295
 7866W        W25390   7.511   7.171   2.537  0.0051  0.0563  0.0377
 7867W        W25391   9.636   8.677  14.010  0.1731 -0.2922  0.1783
 7868W        W25392   4.787  12.797  13.133 -0.1073  0.1620  0.2562
 7869W        W25393  11.828  15.740  12.887 -0.0923 -0.1721 -0.2405
 7870W        W25394   6.814   5.993   0.390 -0.1270  0.1230 -0.0912
 7871W        W25395   0.799  10.270   1.107 -0.0146 -0.1387  0.3471
 7872W        W25396   3.703   6.882  12.688  0.0638 -0.0567 -0.2171
 7873W        W25397  14.015  10.457   4.211 -0.1657 -0.2704 -0.3344
 7874W        W25398  15.028   7.018  15.074  0.3157 -0.0252  0.0069
 7875W        W25399   9.813  16.633  14.623 -0.1506  0.1731 -0.2026
 7876W        W25400  17.177   6.814   3.138 -0.0014 -0.0928 -0.2930
 7877W        W25401  10.748  15.611  12.412  0.1814  0.0097  0.1183
 7878W        W25402   9.572   9.102   2.291  0.1923  0.2954 -0.1251
 7879W        W25403   9.162  13.629  14.865  0.2550  0.2755 -0.1653
 7880W        W25404  16.327   8.262   2.134 -0.1181  0.0025 -0.1337
 7881W        W25405  12.480  14.267  13.307  0.0210 -0.0721 -0.0494
 7882W        W25406   5.704  14.296   1.197  0.0964 -0.1741  0.0964
 7883W        W25407   0.738   4.633  14.886  0.3758 -0.1133  0.3667
 7884W        W25408  10.594   9.178   2.084  0.0561 -0.1554 -0.0055
 7885W        W25409   6.323  13.396   3.754 -0.1436 -0.3878  0.0837
 7886W        W25410  12.649   2.694   3.174 -0.1051  0.1848  0.1592
 7887W        W25411   8.646   1.068  15.986 -0.1003 -0.3636  0.0286
 7888W        W25412   3.641  14.506  14.997 -0.2506  0.0241 -0.1497
 7889W        W25413  15.879   9.345  16.005  0.1176  0.0875 -0.0540
 7890W        W25414  10.028   1.457   5.392  0.0993  0.1209 -0.2374
 7891W        W25415  17.599  12.376  14.342 -0.0345  0.3458 -0.0426
 7892W        W25416   3.347  10.067  15.051  0.2577  0.0914  0.2356
 7893W        W25417   0.875  17.798  12.425 -0.0138 -0.2787 -0.0222
 7894W        W25418   5.074   6.364   1.222  0.5129  0.1829 -0.1588
 7895W        W25419   1.008  13.348   3.630  0.1093  0.0193 -0.2318
 7896W        W25420  16.933  10.539  14.795  0.0961 -0.1560  0.1618
 7897W        W25421  12.474   6.513  10.274  0.2589  0.1238 -0.0247
 7898W        W25422  13.169  17.591  15.482  0.1617 -0.1263 -0.3180
 7899W        W25423  13.784   6.699   0.805  0.0073  0.0677  0.0297
 7900W        W25424   6.891   4.401   2.736  0.1276  0.2870  0.1037
 7901W        W25425  12.295   2.055   1.450  0.2366  0.3374  0.2392
 7902W        W25426  17.358  14.178  12.491 -0.1250 -0.0209  0.0289
 7903W        W25427   9.878   3.071  13.918  0.1295 -0.1069 -0.2695
 7904W        W25428  15.828   8.032  11.473  0.2108 -0.0330 -0.3029
 7905W        W25429  16.719  12.769  14.982  0.0545  0.1162  0.1828
 7906W        W25430  11.045   3.323   1.074  0.0331 -0.1508  0.0104
 7907W        W25431   7.483  14.778  16.382 -0.0177  0.1140  0.4775
 7908W        W25432   1.505  10.009   1.954  0.2483 -0.2301  0.1900
 7909W        W25433  12.550  15.098  12.888 -0.2594 -0.3061  0.0974
 7910W        W25434   4.866  16.978   2.244  0.0030  0.3605  0.0408
 7911W        W25435  10.636  13.536  15.234 -0.1079 -0.3867  0.0264
 7912W        W25436  15.375  13.286   1.950 -0.1013  0.2140 -0.3897
 7913W        W25437  12.331   0.368   2.733 -0.0502  0.1295 -0.3411
 7914W        W25438   5.470  10.115  13.407 -0.0506 -0.0506 -0.0585
 7915W        W25439  15.270  13.546  12.834  0.1346 -0.0444 -0.0263
 7916W        W25440   5.631   9.536   3.387  0.0906 -0.0401 -0.1610
 7917W        W25441   4.973  10.576   4.800  0.0328  0.1628 -0.1688
 7918W        W25442   2.443   3.072  12.718  0.0524  0.4184 -0.1321
 7919W        W25443   3.008  12.115   2.732  0.3185 -0.0338  0.2871
 7920W        W25444  15.397   6.851  16.144  0.0536 -0.0423  0.0997
 7921W        W25445   3.458   1.971   0.036  0.0314  0.0345 -0.1783
 7922W        W25446   4.738   5.366   1.664  0.1060 -0.1039  0.2602
 7923W        W25447  12.447   3.277  16.255 -0.0630  0.1962 -0.2286
 7924W        W25448  11.721  11.858   3.010 -0.0775 -0.1212  0.0454
 7925W        W25449  11.798  13.347   3.187  0.0927 -0.0104  0.0546
 7926W        W25450   1.217  17.026   0.441 -0.0230 -0.2279 -0.3299
 7927W        W25451  16.295   2.791  15.471  0.4806  0.1591 -0.0775
 7928W        W25452   7.683  13.594   1.663  0.2245 -0.3004 -0.1671
 7929W        W25453  17.232   5.473  14.252  0.1161 -0.1477  0.1394
 7930W        W25454  14.403  12.142  15.405  0.3852 -0.0388 -0.1325
 7931W        W25455  12.423   4.220  15.775  0.0161  0.1110  0.1913
 7932W        W25456   0.751   6.282   4.806  0.0881 -0.0591  0.4906
 7933W        W25457  15.036   5.126  13.593  0.1223 -0.0872  0.2799
 7934W        W25458   6.436   2.820   4.115 -0.1214  0.1278  0.2069
 7935W        W25459   5.747   6.306   4.422 -0.0939 -0.2973  0.0098
 7936W        W25460   0.728  12.482  16.087 -0.0256 -0.0569  0.0915
 7937W        W25461  15.116   8.969   4.105 -0.2024  0.2873 -0.0393
 7938W        W25462   1.170   7.791  14.290  0.3273 -0.1660 -0.1544
 7939W        W25463  11.313   4.274  11.686 -0.0088  0.2394 -0.1743
 7940W        W25464  11.107   1.171   1.057  0.0314 -0.5420 -0.0056
 7941W        W25465   3.492   7.962   2.946 -0.2216  0.0833  0.0891
 7942W        W25466  15.759   4.845   0.590 -0.2415  0.3288  0.0397
 7943W        W25467  11.851   6.470   2.616  0.0122 -0.1437 -0.1052
 7944W        W25468  15.480   1.052   3.959 -0.0696  0.0586 -0.2934
 7945W        W25469   5.488   5.025  14.645 -0.1186 -0.2323 -0.0229
 7946W        W25470   1.408  17.295  14.956 -0.0151  0.0235 -0.1954
 7947W        W25471   3.968   0.840  16.024 -0.2261 -0.2403 -0.0872
 7948W        W25472  11.113   6.334   1.319 -0.2198 -0.0780  0.0046
 7949W        W25473   6.985   2.380  12.926 -0.1031 -0.0617 -0.0260
 7950W        W25474   3.845  16.139  15.402 -0.2417 -0.2581  0.2529
 7951W        W25475   2.993   1.000  14.797 -0.0649 -0.0344 -0.0421
 7952W        W25476   6.897  14.176   4.338 -0.2016 -0.1652 -0.1364
 7953W        W25477   8.092   3.291  14.063  0.0344  0.0133  0.1235
 7954W        W25478   8.533  11.761  13.848  0.4031  0.0845  0.0749
 7955W        W25479   4.095   0.801  12.759  0.2834  0.0986  0.1061
 7956W        W25480  17.408   5.461   3.164  0.2812  0.0621  0.0691
 7957W        W25481   8.117  13.886  12.082 -0.1567 -0.0535  0.0217
 7958W        W25482  10.275   3.384   0.389  0.0844  0.3333 -0.1380
 7959W        W25483   2.578  10.198  14.287  0.4004  0.1634 -0.2760
 7960W        W25484  16.337   8.497  15.595 -0.2119  0.2364 -0.1287
 7961W        W25485  10.254   2.061   4.152 -0.0334  0.1756  0.0521
 7962W        W25486  15.250   0.437   0.713 -0.0667  0.0084  0.0470
 7963W        W25487   7.714  16.960   4.495 -0.2245  0.2752  0.0837
 7964W        W25488   7.724   2.806  11.653 -0.2998  0.0840 -0.1540
 7965W        W25489  14.655  17.049   0.117 -0.0150  0.3190  0.1954
 7966W        W25490   4.978   8.662   2.344 -0.2772  0.0399 -0.0478
 7967W        W25491   0.453  16.605   4.309 -0.1471  0.1138 -0.0058
 7968W        W25492   9.794  14.986  16.070  0.0636  0.2888  0.1413
 7969W        W25493   7.689   5.754  14.436 -0.2127  0.1277  0.4899
 7970W        W25494  16.251   2.760   4.094 -0.2539 -0.1755 -0.1830
 7971W        W25495   4.944   7.572   0.299  0.2115 -0.2049  0.1550
 7972W        W25496  15.540  13.748   2.129 -0.1780 -0.0233  0.1991
 7973W        W25497   9.051  14.007  13.644 -0.1278  0.2016 -0.0709
 7974W        W25498   2.528   6.681  16.201 -0.0767 -0.0395 -0.0499
 7975W        W25499  10.326  13.622  12.428  0.0781  0.1908 -0.0979
 7976W        W25500   5.527  12.937   4.713  0.2038 -0.0369  0.0677
 7977W        W25501   0.775  10.142  14.475 -0.1756 -0.0772 -0.0290
 7978W        W25502   9.740   1.639   0.828  0.2850  0.0707  0.0369
 7979W        W25503   2.697   8.578  13.256  0.0043 -0.1294 -0.1399
 7980W        W25504  11.827   6.228   0.321 -0.1222  0.1462  0.0872
 7981W        W25505  17.217  15.678   0.368  0.3678 -0.3167 -0.1701
 7982W        W25506  11.455   7.045   3.227 -0.1825  0.1123 -0.0216
 7983W        W25507  11.777  10.656  12.337  0.1454  0.0133 -0.1641
 7984W        W25508   0.270  10.346  14.619 -0.2363  0.2959  0.0288
 7985W        W25509  14.640  10.169  13.649 -0.0268 -0.1230 -0.2351
 7986W        W25510   8.970  14.785   2.712  0.0695 -0.1290 -0.1801
 7987W        W25511  10.056   0.033  13.517 -0.0185  0.1399 -0.2325
 7988W        W25512   9.061   9.401   3.057  0.0184 -0.1772  0.3320
 7989W        W25513  17.144  14.719   4.857 -0.0591  0.0081 -0.6231
 7990W        W25514  10.617   0.340  11.905  0.2056 -0.4039 -0.0658
 7991W        W25515  14.024   3.724  12.634  0.1618 -0.1299  0.1100
 7992W        W25516  16.733   1.021   0.050 -0.2575 -0.1027 -0.2985
 7993W        W25517  15.375   0.657  13.179 -0.0856  0.1249 -0.2075
 7994W        W25518   6.649  13.108   5.690  0.0488  0.1097 -0.0047
 7995W        W25519  10.909   1.290  10.535  0.1394 -0.1055  0.0202
 7996W        W25520  16.636  13.270  11.939  0.2560  0.1264  0.0281
 7997W        W25521   9.970   7.285   4.812 -0.2336 -0.2115 -0.1207
 7998W        W25522  17.740   9.129   0.093  0.0690 -0.2145 -0.1388
 7999W        W25523  13.075   2.517  12.065 -0.1903  0.2885 -0.3594
 8000W        W25524   4.092  12.293  13.663  0.2714  0.1555  0.1724
 8001W        W25525   5.735   4.812  11.090  0.1219  0.0555  0.0268
 8002W        W25526  17.234  12.128   1.644 -0.1915 -0.0678  0.2316
 8003W        W25527   0.520  11.860   3.456 -0.0130  0.2522  0.3230
 8004W        W25528  13.606   5.071  14.504 -0.2223 -0.0242 -0.0942
 8005W        W25529   4.124  11.679  15.271  0.0357  0.3351 -0.1890
 8006W        W25530  12.658  16.749  15.039  0.1109 -0.0796  0.0333
 8007W        W25531   5.417  10.416  13.770 -0.1184 -0.1838 -0.2465
 8008W        W25532   2.719   0.936  11.526 -0.0069 -0.1382  0.0367
 8009W        W25533  10.335   3.717  16.453  0.1515  0.1010 -0.1780
 8010W        W25534   1.192  13.226   4.629  0.3017 -0.1340 -0.0584
 8011W        W25535   4.894  16.637   4.643 -0.2124 -0.2165  0.0912
 8012W        W25536  15.272   1.579  13.918 -0.1798  0.2139  0.0149
 8013W        W25537  15.259   2.905   2.512 -0.1125  0.0026  0.1208
 8014W        W25538   2.031   5.374   2.860 -0.1400 -0.2132  0.1285
 8015W        W25539  15.202   2.918  10.814  0.0773  0.1949 -0.0669
 8016W        W25540   2.668  17.933  14.808 -0.1729  0.1112  0.2515
 8017W        W25541  17.854   7.678   0.169  0.1926  0.0160  0.1312
 8018W        W25542   0.355  10.073  14.142  0.0071 -0.1140 -0.0622
 8019W        W25543   7.160  15.797  11.317 -0.0186  0.4013  0.1001
 8020W        W25544  17.335   8.228  11.579  0.4591  0.3617  0.2315
 8021W        W25545  17.337  16.435   2.333  0.2295  0.1098 -0.4826
 8022W        W25546   0.687   9.799   0.929 -0.1678  0.0790 -0.0106
 8023W        W25547   5.577  16.023   3.614 -0.2381  0.0624 -0.0209
 8024W        W25548   8.352  10.009  15.517  0.0027  0.0031  0.3257
 8025W        W25549  16.416   9.469   3.473  0.5996  0.3643  0.3203
 8026W        W25550  17.570   4.142   3.695 -0.3575  0.0478  0.0359
 8027W        W25551   1.553  11.574  11.828  0.2343 -0.0341  0.2689
 8028W        W25552   7.967  13.872   3.452  0.0640  0.0695  0.0165
 8029W        W25553   3.851   5.541  12.607  0.2064 -0.0007  0.2871
 8030W        W25554   8.804  10.935   2.545  0.0562  0.3626 -0.2707
 8031W        W25555   1.502   3.744   0.314  0.0039  0.0884 -0.1574
 8032W        W25556   0.299  13.758   3.478 -0.1177  0.0161 -0.0273
 8033W        W25557  11.094   5.905   4.072 -0.2230 -0.0217  0.0313
 8034W        W25558   7.775  11.278  14.313 -0.0689 -0.0255  0.1370
 8035W        W25559  12.066  14.249  14.770  0.0284  0.1436  0.0044
 8036W        W25560   6.330   1.703  15.451  0.1485 -0.0520  0.2820
 8037W        W25561   8.257  12.183  13.838 -0.0547  0.0122 -0.3925
 8038W        W25562   3.942  15.408   1.291 -0.1248 -0.1159 -0.1563
 8039W        W25563   3.680   8.580   1.008 -0.0934 -0.1643  0.1786
 8040W        W25564   8.956   8.906   2.973  0.1600 -0.0700 -0.0753
 8041W        W25565  10.126  13.561  15.319  0.0562  0.1067  0.0697
 8042W        W25566  13.269  11.667  12.420 -0.0427  0.0985 -0.0415
 8043W        W25567  17.433  10.515   1.618  0.1761  0.1746 -0.1600
 8044W        W25568   2.463   1.497  14.307  0.1791 -0.2320  0.1733
 8045W        W25569  11.022   6.692  12.527  0.0339 -0.0589  0.1314
 8046W        W25570   9.313   5.977  13.397 -0.1673 -0.2404 -0.0381
 8047W        W25571   4.232  12.432   4.729  0.2296  0.1880 -0.2616
 8048W        W25572  13.642  13.799   4.608 -0.0911  0.1555  0.2177
 8049W        W25573   7.318  14.443   2.020 -0.0542  0.2230 -0.1089
 8050W        W25574   6.958  14.982   0.580  0.1588 -0.0879  0.0130
 8051W        W25575   3.460  17.672  13.021 -0.0047 -0.0268  0.0149
 8052W        W25576  10.757  17.321   1.394 -0.0372  0.2068 -0.3619
 8053W        W25577  14.718  15.337  15.043 -0.0797  0.1142  0.0804
 8054W        W25578  17.285   8.386   3.567  0.0232 -0.2841  0.0343
 8055W        W25579   8.978   0.754  14.963 -0.1189  0.1193  0.3390
 8056W        W25580   8.507   5.627  16.175  0.0270 -0.1452  0.1286
 8057W        W25581   6.284   2.398   2.818  0.0028  0.0181 -0.3656
 8058W        W25582   9.072   5.262  11.677 -0.2127 -0.2470  0.2072
 8059W        W25583   8.042   4.724  12.859 -0.1547  0.0456  0.0630
 8060W        W25584  11.704  11.090   1.069 -0.2006 -0.1721 -0.0836
 8061W        W25585   5.573   5.576   1.328 -0.1205  0.1804 -0.1371
 8062W        W25586   4.190  10.023  14.430 -0.1786  0.0667  0.3049
 8063W        W25587   2.536  17.552   4.150 -0.5060 -0.0500  0.0212
 8064W        W25588   3.022   3.687  14.936  0.0748  0.2677  0.2517
 8065W        W25589   9.298  17.292  11.613 -0.0213  0.1419 -0.1846
 8066W        W25590   2.751   1.865  14.993 -0.0082 -0.1344  0.0164
 8067W        W25591  13.772  16.137   3.780  0.1685 -0.1771 -0.4110
 8068W        W25592   1.668   1.495  12.327 -0.2483  0.0348  0.2507
 8069W        W25593   8.821  15.488  15.786 -0.3644  0.2990 -0.0818
 8070W        W25594   7.626   6.286  15.859  0.1235  0.3015  0.4327
 8071W        W25595   4.561  14.483  14.549  0.2142  0.0608  0.1370
 8072W        W25596   5.176  16.662   0.287  0.1619  0.2483 -0.0345
 8073W        W25597  12.717  16.087  11.939  0.0393 -0.0923 -0.1779
 8074W        W25598   2.753   7.805   1.176 -0.1373 -0.0169 -0.0490
 8075W        W25599  16.906  11.276  12.448 -0.0176  0.3005 -0.0204
 8076W        W25600   6.601  11.390   1.768 -0.0314 -0.1558  0.2110
 8077W        W25601   9.911   5.492  12.054 -0.1269 -0.1798  0.0967
 8078W        W25602  10.823   2.507  11.436  0.0540 -0.5205  0.2174
 8079W        W25603   9.760   1.884  16.274 -0.2109  0.4944  0.2337
 8080W        W25604   8.114   5.961  15.976  0.1112 -0.2740 -0.0081
 8081W        W25605  16.686   3.562   2.993 -0.0574 -0.1104  0.3145
 8082W        W25606  16.853  13.224  15.823  0.2543 -0.3223 -0.2362
 8083W        W25607   5.542  11.405  14.912  0.0755 -0.0232 -0.2490
 8084W        W25608  16.257  14.967  12.089  0.1927 -0.0184 -0.2279
 8085W        W25609  15.459  11.227   2.510 -0.0246  0.1385  0.0039
 8086W        W25610   3.288  13.887   3.623 -0.0536 -0.4613 -0.0702
 8087W        W25611   5.270   1.641  15.643  0.1845 -0.1015  0.2454
 8088W        W25612   1.814  12.406   4.830  0.1090  0.2813 -0.2223
 8089W        W25613   6.541  12.848   1.923  0.0427  0.0444  0.1524
 8090W        W25614  12.873   4.473   3.866  0.0531  0.0502  0.2165
 8091W        W25615   8.498   3.433   4.802 -0.0852  0.0764 -0.1988
 8092W        W25616  17.280  12.152  14.815 -0.1210 -0.1540 -0.2717
 8093W        W25617  16.731  17.146   2.432  0.0138  0.1416  0.1460
 8094W        W25618   9.564  10.764   0.624 -0.0418 -0.2669  0.3057
 8095W        W25619   6.403  13.445  12.027 -0.0369  0.3316  0.0819
 8096W        W25620  14.581   6.984   2.126  0.0545 -0.1284  0.0425
 8097W        W25621  16.425  16.356   1.133  0.2632 -0.1865 -0.1407
 8098W        W25622   2.908  14.242  14.079  0.0177 -0.0043  0.1667
 8099W        W25623   2.704  12.669   0.300 -0.0209 -0.2394  0.1106
 8100W        W25624   5.932   7.580  16.214  0.3385 -0.2918 -0.0047
 8101W        W25625   6.849   1.220   4.798  0.1975 -0.1029 -0.0277
 8102W        W25626   6.233   0.783   1.970  0.1519 -0.1168  0.3749
 8103W        W25627   5.990   3.882  12.695  0.0731  0.1501  0.1112
 8104W        W25628  15.109  11.293   1.309 -0.1543 -0.1042 -0.1315
 8105W        W25629  10.555   4.808   0.204  0.0698 -0.0524  0.1566
 8106W        W25630  12.431   3.498   1.542  0.1732  0.0393  0.0558
 8107W        W25631   5.041   3.704  12.758 -0.0105  0.1869 -0.0247
 8108W        W25632  12.164   8.349  15.222 -0.1042 -0.1450  0.1958
 8109W        W25633   6.055   1.949  14.690 -0.2093  0.1159  0.1703
 8110W        W25634  10.787  16.819   2.039 -0.2718 -0.2074  0.3378
 8111W        W25635  16.242  12.885   2.113 -0.0508 -0.1457 -0.0434
 8112W        W25636   5.300  14.870  15.085  0.0408 -0.0336  0.0469
 8113W        W25637  16.543  10.705   4.708  0.0411  0.2762 -0.0533
 8114W        W25638   9.908   9.344  12.145  0.1393  0.1977  0.0542
 8115W        W25639   8.617  13.371   3.566 -0.1482  0.1741  0.2591
 8116W        W25640   1.598  10.790   1.903  0.0699  0.0872  0.1451
 8117W        W25641  10.999   7.040   3.153  0.0417 -0.1098 -0.0133
 8118W        W25642  13.967   3.821   1.000  0.3408  0.0237  0.1735
 8119W        W25643  13.344   6.618   3.585  0.1630 -0.2408 -0.1031
 8120W        W25644   2.779  15.143   1.411 -0.3010 -0.1299  0.0402
 8121W        W25645   0.545   0.969   3.235 -0.0372 -0.0786 -0.1737
 8122W        W25646   3.095  12.039  15.123 -0.2912 -0.2162 -0.0480
 8123W        W25647  14.879   3.594  15.739  0.2084  0.1566 -0.0497
 8124W        W25648  14.102  14.090   2.957 -0.0593 -0.0581 -0.2011
 8125W        W25649  14.477  14.546   5.138 -0.1519  0.1185 -0.0171
 8126W        W25650   9.941  13.105   0.373 -0.0141 -0.3663  0.1084
 8127W        W25651   3.418   8.460  15.748  0.2516  0.3256 -0.0388
 8128W        W25652   5.395  10.638   5.185 -0.1511 -0.2712  0.1598
 8129W        W25653   8.311   8.433   1.550 -0.1890  0.2267 -0.1123
 8130W        W25654   8.265   2.266   1.091 -0.2344 -0.2575 -0.0703
 8131W        W25655   5.404  17.706  16.264  0.1150 -0.0392 -0.1950
 8132W        W25656   1.641   8.144   2.602  0.2901 -0.1646  0.0275
 8133W        W25657  17.947  14.939  15.242 -0.2340 -0.0245  0.2100
 8134W        W25658   2.405   7.004  15.702  0.1403  0.0136 -0.1221
 8135W        W25659   0.439  15.841   0.141  0.2202  0.0711 -0.1796
 8136W        W25660  10.595   7.405  12.883 -0.0590 -0.0845 -0.1647
 8137W        W25661  15.999  12.482   4.167  0.0362 -0.1327 -0.1589
 8138W        W25662   2.933   0.190   4.522  0.0962 -0.2027  0.1146
 8139W        W25663  16.507  13.542  16.438 -0.0076  0.0226  0.0816
 8140W        W25664  15.425  15.653   0.567 -0.1726 -0.0467  0.1192
 8141W        W25665   9.925   0.988   2.539 -0.2425 -0.0250  0.1396
 8142W        W25666   7.716  17.288   1.191 -0.0731 -0.2577 -0.2026
 8143W        W25667   4.499   1.821   0.954  0.1502 -0.1236 -0.0872
 8144W        W25668  15.639  12.743  15.850 -0.2269  0.0388  0.0538
 8145W        W25669   3.993   8.331   1.807  0.2898 -0.0616 -0.2825
 8146W        W25670   8.159   5.274  16.268 -0.1247  0.1102 -0.0030
 8147W        W25671  16.597   5.680  14.391 -0.0521  0.1025 -0.0875
 8148W        W25672   7.861  15.394  15.523  0.1403  0.5661 -0.0495
 8149W        W25673   6.698   6.175   2.854  0.1206 -0.4088 -0.1173
 8150W        W25674   6.775  15.753  15.041 -0.3656  0.2891 -0.1547
 8151W        W25675   9.806   1.166  14.939 -0.0473  0.2479  0.0179
 8152W        W25676  16.426  13.306   3.192 -0.3256  0.0733  0.0643
 8153W        W25677   1.877  11.349   0.187  0.4932 -0.0967  0.1391
 8154W        W25678   9.063  13.088   1.720  0.0614  0.0673 -0.1849
 8155W        W25679  14.970  17.952   3.922  0.0217 -0.1809 -0.1647
 8156W        W25680   7.529  14.026   0.437  0.0399  0.0246  0.1076
 8157W        W25681   4.073  11.055   3.965 -0.0300  0.0438  0.0775
 8158W        W25682   7.583  11.801   1.535  0.0973  0.0716  0.0176
 8159W        W25683  12.936  14.049  12.815  0.1483 -0.0053 -0.3137
 8160W        W25684   7.886  14.477  12.475 -0.0316  0.0647  0.1614
 8161W        W25685   9.635  10.806   1.954  0.1553  0.4850  0.4070
 8162W        W25686   6.947   9.197  13.036  0.0267  0.2873  0.1961
 8163W        W25687   4.790   8.670   3.364  0.2461 -0.1478  0.0214
 8164W        W25688  16.101   0.288   3.160  0.0027  0.0219 -0.1235
 8165W        W25689   9.128   3.858   3.505 -0.2297  0.3927  0.0958
 8166W        W25690   3.253  16.449   4.055  0.3053  0.2534  0.1254
 8167W        W25691  12.540   5.732   0.975  0.0580 -0.0820 -0.0125
 8168W        W25692   4.348  16.587   0.508 -0.1350 -0.1276  0.0511
 8169W        W25693  14.305   1.667  12.133 -0.1237  0.0693 -0.1840
 8170W        W25694   2.639   3.436   0.565  0.0471 -0.1730  0.1988
 8171W        W25695   2.074   5.616   3.764  0.0398 -0.1801 -0.0190
 8172W        W25696   4.692   3.057   1.267  0.1438 -0.0494  0.4016
 8173W        W25697   5.644   5.103  15.857  0.0437 -0.1095 -0.0008
 8174W        W25698   1.544   5.699  11.237 -0.2650  0.0879  0.1599
 8175W        W25699   1.000  10.069   2.446 -0.0008 -0.0946 -0.0916
 8176W        W25700   2.890   8.986  14.458  0.0101 -0.1254  0.1736
 8177W        W25701  16.929  15.133  16.303 -0.1297  0.1176  0.4876
 8178W        W25702  14.815  10.624   3.577  0.1367  0.1247 -0.1076
 8179W        W25703  11.751   6.717  12.530  0.0397 -0.2519 -0.0703
 8180W        W25704  14.493   0.009   1.255 -0.3147  0.1564  0.0283
 8181W        W25705  11.250   3.529   2.531  0.1617  0.1094  0.4442
 8182W        W25706   2.756   8.909   3.402 -0.1627  0.2768 -0.2041
 8183W        W25707  17.471   3.800   1.906 -0.2525 -0.0189  0.1662
 8184W        W25708  14.906  13.757   1.117  0.1962 -0.0903  0.0102
 8185W        W25709   5.911  11.168   4.606  0.2148 -0.3502 -0.2490
 8186W        W25710   1.918   1.798  12.011  0.0514 -0.3462 -0.0147
 8187W        W25711  12.079   0.907   1.381  0.3020  0.2623 -0.0933
 8188W        W25712  15.139   5.804   2.370 -0.0015 -0.1202 -0.2247
 8189W        W25713  13.896  17.627  13.941 -0.2416 -0.0441  0.2846
 8190W        W25714   9.285   8.349   0.255  0.0700 -0.0702  0.1547
 8191W        W25715   2.755   0.702   2.065 -0.1339  0.1248 -0.1075
 8192W        W25716  12.109  17.313   1.597  0.2466 -0.1078 -0.1258
 8193W        W25717   3.527  16.022  13.651  0.0997  0.0716  0.0437
 8194W        W25718   9.619   7.134  11.501  0.1123  0.2763 -0.1943
 8195W        W25719  13.337  10.505   2.073 -0.2673 -0.0985  0.0190
 8196W        W25720   8.756   0.090   0.680  0.0998  0.0751 -0.1026
 8197W        W25721  15.950  11.161  13.984  0.1767  0.2157  0.2691
 8198W        W25722   7.442  16.074  11.703  0.3328 -0.2510  0.2231
 8199W        W25723  15.396  15.220   1.111 -0.1243 -0.0335 -0.0511
 8200W        W25724   7.383  13.404  13.541 -0.0369 -0.1256 -0.0856
 8201W        W25725  13.290   5.806   0.666  0.1589 -0.2007  0.2391
 8202W        W25726   7.278   3.377   4.625 -0.2310  0.1739 -0.2578
 8203W        W25727  15.944   1.341   0.828  0.1809 -0.0173  0.0807
 8204W        W25728   2.976   4.375   2.360 -0.2142  0.1786 -0.1161
 8205W        W25729  13.754   5.633   2.233  0.1941 -0.1843  0.0151
 8206W        W25730  17.729  13.949  15.224 -0.1148 -0.0092  0.1642
 8207W        W25731   4.425   1.666  15.392 -0.1188 -0.0992 -0.0415
 8208W        W25732   1.257   2.197   2.369  0.1826  0.0349  0.0510
 8209W        W25733  17.331  14.887  12.284  0.2028 -0.0917  0.0397
 8210W        W25734   7.895   5.911  13.219  0.2174  0.1856 -0.0144
 8211W        W25735   2.799   6.449  11.566 -0.0264 -0.1423 -0.3269
 8212W        W25736   0.678   1.702   3.866 -0.0577 -0.1174  0.1894
 8213W        W25737   5.551  11.146   1.922 -0.1056 -0.0123 -0.0179
 8214W        W25738   8.518   3.264  14.448  0.3560  0.0055  0.1116
 8215W        W25739  16.930   0.897  15.610  0.1901  0.0792  0.0562
 8216W        W25740  10.201  15.354   1.311  0.0843  0.2821 -0.0303
 8217W        W25741   9.380   3.821  14.203 -0.1476 -0.0476 -0.0811
 8218W        W25742  17.324   0.800  13.429 -0.0073 -0.0736  0.0034
 8219W        W25743  16.281  12.684   3.156  0.0944  0.0274 -0.0392
 8220W        W25744   9.522   9.752   4.424 -0.0358 -0.3988  0.0103
 8221W        W25745  14.229  17.737  14.258 -0.1053  0.3555  0.0035
 8222W        W25746  11.204   3.146   1.537  0.0058 -0.1056 -0.1076
 8223W        W25747   3.837   9.773   4.760  0.0964 -0.3476  0.1222
 8224W        W25748   3.165   0.353  13.501  0.0173 -0.0559 -0.1779
 8225W        W25749   8.024  12.366   1.936  0.2059  0.1474 -0.2631
 8226W        W25750  17.397   4.069  16.351  0.1226 -0.2452  0.0916
 8227W        W25751  13.403   4.194  11.422 -0.2333 -0.0666 -0.2853
 8228W        W25752  12.155  14.327   0.353 -0.1470  0.2545  0.0124
 8229W        W25753   1.579  10.588  12.770  0.1391 -0.0189 -0.1161
 8230W        W25754  15.302  10.623   3.712  0.0084  0.2637 -0.1493
 8231W        W25755  12.631   9.406  10.298  0.0738  0.0458 -0.0258
 8232W        W25756  11.580   2.884  16.364  0.0419 -0.1421 -0.0401
 8233W        W25757   3.279  14.714   3.461 -0.1248  0.0334 -0.1196
 8234W        W25758  17.785  16.708   0.607 -0.1080 -0.3057 -0.1092
 8235W        W25759  16.418  14.721   4.332 -0.0585  0.0797  0.0596
 8236W        W25760   1.799   0.557  14.897  0.0176 -0.1793 -0.0580
 8237W        W25761  16.864   5.315   4.964  0.1295  0.1260 -0.1309
 8238W        W25762  16.917   7.916   1.853 -0.0613 -0.2284 -0.1524
 8239W        W25763  16.643   1.069   1.376  0.2927  0.0213 -0.2299
 8240W        W25764  17.313  13.945   1.987  0.3450  0.1726  0.0065
 8241W        W25765   6.890   0.399   3.361  0.0147 -0.3095  0.0663
 8242W        W25766   8.168   5.472   2.671 -0.0624 -0.0546 -0.1734
 8243W        W25767  11.316  14.918   1.380  0.2089  0.2318 -0.2674
 8244W        W25768  10.313  12.356  12.848 -0.0067  0.0739 -0.1829
 8245W        W25769  12.879   9.771  13.863  0.0297  0.0641  0.0155
 8246W        W25770   7.762   6.992  15.540 -0.0361 -0.1226 -0.0612
 8247W        W25771   0.174   9.394   5.172  0.0668 -0.0376  0.4359
 8248W        W25772   9.111  13.767   2.647  0.1686  0.5454 -0.1222
 8249W        W25773   8.233  15.357  14.291  0.0208  0.1074 -0.0775
 8250W        W25774  12.022   2.252   1.830  0.2092 -0.1375  0.1866
 8251W        W25775   2.003  10.562  12.414 -0.1915 -0.3468  0.0996
 8252W        W25776  10.558   0.417  14.112 -0.1505 -0.1019 -0.1743
 8253W        W25777  16.422   7.460   1.787  0.2313 -0.1876  0.1104
 8254W        W25778  12.756  11.583  12.696 -0.0675  0.0242  0.2482
 8255W        W25779   4.417  12.502   2.334  0.0570 -0.0895 -0.2240
 8256W        W25780   9.196   1.016   4.210 -0.0108  0.1306 -0.0025
 8257W        W25781  10.188   2.838  10.245 -0.0129  0.0413  0.2015
 8258W        W25782   3.037  13.192  12.779 -0.1551  0.0462 -0.2654
 8259W        W25783   2.406  14.707  15.535  0.0414  0.1876  0.2264
 8260W        W25784   6.322  13.323   1.979 -0.1131 -0.0340 -0.0344
 8261W        W25785  10.421   8.829   4.246  0.1778  0.0794 -0.2344
 8262W        W25786  12.267  17.670  15.949  0.0072  0.0067 -0.1162
 8263W        W25787   2.384   9.476  11.637 -0.0016 -0.1353  0.0763
 8264W        W25788  10.088   2.664   4.391  0.2249 -0.4427 -0.0203
 8265W        W25789  16.930   7.867  14.095 -0.3393  0.2799  0.1151
 8266W        W25790  14.001   9.020  13.356  0.0201 -0.1981  0.0123
 8267W        W25791  14.848  16.836  12.613 -0.3491 -0.3336  0.0339
 8268W        W25792   6.012  12.736   0.630 -0.1293  0.2389  0.0276
 8269W        W25793   4.328   6.385   3.480  0.0191  0.0576  0.1980
 8270W        W25794   0.546  16.675   3.650  0.0296  0.2835 -0.0516
 8271W        W25795  17.725  10.432  14.815 -0.2016 -0.0659  0.2326
 8272W        W25796   1.138   5.999   4.699 -0.1913 -0.1346 -0.0006
 8273W        W25797   8.021   9.117  12.258 -0.0153 -0.2362  0.2003
 8274W        W25798   7.667   7.588  13.750  0.1390  0.0258 -0.0015
 8275W        W25799  14.464   0.732   5.104 -0.2298  0.2646 -0.0470
 8276W        W25800  17.392   8.070  11.062 -0.0402  0.0831 -0.0829
 8277W        W25801  16.693   2.340  15.589 -0.0373  0.2819 -0.2258
 8278W        W25802   6.296   5.080   4.094 -0.1148 -0.2381  0.0717
 8279W        W25803   4.478   0.645   1.784  0.0238 -0.0258 -0.1956
 8280W        W25804   0.908   6.238  10.790 -0.0071  0.0379 -0.2958
 8281W        W25805  15.548   6.173  15.133  0.0524 -0.1568  0.1122
 8282W        W25806  10.654   7.099   0.296  0.4765 -0.2702  0.1200
 8283W        W25807  11.254   9.267   4.412  0.0218  0.2523 -0.0512
 8284W        W25808   4.710  11.752   4.623  0.1256 -0.1298 -0.1375
 8285W        W25809   9.687   6.558  12.734  0.1934  0.0024 -0.2304
 8286W        W25810  10.661  13.019   4.332 -0.0160 -0.3207 -0.2540
 8287W        W25811   6.999   9.456  14.240 -0.1948  0.1298 -0.1119
 8288W        W25812   2.335  17.564  15.441  0.1585 -0.0420 -0.0025
 8289W        W25813   9.580  14.396  15.129 -0.3210 -0.0512 -0.3005
 8290W        W25814  13.546  13.142  11.800  0.0030 -0.0079 -0.2484
 8291W        W25815  15.904  13.817   4.401 -0.2453  0.3803 -0.0324
 8292W        W25816   8.800   2.894  12.438 -0.1393 -0.1669  0.1460
 8293W        W25817   9.071  16.373  13.390  0.0274  0.0340  0.2113
 8294W        W25818  13.836   9.486  12.497 -0.1816 -0.0104  0.3148
 8295W        W25819   3.862  11.358  15.537  0.1135 -0.1758 -0.1526
 8296W        W25820  15.443   7.363  16.265  0.1228  0.2250 -0.0707
 8297W        W25821  14.967   5.300   2.287 -0.3355  0.0743  0.1272
 8298W        W25822  16.529  15.325   0.780 -0.1090 -0.2165 -0.1433
 8299W        W25823   7.536  16.433  12.700 -0.3350 -0.1212  0.1981
 8300W        W25824  12.916  17.038   1.625  0.3390  0.0376 -0.0444
 8301W        W25825   0.637  17.199  12.887  0.3126 -0.0391 -0.1221
 8302W        W25826  17.555   9.935  14.907  0.1453 -0.0284  0.0074
 8303W        W25827   6.597  15.950   0.760  0.0901  0.4087  0.0525
 8304W        W25828  11.134   0.731   0.350 -0.0424 -0.4991 -0.1878
 8305W        W25829  17.470   4.531  12.431  0.2877 -0.1707 -0.1775
 8306W        W25830  14.177  12.239   0.420 -0.0188  0.0235 -0.0770
 8307W        W25831  15.737   9.136  12.721  0.2018 -0.1793 -0.2482
 8308W        W25832   6.033   1.992   1.262  0.1535 -0.1175  0.0498
 8309W        W25833   7.323   9.733  14.577  0.0454 -0.1365 -0.2286
 8310W        W25834   6.269   4.054  13.663 -0.0878  0.0630  0.2142
 8311W        W25835  14.292  15.905   3.177 -0.0235  0.1146 -0.1963
 8312W        W25836   2.769   1.916   2.809  0.2242 -0.0995 -0.1992
 8313W        W25837   7.151  11.322  15.784 -0.2414  0.0327  0.1333
 8314W        W25838   8.593  12.291  11.058 -0.2884  0.0176  0.0536
 8315W        W25839  15.512  13.717   3.528  0.2105  0.1294  0.0033
 8316W        W25840  15.085  15.565  12.934 -0.1835 -0.3687 -0.0595
 8317W        W25841   0.573   1.437  16.452 -0.1099 -0.2478 -0.1965
 8318W        W25842   7.614   2.291  14.405  0.0369 -0.2585 -0.0868
 8319W        W25843   7.126  16.604   4.446  0.1093 -0.0001 -0.1644
 8320W        W25844   6.890  15.111  14.332  0.1017 -0.0836  0.0432
 8321W        W25845   8.569   8.043   2.457 -0.1913  0.0411  0.1980
 8322W        W25846   3.970  16.389   0.304  0.3181  0.1633  0.1339
 8323W        W25847  16.770   3.086   2.835  0.0115 -0.2496  0.3182
 8324W        W25848   2.121  13.909   2.762  0.0633 -0.0150 -0.2436
 8325W        W25849   9.406   4.958  11.405 -0.2439  0.0809 -0.0905
 8326W        W25850  10.859  11.489   0.820  0.1029  0.2463  0.2066
 8327W        W25851   4.097  16.322   4.633 -0.3498  0.1994 -0.1764
 8328W        W25852   5.301   6.807   0.482  0.0732 -0.0405 -0.0148
 8329W        W25853  15.947   1.193  15.175  0.1301  0.2720 -0.0087
 8330W        W25854  13.871   3.755   3.698  0.2374  0.3336  0.4193
 8331W        W25855  10.073  12.092  13.600 -0.3865 -0.0013 -0.1867
 8332W        W25856   2.827  16.972  12.652  0.0475 -0.0853 -0.1435
 8333W        W25857   0.712  12.123   4.309 -0.2347  0.1552  0.4050
 8334W        W25858   3.886  11.833  12.418 -0.3024 -0.0455  0.0147
 8335W        W25859   8.171   2.297  15.844  0.3752  0.1164  0.0923
 8336W        W25860   3.680   2.747   3.698 -0.0609 -0.0639 -0.0571
 8337W        W25861  14.508   8.815  15.066  0.2014 -0.1586  0.2267
 8338W        W25862   3.984   8.627  15.798 -0.2831 -0.0736 -0.0228
 8339W        W25863   2.597  14.959   5.009 -0.1736 -0.0939 -0.0924
 8340W        W25864  16.387  14.053  15.142  0.3665 -0.3142 -0.0388
 8341W        W25865  12.664   2.844  14.151  0.0047  0.2815  0.0077
 8342W        W25866   0.878   8.534  13.870  0.4255  0.2500  0.0239
 8343W        W25867   4.117   5.831  15.223 -0.1797 -0.1610  0.1741
 8344W        W25868  15.256   7.328   2.341 -0.0648 -0.1231  0.0211
 8345W        W25869  15.750   8.429  15.448  0.0972  0.0155  0.0058
 8346W        W25870   3.367   1.614  16.053  0.0551  0.1765  0.1160
 8347W        W25871  11.653  15.749   5.467 -0.0437  0.1733  0.1577
 8348W        W25872  17.313   0.415  13.793  0.0565  0.0168  0.0753
 8349W        W25873   2.845  10.071  15.147  0.1494  0.3828  0.0022
 8350W        W25874   2.690   6.821  15.317 -0.2588  0.3087 -0.2249
 8351W        W25875   5.972   9.860  12.066 -0.2029  0.2262 -0.2361
 8352W        W25876   4.485  11.290   0.996  0.0240 -0.0993 -0.3695
 8353W        W25877   5.505   7.053   3.249  0.0379  0.0070  0.2471
 8354W        W25878   5.150   1.208   2.450 -0.3193 -0.2651  0.0024
 8355W        W25879   1.392  15.964   5.217 -0.1930  0.2304 -0.0827
 8356W        W25880  12.363   0.062   0.372 -0.0248  0.1188  0.0538
 8357W        W25881   3.889   9.210  11.351  0.0470  0.3924  0.2697
 8358W        W25882  13.867  11.432  13.859  0.0901  0.2460 -0.0764
 8359W        W25883  17.724   6.664  11.871  0.0525  0.2421  0.0309
 8360W        W25884   7.349  11.011  12.145  0.2144  0.3408 -0.1040
 8361W        W25885   9.162   7.844   4.430  0.1005 -0.0618  0.2813
 8362W        W25886  10.759   0.885  13.230 -0.4051  0.0571  0.4784
 8363W        W25887   4.802   9.724   5.870 -0.1136 -0.0562 -0.0224
 8364W        W25888   7.394  17.513   2.396 -0.0949  0.1549 -0.0883
 8365W        W25889  16.888  17.326  15.797  0.0676 -0.0470 -0.0172
 8366W        W25890  15.919  16.484   4.225 -0.0825 -0.1181 -0.0385
 8367W        W25891  11.102   6.365  15.065 -0.2920  0.1617  0.1031
 8368W        W25892   3.363  17.828   2.677 -0.0512 -0.1356  0.1501
 8369W        W25893   3.650   5.017  13.473  0.2598 -0.1773  0.0460
 8370W        W25894   9.107  15.910   0.193  0.1057  0.1522  0.4080
 8371W        W25895   9.042   6.582   5.503  0.0594 -0.0758 -0.0056
 8372W        W25896   2.269   2.780  15.147 -0.2216  0.1473 -0.1719
 8373W        W25897  14.201  15.296   1.079  0.2961 -0.3839 -0.1294
 8374W        W25898   0.587   1.489  14.421 -0.1922  0.1760 -0.0549
 8375W        W25899   4.118   5.270  14.842  0.1798 -0.0324  0.0380
 8376W        W25900   2.401   3.062   4.148  0.1715  0.0414  0.0742
 8377W        W25901  16.935   2.396   0.359 -0.1165  0.0997  0.0401
 8378W        W25902  13.991  14.945   0.819 -0.1211  0.1300  0.0699
 8379W        W25903   3.348   9.907   4.584 -0.1321 -0.3233 -0.0778
 8380W        W25904  15.946  12.479  16.398  0.2990 -0.0440  0.0365
 8381W        W25905   7.676   5.366   3.455 -0.1079 -0.1153  0.2570
 8382W        W25906   3.316   9.658  12.718  0.1044  0.1047  0.1477
 8383W        W25907   6.506   9.602  14.076 -0.3248  0.0586 -0.0212
 8384W        W25908   9.898  17.342  12.170  0.2600 -0.0572  0.1109
 8385W        W25909   6.782  16.231  14.658 -0.2569  0.2169  0.0662
 8386W        W25910  16.332   1.999  12.603 -0.0073 -0.1723  0.0406
 8387W        W25911  14.237  11.892   3.000  0.3779  0.1458  0.0735
 8388W        W25912   4.613   8.812   0.314 -0.0142 -0.2759 -0.2570
 8389W        W25913  10.067   1.145  11.490  0.1030 -0.0034  0.0887
 8390W        W25914   2.316  11.438   2.637  0.0054 -0.2000  0.1223
 8391W        W25915  14.656   3.896  10.986 -0.1502 -0.1852 -0.1268
 8392W        W25916  16.774  16.630  14.503  0.2680 -0.3238  0.0252
 8393W        W25917  12.783   5.758  13.549  0.1120 -0.1515  0.0692
 8394W        W25918  17.128   2.796   4.573 -0.2249  0.0890 -0.0543
 8395W        W25919  15.538   1.058   1.181  0.0141 -0.0270  0.0891
 8396W        W25920   0.581   1.662   4.342  0.2194  0.2626 -0.0396
 8397W        W25921   7.344   0.553   3.258 -0.2602 -0.4181  0.1088
 8398W        W25922   7.112  12.697   3.068 -0.1543 -0.0785  0.0389
 8399W        W25923  12.596  11.730  14.468 -0.0869 -0.0916  0.1568
 8400W        W25924  17.747   4.354   2.651 -0.1612  0.0175  0.1515
 8401W        W25925  17.515  11.738   1.354 -0.0337 -0.0846  0.0444
 8402W        W25926   9.834  10.349   4.840  0.0137 -0.0949 -0.2374
 8403W        W25927  15.425   7.471   3.742 -0.1601  0.2093  0.0658
 8404W        W25928   3.606   0.906  12.826 -0.1288 -0.0145  0.0003
 8405W        W25929   4.612   0.729   2.318 -0.2156 -0.0297 -0.0927
 8406W        W25930   8.758  13.389  13.169  0.3439  0.0709  0.1492
 8407W        W25931  16.850  14.954   1.583 -0.3562 -0.2112 -0.0668
 8408W        W25932   0.131  11.653   0.166  0.1317 -0.0505  0.0663
 8409W        W25933  15.929  16.281  15.519 -0.0111  0.0249 -0.3334
 8410W        W25934   5.985   6.519   1.078 -0.0392 -0.2271  0.2845
 8411W        W25935  15.142   2.443   2.345  0.0103  0.1683  0.2268
 8412W        W25936   5.013  13.949  13.242  0.3436  0.1944  0.1734
 8413W        W25937  12.880   5.118   3.001  0.1388 -0.1287  0.0885
 8414W        W25938  15.852   8.994   0.790 -0.1421 -0.2983 -0.1326
 8415W        W25939  17.969   1.889   4.302 -0.0900  0.0050  0.1339
 8416W        W25940  14.716  14.135   3.056 -0.0062 -0.3802  0.2434
 8417W        W25941   3.785   8.817  12.360  0.0284 -0.1865 -0.3654
 8418W        W25942   1.477  10.320  12.372 -0.1817  0.0281  0.3342
 8419W        W25943  17.149  17.464   3.937 -0.3258 -0.1204  0.0378
 8420W        W25944   6.620   2.335   4.014 -0.0259  0.1916 -0.2192
 8421W        W25945   2.577  16.004   3.043  0.0654  0.0206 -0.1894
 8422W        W25946   9.205   7.917  15.966 -0.3194 -0.2073  0.1617
 8423W        W25947   4.712  15.351  12.169 -0.0512  0.0036  0.0349
 8424W        W25948   4.312   8.342   3.295  0.1628 -0.0220  0.1080
 8425W        W25949   0.264   9.820   4.088  0.0127 -0.3342 -0.0162
 8426W        W25950  13.247   4.652   4.347  0.0471 -0.0629  0.1490
 8427W        W25951  15.105  16.203   5.989 -0.1355  0.1071 -0.2316
 8428W        W25952   4.810  11.144  15.779 -0.3413  0.1446 -0.0358
 8429W        W25953   3.408  11.147   1.731 -0.3208  0.2720 -0.0215
 8430W        W25954  17.835   9.008  13.530  0.0662 -0.0290 -0.0750
 8431W        W25955  14.865   1.506  14.717  0.0676  0.1594  0.2172
 8432W        W25956  17.399   6.236   4.791  0.1376 -0.0698 -0.0413
 8433W        W25957   4.828   0.130  13.752 -0.1922  0.0588  0.0310
 8434W        W25958   8.835   6.348  14.952 -0.1614 -0.1800  0.0732
 8435W        W25959  10.713   7.467  16.252 -0.0704  0.0742 -0.3199
 8436W        W25960   6.683   7.458  14.280  0.2743 -0.0962  0.1847
 8437W        W25961  13.039   4.708   1.521  0.2425  0.0547  0.0238
 8438W        W25962   4.671  12.704  12.537  0.1670  0.2052  0.3093
 8439W        W25963   8.020  12.749   0.031  0.1814  0.0327  0.0324
 8440W        W25964   8.489   9.718  15.862  0.1894  0.0963 -0.0382
 8441W        W25965   4.257   5.219  16.193  0.3272  0.0958 -0.0004
 8442W        W25966  15.201   6.410  15.983  0.0810  0.0453 -0.0426
 8443W        W25967  15.555   7.605  11.463  0.1534 -0.2368 -0.1013
 8444W        W25968   0.411  12.136  13.750  0.1486 -0.0114 -0.0844
 8445W        W25969   2.825  11.955   1.867  0.0643  0.1470 -0.3846
 8446W        W25970  12.035  12.036  12.834  0.1743  0.1991  0.0525
 8447W        W25971   5.555  15.140   4.085  0.2659  0.1092 -0.0298
 8448W        W25972  13.775  16.238   4.539 -0.0219 -0.1004  0.3025
 8449W        W25973   9.047   1.737   1.602 -0.1421  0.2171  0.1368
 8450W        W25974   7.502  16.746  15.811  0.1896 -0.0191 -0.2839
 8451W        W25975   4.342  12.915  15.322 -0.0702  0.2264  0.1584
 8452W        W25976   8.611   3.801   3.505 -0.0693  0.2429  0.2606
 8453W        W25977  10.500  15.272   4.446 -0.2052 -0.2192 -0.1900
 8454W        W25978   9.989  16.725  10.835 -0.0166  0.2456 -0.0589
 8455W        W25979  16.545   7.000  14.970 -0.0178 -0.0991  0.0264
 8456W        W25980  16.446   2.978   0.676 -0.1081  0.1633 -0.0014
 8457W        W25981   6.809  16.783   0.034 -0.2380  0.0069 -0.1486
 8458W        W25982  11.993  13.213   2.754 -0.2360 -0.0155  0.1684
 8459W        W25983   5.892   2.848  12.032  0.1545 -0.2500 -0.2266
 8460W        W25984   0.803   6.275   0.826 -0.0073  0.2838 -0.1348
 8461W        W25985   5.770   7.881  14.317  0.1736  0.1821  0.0155
 8462W        W25986   7.564  13.860  13.465 -0.1047 -0.1567 -0.2397
 8463W        W25987   5.485   8.760  15.868 -0.0927  0.0063  0.0811
 8464W        W25988  10.032   7.077   0.187 -0.1217  0.1136 -0.2536
 8465W        W25989   0.206   1.689   5.108  0.0535  0.1116  0.0733
 8466W        W25990   1.008   4.947  13.621 -0.0002 -0.0468 -0.2126
 8467W        W25991  16.887   1.043  13.331 -0.2038  0.1690  0.1444
 8468W        W25992   4.745  11.881   4.069 -0.1485 -0.3524  0.1915
 8469W        W25993  15.574   2.740  15.000  0.3858 -0.4701  0.0099
 8470W        W25994   7.508   5.159   4.595 -0.0176 -0.0053  0.4532
 8471W        W25995   7.543  11.243  11.649  0.5052 -0.0321  0.4893
 8472W        W25996  17.375  14.134   0.025 -0.1558  0.1598 -0.0560
 8473W        W25997   5.687   8.345   2.462  0.2263 -0.1850  0.0899
 8474W        W25998   8.802   5.254   3.800 -0.3264 -0.0598 -0.1490
 8475W        W25999  15.402   9.484  11.342 -0.2645 -0.1214  0.1300
 8476W        W26000   3.395  10.984  14.834  0.1720  0.0415 -0.2675
 8477W        W26001   0.571   6.786  13.417 -0.0220 -0.2016  0.0618
 8478W        W26002   1.062  15.329   3.348 -0.3048  0.3516 -0.0037
 8479W        W26003  13.726  17.497  14.467  0.1077  0.1208  0.1241
 8480W        W26004  11.185   2.850   0.520  0.3064 -0.0038  0.2782
 8481W        W26005   6.077   3.904   1.449 -0.0120 -0.3551  0.0893
 8482W        W26006   2.286  17.642   5.006 -0.3234 -0.1139 -0.2501
 8483W        W26007   5.144   5.542  10.980 -0.2881  0.1045  0.0905
 8484W        W26008  12.342  11.714   5.254  0.2630  0.1267 -0.0254
 8485W        W26009   9.771   7.051   4.438  0.0150  0.0848  0.2256
 8486W        W26010   5.235   0.713   2.519 -0.1887 -0.1361  0.0652
 8487W        W26011   4.985   4.185  11.300 -0.0352 -0.3162  0.1726
 8488W        W26012   5.495   1.154  12.241  0.0522  0.0278  0.2639
 8489W        W26013  15.038   3.610   3.066 -0.4201 -0.1570 -0.0514
 8490W        W26014  14.687  11.870  14.961 -0.1463  0.0709  0.0283
 8491W        W26015  16.518   1.020   3.693  0.2819  0.1849  0.1850
 8492W        W26016  16.135   6.295  13.726  0.1487  0.2804  0.0093
 8493W        W26017  11.315   0.404   0.699  0.1342  0.5652  0.0012
 8494W        W26018  17.474  12.633   0.084  0.2396  0.1859  0.4563
 8495W        W26019   0.309   6.599   1.247 -0.1650 -0.4502 -0.0821
 8496W        W26020   9.788  11.159   1.128  0.0802 -0.3157 -0.0586
 8497W        W26021  10.153   4.765   2.037  0.1261  0.2709  0.0959
 8498W        W26022   1.347   6.080   1.009  0.0442 -0.2200 -0.3768
 8499W        W26023   6.003   8.362   0.389 -0.3329  0.1292 -0.1357
 8500W        W26024   5.019   5.850  11.765  0.1505  0.3461  0.1430
 8501W        W26025   9.355   6.723  12.250 -0.1684 -0.3208  0.1873
 8502W        W26026   2.058   7.528   1.208 -0.0159  0.5029  0.0595
 8503W        W26027  17.880  15.776   5.288 -0.6280 -0.0697 -0.2033
 8504W        W26028  14.761  12.486  13.165  0.0184  0.0799  0.0571
 8505W        W26029   9.950  12.572   3.062  0.1190  0.0038 -0.1254
 8506W        W26030  12.441   7.334   4.239  0.0715 -0.1267 -0.4640
 8507W        W26031   9.726  11.027   4.975 -0.0910 -0.4718  0.2130
 8508W        W26032   3.652  10.234   1.920 -0.0971  0.0911  0.0358
 8509W        W26033  17.278   3.507  14.889  0.1392 -0.0348  0.1745
 8510W        W26034  14.282  11.138  11.701  0.0929 -0.2657 -0.0351
 8511W        W26035  16.315  15.036   5.181  0.1552 -0.0442 -0.2533
 8512W        W26036   4.059   7.452   4.196  0.3049  0.6385 -0.1438
 8513W        W26037   4.835   5.846  10.758 -0.1715 -0.1496  0.1533
 8514W        W26038   6.540   5.726  15.002  0.0297  0.2825  0.0785
 8515W        W26039   5.112  10.576  11.287 -0.0312 -0.0143 -0.0408
 8516W        W26040  17.111   2.548  13.296 -0.1089 -0.3105  0.0702
 8517W        W26041  12.011   9.928   4.054 -0.1035  0.2669 -0.1185
 8518W        W26042   9.790   0.571   1.029 -0.0233  0.1360 -0.0034
 8519W        W26043  11.595   3.545   4.870  0.1507  0.2714  0.1484
 8520W        W26044   4.208   0.355   0.709  0.0517 -0.0757 -0.1833
 8521W        W26045  16.175  15.835   5.356  0.1628 -0.1573  0.0540
 8522W        W26046  14.921   6.270  12.570 -0.0976  0.3294  0.0664
 8523W        W26047   2.238   1.945   1.488 -0.1448  0.0407 -0.1996
 8524W        W26048   7.620   3.736   2.740 -0.1316 -0.0270 -0.1531
 8525W        W26049   0.932  15.653  13.206 -0.0553 -0.0312 -0.1682
 8526W        W26050  10.293  15.235  12.241  0.1259  0.0928  0.2574
 8527W        W26051  10.719  15.583   1.359  0.1928 -0.1004 -0.2355
 8528W        W26052   4.071  11.418   0.664  0.0582 -0.1519  0.1779
 8529W        W26053  11.248  13.157   1.812 -0.0990  0.0105  0.2479
 8530W        W26054   7.883  15.864   1.436  0.1839 -0.0959  0.0498
 8531W        W26055  14.823  10.412   0.612 -0.0377 -0.2858 -0.0664
 8532W        W26056  17.800  12.299   2.211  0.0406 -0.2068 -0.3469
 8533W        W26057   5.417  16.380  13.926 -0.2062  0.0328 -0.1161
 8534W        W26058   3.004   2.343  16.270 -0.3397  0.1124 -0.1164
 8535W        W26059   0.208   7.663  12.399  0.1612 -0.2230 -0.1010
 8536W        W26060  10.205   2.253  11.401  0.0644  0.0844 -0.1861
 8537W        W26061  10.716  13.703   4.533  0.0319 -0.1484  0.0864
 8538W        W26062   8.608  12.816  12.405 -0.2408 -0.4194 -0.2619
 8539W        W26063  13.427   2.865  11.716 -0.2319 -0.2456 -0.0120
 8540W        W26064  16.272   7.600   3.296  0.1396 -0.1004 -0.2458
 8541W        W26065   0.107   1.217   2.006 -0.1260 -0.0811 -0.0079
 8542W        W26066   7.378   9.842   3.332  0.0302  0.0084  0.0290
 8543W        W26067  15.157  15.435  14.054 -0.1364  0.2217 -0.0486
 8544W        W26068  13.558   3.929   2.766  0.0115  0.0856  0.1117
 8545W        W26069   4.584   2.268   4.195 -0.1444  0.0288 -0.1408
 8546W        W26070   5.841  10.898   5.077  0.2121 -0.1822 -0.1845
 8547W        W26071   7.137   4.977  16.042  0.2556  0.2150 -0.0314
 8548W        W26072  14.547  11.202  12.229  0.2453 -0.0446  0.0376
 8549W        W26073  14.657  10.919  13.208 -0.1540  0.0559  0.2037
 8550W        W26074   7.545   1.886  15.431 -0.0105 -0.0496  0.1004
 8551W        W26075   6.471   1.474   2.462  0.4734  0.0658 -0.2452
 8552W        W26076   9.849   4.567   0.222 -0.1477  0.1837 -0.0627
 8553W        W26077  12.191  17.530   5.121  0.0558  0.1029 -0.0041
 8554W        W26078   7.732   9.350   1.544 -0.1129 -0.0076 -0.2882
 8555W        W26079   8.848   9.946   2.072  0.0539 -0.1450 -0.4687
 8556W        W26080   5.255  14.175   3.138  0.3935  0.0348  0.1968
 8557W        W26081  17.432   9.226  13.218  0.0097  0.2913 -0.1085
 8558W        W26082   6.808  12.674  12.687  0.0827  0.1925  0.2207
 8559W        W26083   5.659  15.518   0.796  0.0042  0.1160 -0.2096
 8560W        W26084   2.838  12.069   3.184 -0.0871  0.0403 -0.0821
 8561W        W26085   4.409  11.939  13.783 -0.0350 -0.3547 -0.0782
 8562W        W26086   0.403  17.164   1.152 -0.0921 -0.1053 -0.0586
 8563W        W26087   4.990   9.964   1.256  0.0235 -0.1288  0.0881
 8564W        W26088  13.294  14.880  14.535 -0.3755  0.1259 -0.0055
 8565W        W26089   5.386   9.568  13.547 -0.2065  0.1707 -0.0586
 8566W        W26090  10.671   4.269   4.084  0.0006  0.2359  0.0340
 8567W        W26091   1.254  14.031   4.959 -0.5886 -0.0243 -0.1605
 8568W        W26092  13.841   2.708  10.600  0.0518 -0.2359  0.3500
 8569W        W26093   8.376   7.370  12.470 -0.0051 -0.0743  0.0368
 8570W        W26094  10.985  14.029  10.773 -0.1199 -0.1759 -0.0542
 8571W        W26095  10.462   7.786  12.479  0.0774  0.2662  0.1597
 8572W        W26096   4.862  16.635  16.007 -0.2742 -0.0247 -0.1289
 8573W        W26097  11.282   8.632  13.785 -0.0720 -0.2190 -0.1742
 8574W        W26098  13.950   1.462   2.272  0.2242  0.1157 -0.0159
 8575W        W26099  17.176  10.816  11.518  0.0982  0.1117  0.2726
 8576W        W26100   7.127   5.278  11.797 -0.1229  0.0606 -0.1715
 8577W        W26101  15.132   4.237  16.222  0.2114  0.2221 -0.3444
 8578W        W26102  14.328  14.903  12.578 -0.3044  0.2827  0.2139
 8579W        W26103  13.674  12.907  13.486 -0.0193  0.1855  0.0453
 8580W        W26104   0.219  16.631   2.967 -0.1865 -0.0768 -0.0241
 8581W        W26105  13.552   5.931   4.951 -0.1052 -0.1675 -0.0078
 8582W        W26106   3.963  10.000  16.442  0.1091  0.0790  0.1810
 8583W        W26107   5.554   8.593  12.732  0.2254 -0.2140 -0.1111
 8584W        W26108  11.315  14.942   0.872  0.1123  0.0974  0.1179
 8585W        W26109   4.495  12.966   0.350  0.0466 -0.2684  0.1868
 8586W        W26110  12.530   3.646  14.299 -0.1202 -0.1121  0.1130
 8587W        W26111   5.010   1.335   4.920 -0.3077 -0.2164 -0.0586
 8588W        W26112   7.224   8.872   2.376  0.0602  0.1823 -0.0479
 8589W        W26113   6.697  15.910   4.572  0.0517 -0.0640 -0.0682
 8590W        W26114   3.637  10.353  13.376  0.2198  0.3515  0.0579
 8591W        W26115   1.632  17.848   0.094  0.0808  0.5101  0.1618
 8592W        W26116  13.921  13.947  16.155  0.0023  0.1252 -0.2030
 8593W        W26117  11.623   5.634  12.903 -0.0578 -0.1851 -0.1938
 8594W        W26118   4.157   1.543   2.876  0.2539  0.0790  0.0334
 8595W        W26119   4.359   8.741  12.704  0.2177 -0.2395 -0.1144
 8596W        W26120  13.266  15.968   1.596  0.2407  0.1722  0.0172
 8597W        W26121  13.863   2.525   1.048 -0.0800 -0.1068 -0.5122
 8598W        W26122  15.588  11.648   0.190 -0.2866 -0.1497 -0.0185
 8599W        W26123   2.272   2.624  12.404 -0.2921 -0.2886 -0.0538
 8600W        W26124   3.309   0.367   4.890  0.1502 -0.2118  0.1251
 8601W        W26125   1.383  14.781  14.700  0.1015  0.0377  0.0362
 8602W        W26126   2.011   7.267  14.328 -0.1140 -0.2561  0.2007
 8603W        W26127   2.314  15.292  14.385 -0.1074  0.0162  0.0202
 8604W        W26128   5.547   8.759   0.464 -0.0512  0.4585  0.1619
 8605W        W26129  16.567   7.564  14.206  0.3088 -0.0528  0.2317
 8606W        W26130  14.244   8.877   0.072  0.1600  0.0132  0.2136
 8607W        W26131  10.084  12.289   5.195  0.2458  0.0226  0.2343
 8608W        W26132   5.799  14.012   1.839  0.0831  0.1808 -0.0259
 8609W        W26133  10.225   3.788   3.626 -0.3536  0.0580 -0.2837
 8610W        W26134  12.226   1.869  12.873  0.0094  0.0834 -0.1925
 8611W        W26135  12.355   6.742   2.381 -0.3011 -0.1427 -0.1683
 8612W        W26136  14.092   4.123  15.881 -0.0071 -0.2553  0.0324
 8613W        W26137  10.992  10.029  15.635 -0.2106  0.1100 -0.1510
 8614W        W26138  15.594   0.827  12.367 -0.0786 -0.0877  0.0938
 8615W        W26139   2.206   5.760   2.206  0.1575  0.3085 -0.1944
 8616W        W26140  13.463   9.342   0.686  0.0619  0.0852  0.1193
 8617W        W26141   3.989   4.791   4.213  0.0324  0.1288 -0.6352
 8618W        W26142  10.205  14.364  13.839 -0.1427 -0.0024  0.3214
 8619W        W26143   0.001   6.565  11.422  0.0908 -0.0976  0.1827
 8620W        W26144   2.778   7.642   4.538  0.0712 -0.1713  0.1480
 8621W        W26145   5.759   5.224  12.738 -0.0698 -0.3821 -0.3228
 8622W        W26146  15.756   4.084   1.032  0.1259  0.0452  0.0269
 8623W        W26147  13.123   1.760   1.861  0.0364  0.3002 -0.0914
 8624W        W26148  13.042  13.468   0.044 -0.0305  0.2738  0.0724
 8625W        W26149  13.716   3.296   3.432 -0.1393 -0.0461  0.1741
 8626W        W26150   8.332  11.733   2.265  0.0159 -0.0072 -0.0204
 8627W        W26151   7.191   3.305  16.001  0.0131 -0.1089 -0.2038
 8628W        W26152  14.293  10.817   1.206  0.0781 -0.2649 -0.0999
 8629W        W26153   0.249  14.604  13.958 -0.1343 -0.0552  0.2747
 8630W        W26154   7.120  17.158   1.236  0.1633  0.0852 -0.0471
 8631W        W26155   9.451  14.762   0.400  0.0279  0.0825  0.1138
 8632W        W26156  16.147  17.085   4.079 -0.0435 -0.2099  0.0368
 8633W        W26157   5.421  10.852  16.440 -0.1948 -0.1318  0.3138
 8634W        W26158   4.868  14.055   1.292 -0.1148 -0.2912  0.4234
 8635W        W26159  17.818   1.595   3.909 -0.0565 -0.0004 -0.2378
 8636W        W26160  14.391  13.071   4.818  0.1257  0.3101  0.1379
 8637W        W26161   1.250   7.860   2.335  0.1160  0.0963  0.0490
 8638W        W26162   2.516  16.079   2.475 -0.0730  0.0925 -0.1504
 8639W        W26163   5.067  13.600  14.724  0.2739 -0.0020  0.1266
 8640W        W26164  12.778   6.567   2.647  0.2617 -0.1571 -0.1818
 8641W        W26165   3.358  13.548   2.004 -0.1847  0.1567 -0.0381
 8642W        W26166  15.130  15.259  12.030  0.3484  0.2838 -0.2224
 8643W        W26167   8.178   6.281  12.338 -0.3584 -0.2086 -0.2046
 8644W        W26168   9.677   8.856  13.317 -0.3722 -0.1668 -0.0086
 8645W        W26169  13.437  14.767  15.025 -0.2654  0.2641 -0.1156
 8646W        W26170  11.728  17.645  11.880 -0.0667  0.0322  0.0457
 8647W        W26171  13.947   2.911  13.120  0.0999  0.0970  0.0545
 8648W        W26172   6.010   8.600  11.748 -0.1494  0.2672 -0.1823
 8649W        W26173   1.924   7.286   4.890  0.2628  0.1286  0.2602
 8650W        W26174   5.547  16.074  13.047  0.0849  0.0107 -0.2529
 8651W        W26175   2.891  13.536  11.730  0.0491  0.1068  0.0720
 8652W        W26176   4.196  14.099   0.592 -0.0966  0.0702  0.1293
 8653W        W26177   3.020  11.539  12.205 -0.0512 -0.0019  0.4571
 8654W        W26178  17.507   6.901   0.424 -0.2696 -0.3345  0.1613
 8655W        W26179   6.013  12.056   1.414 -0.0209  0.0592  0.2593
 8656W        W26180  12.049  10.598  16.004 -0.2498 -0.1535 -0.0434
 8657W        W26181   1.437   2.696  11.736 -0.2787  0.0294 -0.1908
 8658W        W26182  14.284   3.043  12.133  0.2151  0.0438 -0.0347
 8659W        W26183  11.769  15.247   5.010  0.0188 -0.1415 -0.1796
 8660W        W26184  15.212   0.595   3.774 -0.0519 -0.2528 -0.5546
 8661W        W26185   8.439   0.578   3.797  0.0731 -0.0260  0.3525
 8662W        W26186  14.634   8.454   4.718  0.0101 -0.0716  0.0467
 8663W        W26187  14.066  12.461  13.702  0.2477  0.1203  0.0834
 8664W        W26188   7.170   8.732   5.369  0.1097  0.5016 -0.0282
 8665W        W26189   5.436  14.691   2.770  0.0526 -0.1348  0.1503
 8666W        W26190  10.401   3.298  15.878 -0.0233  0.0420 -0.1040
 8667W        W26191  12.544  14.414  13.815  0.0947  0.0179  0.1581
 8668W        W26192   2.019  10.232   1.599 -0.1834 -0.1686  0.3023
 8669W        W26193   7.276   0.898  14.949  0.0440  0.0947  0.2256
 8670W        W26194   2.404   1.913  14.040  0.0184 -0.0043 -0.1247
 8671W        W26195   6.764  15.855   3.125  0.0156  0.1848  0.0621
 8672W        W26196   7.685  15.500   5.047  0.2116  0.2292  0.3190
 8673W        W26197   9.575  13.283  13.368  0.0058  0.1186  0.2741
 8674W        W26198   8.965  14.759  13.486  0.4388  0.1932 -0.0003
 8675W        W26199   2.222   3.728   1.612  0.0311 -0.1063 -0.1490
 8676W        W26200  17.789  15.195   1.517 -0.0683 -0.0523 -0.0162
 8677W        W26201   7.323   4.222  13.231  0.0659  0.0281  0.3337
 8678W        W26202  12.416  17.969   5.313 -0.1403 -0.2678 -0.4045
 8679W        W26203  10.218   0.473  11.622  0.1156 -0.2081 -0.3123
 8680W        W26204   9.319   0.118   0.101 -0.0602 -0.0436 -0.3499
 8681W        W26205   0.422   5.042  12.742 -0.3269  0.1919 -0.0363
 8682W        W26206  15.378  14.436  13.649  0.0925 -0.0908  0.1965
 8683W        W26207   3.853  12.821   4.608  0.1369  0.0522  0.1792
 8684W        W26208   8.350  10.841   2.739  0.1263  0.0224  0.0134
 8685W        W26209   9.012  14.310  13.188  0.1543 -0.2010  0.4194
 8686W        W26210  10.366   5.905  11.979 -0.1359  0.1598  0.0664
 8687W        W26211  15.268   9.170   4.572 -0.3650 -0.1403 -0.2068
 8688W        W26212  15.323  13.142  13.153  0.3891 -0.1961 -0.2212
 8689W        W26213  16.378   9.835  12.786 -0.1689  0.0723 -0.1196
 8690W        W26214  17.587  11.688  13.010 -0.0709 -0.3309 -0.0080
 8691W        W26215  16.501   2.047  14.055 -0.0429  0.2927  0.0526
 8692W        W26216   2.544  12.195   4.952 -0.0269 -0.0461  0.3933
 8693W        W26217  11.817   3.464   2.206  0.0164 -0.0608  0.0182
 8694W        W26218   2.784  13.928  13.621 -0.0386  0.0382  0.2660
 8695W        W26219   7.012   4.010   3.897  0.0810  0.0618  0.1083
 8696W        W26220  11.389  13.112   3.814 -0.0227  0.0909 -0.0108
 8697W        W26221   2.784  10.705   2.939 -0.1396  0.2093  0.3181
 8698W        W26222   8.458   9.075   3.123 -0.0309  0.0820 -0.2136
 8699W        W26223  17.649   5.889  10.551 -0.3862 -0.1096  0.0114
 8700W        W26224  11.204  15.260  16.425  0.0323 -0.1603 -0.0890
 8701W        W26225   0.201   7.004  11.620 -0.3220  0.0534  0.1346
 8702W        W26226   7.854  13.101  12.350 -0.1962 -0.0434 -0.1748
 8703W        W26227   6.722   2.181   5.349 -0.0390  0.0038 -0.0107
 8704W        W26228   6.523  15.642  14.040 -0.1199  0.2936  0.2701
 8705W        W26229   6.127   7.616   4.290 -0.2476  0.2887 -0.1451
 8706W        W26230   7.830  13.339  13.368 -0.2321  0.1159  0.1435
 8707W        W26231   7.270  15.251  13.491 -0.0881 -0.0523  0.0028
 8708W        W26232   2.062  13.613   1.690  0.2821 -0.0807 -0.0091
 8709W        W26233   7.731  15.305  10.838  0.0420  0.1111 -0.0762
 8710W        W26234   3.106  11.229  14.018 -0.2301 -0.0944 -0.1305
 8711W        W26235   7.751  17.325  14.319 -0.0708 -0.3107 -0.1131
 8712W        W26236  11.545  11.713  11.716  0.0728  0.0283 -0.0153
 8713W        W26237   8.083   2.081   0.679  0.1009 -0.0889  0.0443
 8714W        W26238   2.109   4.838  12.253 -0.0719 -0.1575  0.1352
 8715W        W26239  11.719   4.346  12.470  0.0225  0.0644  0.2233
 8716W        W26240   3.817  11.333   4.731 -0.0311  0.2100 -0.0876
 8717W        W26241   6.540   5.871   4.078 -0.1979  0.2051 -0.1595
 8718W        W26242  13.700   0.721  15.201 -0.1876  0.1105 -0.3282
 8719W        W26243   8.337  17.522   4.841  0.4165 -0.0106 -0.0878
 8720W        W26244   0.230   5.854  12.701 -0.1650  0.0070  0.0626
 8721W        W26245  15.429  15.972   3.420 -0.0287 -0.2995  0.0924
 8722W        W26246   2.473  11.504   1.757  0.0191 -0.1482 -0.0124
 8723W        W26247   4.684   1.475  13.289 -0.0685 -0.3029  0.0565
 8724W        W26248  17.924   4.171  13.860 -0.2358 -0.1519  0.2590
 8725W        W26249   8.722   3.480  16.263 -0.0990  0.0432  0.0743
 8726W        W26250   8.469  11.742   2.905 -0.1606 -0.0797  0.1827
 8727W        W26251   1.035   6.796   4.919  0.1115 -0.3296  0.1070
 8728W        W26252  17.828  10.314   1.304  0.3038 -0.2716  0.2357
 8729W        W26253  17.631   5.268  11.808 -0.0917  0.3152  0.0198
 8730W        W26254  13.537  15.153   0.670  0.0844  0.4835 -0.1369
 8731W        W26255   7.541  12.741  14.774 -0.1087 -0.3054 -0.0738
 8732W        W26256  11.751  15.828   1.982 -0.2197 -0.0407  0.1900
 8733W        W26257  12.901   6.775  11.778 -0.0908 -0.1405 -0.3319
 8734W        W26258  16.058  10.947   2.099  0.2569 -0.1879 -0.3599
 8735W        W26259   5.217   8.858   4.884  0.1001  0.2052  0.0332
 8736W        W26260  14.448   0.721  11.786  0.0195  0.1019  0.1156
 8737W        W26261   3.838  10.416   3.401  0.1981 -0.1846  0.1686
 8738W        W26262   7.652  10.702  14.337 -0.1171  0.3951  0.0866
 8739W        W26263   0.344  17.955   2.985  0.1857  0.1898  0.1470
 8740W        W26264   3.348   7.522  11.494  0.2542 -0.1797 -0.1784
 8741W        W26265   0.375  12.639   4.052  0.6197 -0.0196  0.0138
 8742W        W26266  10.820  12.559   4.001 -0.0138  0.1424  0.1252
 8743W        W26267   7.062  16.489  14.353  0.1249 -0.1705 -0.1113
 8744W        W26268   8.671   9.701  12.539  0.1232 -0.2748 -0.1950
 8745W        W26269   2.404   7.794  14.127  0.2242  0.2530  0.3261
 8746W        W26270  11.789  17.803   2.129 -0.0838  0.1391  0.0559
 8747W        W26271  15.213   0.177   2.983 -0.1488 -0.0479  0.0349
 8748W        W26272   6.423   0.653  16.454  0.4391  0.1389 -0.0154
 8749W        W26273   5.108  17.687   5.207  0.1560  0.0007  0.4089
 8750W        W26274  17.929  17.249   0.882 -0.1029  0.1978  0.4126
 8751W        W26275  12.634  12.686  15.922 -0.1191  0.0527  0.2148
 8752W        W26276   9.590   6.419   3.150 -0.0966  0.5060  0.2309
 8753W        W26277   4.045  17.088   0.246 -0.0916 -0.1314 -0.2010
 8754W        W26278   5.402   1.702   1.731 -0.2617  0.2361  0.2834
 8755W        W26279   5.625   0.492   3.735  0.0377  0.2181  0.0003
 8756W        W26280  17.730   6.769   3.968 -0.2886  0.0635 -0.2181
 8757W        W26281  10.900  12.819   5.029 -0.0939  0.0478  0.3529
 8758W        W26282   0.339   4.322   2.027 -0.1114  0.0695  0.0766
 8759W        W26283  14.374   1.651   0.223 -0.0555  0.1260  0.1952
 8760W        W26284   9.240   1.272  14.872 -0.3294  0.0051  0.1900
 8761W        W26285  12.946  13.002  13.915  0.0945  0.0009  0.0231
 8762W        W26286  17.402   5.834  10.985  0.0002  0.2798 -0.0165
 8763W        W26287   6.165  14.247   2.991  0.2130 -0.0873  0.0451
 8764W        W26288   5.814  16.325  15.607 -0.2094  0.2163  0.2005
 8765W        W26289  13.909  15.049   2.699 -0.1441 -0.2962  0.1102
 8766W        W26290  16.006   9.128   3.530 -0.1051 -0.0252 -0.0390
 8767W        W26291  13.145   2.942  12.298 -0.0526  0.4400  0.0261
 8768W        W26292  10.493   6.915   3.284  0.1832  0.1515 -0.2881
 8769W        W26293   8.815  11.048  11.657 -0.0760 -0.1594  0.3254
 8770W        W26294   3.688  11.821   0.561 -0.2002 -0.0717 -0.0331
 8771W        W26295   7.230  11.199   3.285 -0.0970  0.0364  0.0700
 8772W        W26296   9.633   5.896  14.908  0.1700  0.1891  0.2079
 8773W        W26297  16.375  12.424   0.883  0.0718 -0.2679  0.0798
 8774W        W26298   8.531   5.383   6.072 -0.4526 -0.0324  0.5775
 8775W        W26299   1.575  12.902   2.216 -0.3578 -0.0024 -0.2344
 8776W        W26300  14.539   7.360   5.668 -0.0712  0.1770  0.0886
 8777W        W26301   2.209   4.396  13.472  0.0656  0.2165 -0.1126
 8778W        W26302  15.123   4.409   4.203 -0.0417  0.0082  0.1724
 8779W        W26303   9.987   8.980   0.747 -0.1377  0.1409  0.3247
 8780W        W26304   5.728  13.864   4.745  0.0393  0.0869  0.3304
 8781W        W26305  17.276  15.770   1.420  0.2105  0.0180  0.0920
 8782W        W26306   9.569  10.680  14.678 -0.2351 -0.1215  0.2154
 8783W        W26307   7.788   3.120   1.647 -0.2098 -0.0066 -0.1375
 8784W        W26308  10.154   1.233   3.717 -0.0084  0.2806 -0.0209
 8785W        W26309   2.639  12.606  11.978  0.1153  0.0433 -0.0472
 8786W        W26310   8.595  12.054  12.805 -0.0133  0.1985  0.1957
 8787W        W26311   2.331  17.933  13.940  0.0178  0.1794  0.0363
 8788W        W26312   6.597   0.061  12.084 -0.1380 -0.0296 -0.2189
 8789W        W26313  13.621  14.755   4.014 -0.0273 -0.2774  0.3985
 8790W        W26314   6.352   5.776  11.720 -0.0673  0.1102 -0.0607
 8791W        W26315  14.158  10.012   3.002 -0.0055  0.0296 -0.1145
 8792W        W26316   8.261   0.893   4.628 -0.2973  0.2881  0.0100
 8793W        W26317   6.810   5.422   1.380 -0.0612 -0.0964 -0.2547
 8794W        W26318  12.463   4.770   1.549  0.1329  0.1412  0.2122
 8795W        W26319   6.195  12.156   0.544 -0.1367  0.1357 -0.0278
 8796W        W26320   6.717  16.779  10.540  0.1221 -0.3820 -0.1614
 8797W        W26321  13.337  16.908  11.922  0.3571  0.3996 -0.0594
 8798W        W26322   9.268  13.055  15.678 -0.1606 -0.1208 -0.2796
 8799W        W26323  12.867   3.492   5.073  0.0744  0.0268 -0.1816
 8800W        W26324  14.227   1.605   3.668  0.0226 -0.3344  0.1102
 8801W        W26325  10.369  15.257   0.789 -0.0559 -0.0086 -0.1526
 8802W        W26326  13.686   2.754   4.918  0.0836  0.0854 -0.3751
 8803W        W26327  10.203   3.890  12.115 -0.2553  0.1842  0.1270
 8804W        W26328  17.017   3.355  15.328  0.1102 -0.0238 -0.2959
 8805W        W26329   1.621  15.069   3.725  0.1092  0.1438 -0.0392
 8806W        W26330  16.434   1.400   4.002 -0.0302  0.1947 -0.0115
 8807W        W26331  16.842  11.968  15.225 -0.2749 -0.0364  0.0313
 8808W        W26332  16.047  12.047   1.613  0.1363  0.1360  0.3378
 8809W        W26333  11.681  13.572   1.228 -0.1796  0.0949  0.0567
 8810W        W26334   9.520  11.266   3.443  0.0942 -0.1993  0.1371
 8811W        W26335  11.359   6.658   3.538 -0.0017 -0.0812 -0.0480
 8812W        W26336   5.108  16.407  10.741  0.1074 -0.1237 -0.3153
 8813W        W26337   5.101   5.877  14.594  0.3266 -0.1059  0.0633
 8814W        W26338  12.265  15.272   2.476 -0.0423  0.1247 -0.0596
 8815W        W26339   2.866  11.356   3.783  0.1854 -0.2465 -0.0054
 8816W        W26340  11.609  12.150   5.238  0.0258  0.0439  0.1308
 8817W        W26341  16.923   8.837  16.455 -0.0966  0.0020  0.0844
 8818W        W26342   9.763   6.354  13.520  0.1125 -0.0784  0.0573
 8819W        W26343  13.070  11.273  12.267  0.0251  0.1212  0.0421
 8820W        W26344  15.937   3.147  16.344  0.1575 -0.0196  0.1651
 8821W        W26345   2.426  10.074   4.306 -0.0128 -0.0555 -0.4148
 8822W        W26346   9.855  15.456   0.922 -0.0054  0.0180 -0.0675
 8823W        W26347  17.831   8.977  13.065 -0.1250 -0.1915 -0.0849
 8824W        W26348  10.187   1.606  16.164  0.1484  0.0785 -0.2614
 8825W        W26349   6.075  14.311  12.554  0.1069  0.1991 -0.0099
 8826W        W26350   5.639  15.629   2.306 -0.1751  0.1789  0.2933
 8827W        W26351   3.908   2.660   5.055 -0.0517  0.0522 -0.1787
 8828W        W26352   8.609   7.551   3.872 -0.0279  0.1543 -0.0297
 8829W        W26353  14.369   7.609  12.940 -0.1196  0.2915  0.1669
 8830W        W26354  11.525   1.395   3.163 -0.0052  0.1218 -0.1464
 8831W        W26355   8.131   4.379   5.215 -0.1990  0.0891  0.1959
 8832W        W26356   7.863   4.596   4.799  0.1198 -0.0722  0.0595
 8833W        W26357   8.938   6.067   4.255  0.1961  0.0291  0.0495
 8834W        W26358  17.260  11.991   3.888  0.2403  0.0886  0.1127
 8835W        W26359   4.741   0.020  11.448  0.1126 -0.0433  0.2370
 8836W        W26360  12.211   6.366   0.600 -0.0102  0.0648 -0.2838
 8837W        W26361   0.404  17.144   4.511  0.1140  0.0169  0.1972
 8838W        W26362  11.030   4.114  16.011  0.0934 -0.3727 -0.1896
 8839W        W26363  15.745  10.740  14.224  0.1865  0.3908  0.1900
 8840W        W26364   3.228  16.638  11.891 -0.0525  0.1060 -0.0920
 8841W        W26365  17.537   5.582   0.575 -0.0248  0.0649 -0.2097
 8842W        W26366  10.687   7.574   4.229  0.2549 -0.0232  0.1955
 8843W        W26367  16.351  13.903  13.199 -0.4834 -0.0282 -0.1404
 8844W        W26368  12.259  11.680  13.965 -0.0006  0.2388 -0.0938
 8845W        W26369  10.732  14.525   1.313  0.2289 -0.2386 -0.1384
 8846W        W26370  17.624  10.842   1.036  0.3110 -0.2290  0.2331
 8847W        W26371  10.983   0.108  15.669  0.3355  0.1633  0.0307
 8848W        W26372  12.626   9.234   4.426  0.0317 -0.1050 -0.0440
 8849W        W26373  12.743   5.706   1.431 -0.0706 -0.2252 -0.2007
 8850W        W26374  17.320   8.933   0.293 -0.0201  0.0353 -0.4928
 8851W        W26375   8.324  17.048   4.532 -0.2016 -0.0027  0.0427
 8852W        W26376   5.922   8.170  11.440  0.0606 -0.1280  0.0897
 8853W        W26377   0.914   5.812  11.111 -0.0195 -0.1312 -0.0854
 8854W        W26378  17.568   2.122  14.070 -0.0188  0.0979 -0.3114
 8855W        W26379  14.488   2.035   2.326  0.0920 -0.0965  0.2388
 8856W        W26380  10.565   2.621   3.017  0.0444 -0.1001 -0.0330
 8857W        W26381   1.909   3.855  15.891  0.3231 -0.0871 -0.1323
 8858W        W26382   0.814   7.708   2.602 -0.0756 -0.0908 -0.2379
 8859W        W26383   8.371   3.238   2.413 -0.2302 -0.1587 -0.4178
 8860W        W26384  17.781   6.735  15.821 -0.0315 -0.3370  0.0411
 8861W        W26385  13.693   4.686   2.525  0.0925 -0.1731  0.1126
 8862W        W26386   1.052   5.549   0.131  0.0339  0.1351  0.2172
 8863W        W26387   4.461   6.352  16.417 -0.3945  0.0719  0.0027
 8864W        W26388   8.056   1.943  13.218 -0.3577 -0.0368 -0.0845
 8865W        W26389   5.611   0.586  14.380 -0.1717  0.1784  0.2348
 8866W        W26390   5.014   2.307   3.974 -0.2787 -0.1220  0.0412
 8867W        W26391   6.628  12.938   2.979  0.0510  0.0152  0.0785
 8868W        W26392   0.151  12.166   1.429  0.0979 -0.0650 -0.2062
 8869W        W26393  10.423   1.351   2.020 -0.0287 -0.0696  0.0010
 8870W        W26394  17.220   0.860   3.085 -0.3953 -0.1550 -0.0857
 8871W        W26395   8.078  11.359  12.527  0.2641  0.0208  0.2038
 8872W        W26396   4.093  16.310  14.912  0.1056  0.0067  0.3050
 8873W        W26397  13.398   4.650  11.762  0.3244  0.1350  0.1101
 8874W        W26398   8.309  12.897   4.830  0.0367  0.0262  0.1309
 8875W        W26399  12.794   6.387   5.196  0.2721  0.0301  0.0198
 8876W        W26400  13.799  15.883  16.339 -0.0286 -0.1833 -0.1484
 8877W        W26401   3.332  16.021  14.368  0.1758  0.5291 -0.2372
 8878W        W26402   5.615  17.970   3.724 -0.0203  0.2547  0.1210
 8879W        W26403  17.171   6.387  11.003 -0.0989 -0.0805 -0.1249
 8880W        W26404  17.503   1.037   0.667  0.0793  0.1509  0.0191
 8881W        W26405  10.215   5.165   3.713 -0.1239  0.1209 -0.2349
 8882W        W26406  14.776   8.289   2.447  0.0936  0.1639 -0.0332
 8883W        W26407   3.421   3.303   2.367 -0.1903  0.1715 -0.0938
 8884W        W26408  11.965   6.728  11.981  0.0818  0.0824 -0.0119
 8885W        W26409   4.228  11.251   3.439 -0.0268 -0.0833 -0.1825
 8886W        W26410   4.332  14.410  13.300  0.1454 -0.0975 -0.2148
 8887W        W26411   4.964  12.047  13.228 -0.0674 -0.0697  0.2191
 8888W        W26412   3.496   5.558   2.229 -0.0363 -0.5444 -0.0370
 8889W        W26413   4.142   5.372   2.460 -0.0690  0.0382  0.2657
 8890W        W26414   3.751   9.814   1.455 -0.0745 -0.2449  0.3892
 8891W        W26415  17.211   4.526  16.082 -0.1127  0.1254  0.0089
 8892W        W26416   7.501   9.651  11.772 -0.0641 -0.1753  0.1105
 8893W        W26417  14.216   7.464  11.097 -0.0343 -0.1573 -0.0612
 8894W        W26418   7.773  16.468   1.405  0.1010 -0.2156 -0.1224
 8895W        W26419   5.158  16.324   1.127  0.1591  0.1629 -0.0181
 8896W        W26420  11.744   8.265   0.684 -0.0327  0.0218 -0.2869
 8897W        W26421   0.569   9.128  14.908  0.0010  0.0107  0.2291
 8898W        W26422  11.656   9.179   5.009  0.1262 -0.4401 -0.2131
 8899W        W26423   8.442   9.841   1.816  0.2774 -0.0147 -0.2612
 8900W        W26424   6.878   9.971   1.814 -0.0012 -0.1437 -0.2640
 8901W        W26425   1.753   6.767  13.187  0.0485  0.3650 -0.0782
 8902W        W26426   4.537  13.374   5.108  0.2445 -0.2079 -0.0106
 8903W        W26427   8.872   5.955  16.308 -0.2140  0.1330  0.1589
 8904W        W26428  17.171  10.713   3.939  0.0095  0.0941  0.1040
 8905W        W26429  11.696   2.180   2.277  0.0178 -0.0517 -0.1804
 8906W        W26430  16.573  10.812   1.463  0.1141  0.1183  0.1441
 8907W        W26431   0.562  14.392  15.890  0.2222  0.3579 -0.2364
 8908W        W26432   3.275   2.801   2.359 -0.1557  0.1639 -0.0789
 8909W        W26433   3.227  17.025   1.532 -0.0364  0.0956 -0.0619
 8910W        W26434   9.524   1.057  14.484 -0.1902 -0.2897  0.2079
 8911W        W26435  16.707  16.837   4.741  0.0536  0.1012 -0.0698
 8912W        W26436  10.364  16.778  15.408 -0.1808 -0.0115 -0.4114
 8913W        W26437   3.448   5.971  15.170 -0.0033 -0.0545  0.0124
 8914W        W26438  17.015  10.686   3.462 -0.0406 -0.0742 -0.0195
 8915W        W26439  15.945   6.268   4.627 -0.2466 -0.0547 -0.0165
 8916W        W26440  10.333  11.428  14.866  0.1033 -0.2041 -0.0524
 8917W        W26441   1.554   0.820  16.247 -0.0461 -0.1328 -0.1099
 8918W        W26442   6.408  14.389  16.047  0.0887 -0.2935 -0.0066
 8919W        W26443   3.519  11.584  13.905  0.0166  0.2275  0.0532
 8920W        W26444   2.427  15.762  12.203 -0.0584 -0.1107 -0.2378
 8921W        W26445   9.415  12.617   4.903 -0.1572  0.3375  0.3063
 8922W        W26446   7.308   4.640  13.539 -0.3361 -0.0876  0.1604
 8923W        W26447  13.808   6.927   1.685 -0.1451 -0.0283 -0.4621
 8924W        W26448   1.095  14.756   3.293 -0.0777  0.0119  0.0086
 8925W        W26449   9.431   3.292  14.550  0.1072 -0.1500 -0.2409
 8926W        W26450   9.517   1.283   0.334  0.1065  0.0025  0.0814
 8927W        W26451   4.734  14.184  11.641  0.0300  0.1416 -0.1435
 8928W        W26452   0.277   9.329  14.502  0.0125  0.1358 -0.0352
 8929W        W26453  13.857   6.200  15.752  0.0095  0.2177  0.1350
 8930W        W26454  12.251  11.984  15.965  0.1596  0.0077  0.1493
 8931W        W26455  16.609   9.433  11.587 -0.0653 -0.2841 -0.6249
 8932W        W26456   4.882  15.356   1.403 -0.1227 -0.1398  0.0806
 8933W        W26457   2.416   7.814   5.452  0.0003  0.0065 -0.2705
 8934W        W26458   8.039  14.615  12.944 -0.0901 -0.1598 -0.0009
 8935W        W26459   6.382  14.129  15.593  0.1755  0.4025  0.3452
 8936W        W26460  13.283  13.620   2.395  0.0272  0.1111  0.1733
 8937W        W26461   9.113   3.381  12.266  0.1416  0.1387 -0.0778
 8938W        W26462  16.510   6.132   2.192  0.2563  0.0400 -0.0507
 8939W        W26463   0.732   7.155  15.513 -0.3043 -0.1062  0.1029
 8940W        W26464  11.506  12.646  11.427 -0.1424  0.0000 -0.1290
 8941W        W26465  17.129  10.862   2.615 -0.0628  0.1501  0.2055
 8942W        W26466   3.195   7.102   3.233  0.1531 -0.1073 -0.1655
 8943W        W26467  16.690  13.208   4.194 -0.0008 -0.1350 -0.0022
 8944W        W26468   8.414   5.282   1.863 -0.0769  0.1183 -0.0592
 8945W        W26469   2.624   3.547  13.203  0.1585 -0.0000  0.2373
 8946W        W26470   2.930   8.802   5.089 -0.0475 -0.1004  0.1620
 8947W        W26471   8.741   4.224   3.349 -0.0263  0.1809 -0.0452
 8948W        W26472  11.775  13.066   1.047 -0.0736  0.0305  0.2950
 8949W        W26473   0.310  17.581  15.132 -0.1311 -0.0784  0.3938
 8950W        W26474  14.676   7.002   1.125  0.0898  0.0014 -0.2604
 8951W        W26475   4.942   1.760   4.021  0.2823 -0.0514  0.0533
 8952W        W26476   6.506   4.159  14.927 -0.0456  0.0020  0.2221
 8953W        W26477   0.656  12.990  11.379  0.2588 -0.1224  0.3574
 8954W        W26478  13.760   0.165   4.350  0.0567 -0.0358 -0.2162
 8955W        W26479   3.737   6.005  14.215 -0.0082 -0.2271  0.1244
 8956W        W26480  10.508  11.507   0.377 -0.2582 -0.0814 -0.0009
 8957W        W26481   8.553  14.648   2.509  0.3732 -0.0660  0.2208
 8958W        W26482   3.518   4.601   3.432  0.1454 -0.4012  0.0921
 8959W        W26483   4.997  15.782  14.612 -0.3241  0.1459 -0.1248
 8960W        W26484  12.230   1.250  11.004  0.0365  0.0248  0.0665
 8961W        W26485   6.234   9.835  14.863  0.0562  0.1717 -0.0207
 8962W        W26486  13.794   2.717   4.431  0.0407 -0.1833  0.2013
 8963W        W26487  12.830  16.385  16.184 -0.2670 -0.0126  0.1048
 8964W        W26488  11.794  15.827   4.986 -0.3382 -0.0350  0.0851
 8965W        W26489   5.106   1.049  12.624  0.2468  0.2541  0.2383
 8966W        W26490  14.824   6.973  12.107  0.0891 -0.2484  0.4111
 8967W        W26491   1.635   7.631   2.644  0.0622  0.1089  0.2095
 8968W        W26492  13.863   8.395   0.631  0.0772  0.1162  0.2812
 8969W        W26493  17.283   9.998  11.416 -0.1280 -0.3350 -0.0178
 8970W        W26494   5.318   7.086   4.601 -0.1507  0.2167  0.1068
 8971W        W26495   3.489   3.317   5.132  0.1834 -0.2577  0.0283
 8972W        W26496  15.141   7.010  13.392 -0.2038 -0.0502  0.1505
 8973W        W26497  12.746  12.902  12.131 -0.2316  0.0407 -0.2284
 8974W        W26498   2.607  13.667   4.629  0.1982  0.1064  0.1124
 8975W        W26499  16.819   6.299   3.497  0.1423 -0.0425  0.0190
 8976W        W26500  15.891  10.831  11.125 -0.0454  0.2781 -0.1660
 8977W        W26501   2.441  14.084   1.406 -0.1667  0.1640 -0.1608
 8978W        W26502  10.231  17.296  13.318 -0.2665  0.1933 -0.0583
 8979W        W26503  15.468   4.234   4.971 -0.2039  0.3225  0.1191
 8980W        W26504   2.618  15.542  15.701  0.1165  0.0528  0.1169
 8981W        W26505   2.784  12.450   4.093 -0.1906  0.1337  0.3434
 8982W        W26506   3.965   3.644   5.547 -0.0598  0.0070  0.1960
 8983W        W26507   3.617   0.459   4.455 -0.1631 -0.0007  0.2757
 8984W        W26508   6.867   6.074  12.753 -0.1397  0.0846 -0.1879
 8985W        W26509   4.636  17.808  15.132 -0.0057 -0.1809  0.2323
 8986W        W26510  15.508  11.466  14.836 -0.1597  0.1380  0.2301
 8987W        W26511  17.003   7.947   3.961 -0.0134 -0.0415 -0.3142
 8988W        W26512   1.948   5.491  15.151 -0.0300  0.0643 -0.2406
 8989W        W26513  10.208   3.987  14.567  0.1272  0.2384 -0.2100
 8990W        W26514   8.122  13.930   2.578  0.5093 -0.1010  0.0551
 8991W        W26515  16.535   3.987  16.293  0.1021  0.0621 -0.0395
 8992W        W26516   0.344   9.536  13.996 -0.0124  0.1426 -0.4969
 8993W        W26517  15.777   4.994  11.611  0.0031 -0.0772  0.0254
 8994W        W26518  12.025   1.166  15.261 -0.3586  0.1561 -0.1073
 8995W        W26519   5.115   0.425   4.408 -0.2394  0.0725  0.3661
 8996W        W26520  11.266   3.332  13.106 -0.1110 -0.0203 -0.1904
 8997W        W26521  11.343  17.623  15.090  0.0743  0.0246  0.2098
 8998W        W26522   8.947  10.853   2.089  0.3764 -0.1050 -0.2151
 8999W        W26523  10.447  16.521   1.024 -0.0055  0.1471  0.1685
 9000W        W26524   3.327  10.395  12.025  0.1486  0.1326 -0.1306
 9001W        W26525  11.807   1.691   0.577  0.1563 -0.0505 -0.0448
 9002W        W26526  15.454   2.007  14.681  0.0362  0.3449 -0.0218
 9003W        W26527   2.882   8.472  13.819  0.0531  0.2211 -0.1937
 9004W        W26528   3.270   1.776  15.072 -0.1980  0.0970 -0.0430
 9005W        W26529  10.540   3.383   3.545 -0.0173 -0.3470  0.1625
 9006W        W26530  17.399   5.426  13.694 -0.1418  0.2624 -0.2054
 9007W        W26531   6.763   3.581  12.883  0.0320  0.0414  0.2887
 9008W        W26532   4.518  16.824   0.886 -0.0181 -0.2509  0.1848
 9009W        W26533  11.934  13.308   4.365  0.3383  0.2624  0.3026
 9010W        W26534   3.250   1.196   4.491 -0.0078  0.2710 -0.0304
 9011W        W26535  12.601  15.602  13.672 -0.0860  0.0071  0.0465
 9012W        W26536   8.112  16.596   4.504  0.1571  0.2371 -0.2586
 9013W        W26537  10.866  16.831   1.074 -0.0744  0.4320  0.1869
 9014W        W26538   7.922   2.405   2.414 -0.0987 -0.0908  0.0982
 9015W        W26539  11.121   3.729  16.311  0.3445  0.0194 -0.0586
 9016W        W26540   7.595   0.411  13.631 -0.0004  0.1087 -0.0624
 9017W        W26541   3.867   7.192   2.699 -0.3450 -0.0496  0.1767
 9018W        W26542   3.768  15.911   5.324 -0.0550 -0.0142  0.1502
 9019W        W26543   5.090   5.151   4.318 -0.0026  0.1784 -0.1470
 9020W        W26544  13.591   9.340  10.436 -0.0681  0.2121 -0.0407
 9021W        W26545   4.017  14.147  13.683  0.1268  0.0689  0.0205
 9022W        W26546  14.537   8.507  13.659  0.2159  0.0670  0.1056
 9023W        W26547  10.321   0.248   0.416  0.4668 -0.1383  0.1192
 9024W        W26548   7.449  17.079   0.731 -0.2393 -0.0065 -0.0179
 9025W        W26549   5.817   0.208   1.541  0.1947  0.1294 -0.0651
 9026W        W26550   6.882   8.751  13.359  0.0978  0.3025 -0.1463
 9027W        W26551  17.393  13.906   1.473  0.1473  0.2292  0.2006
 9028W        W26552   0.934  14.555   2.360 -0.1300  0.2583 -0.1277
 9029W        W26553   2.376  11.647  10.473  0.1612  0.0381 -0.1403
 9030W        W26554  13.576  16.966  13.354  0.3020 -0.0234  0.2251
 9031W        W26555  12.455  10.114   2.022  0.0897  0.2733  0.0082
 9032W        W26556   0.186  15.576  16.241  0.0836  0.0526 -0.4779
 9033W        W26557  17.405   4.229  11.394 -0.1674  0.1447  0.2820
 9034W        W26558   6.688   2.929   2.593 -0.1142 -0.1519  0.1709
 9035W        W26559   8.230   8.550  14.425 -0.0205 -0.0219 -0.1151
 9036W        W26560  15.178   2.437  14.949  0.1091 -0.1805 -0.3937
 9037W        W26561  15.695   1.719  16.115 -0.0502  0.1689 -0.0860
 9038W        W26562   2.271   4.790  11.732  0.1081 -0.1460  0.1198
 9039W        W26563   2.263  15.820   2.068 -0.2095 -0.1301  0.1149
 9040W        W26564  13.956  10.777   2.617 -0.0475 -0.1806 -0.2045
 9041W        W26565  16.061   3.414   0.358  0.1898  0.1218  0.1073
 9042W        W26566  14.541  11.030  11.301 -0.0470 -0.0738 -0.1658
 9043W        W26567   7.007   8.627   1.791  0.0213  0.0372 -0.0200
 9044W        W26568   3.768   3.217  16.459 -0.1310  0.0864  0.0144
 9045W        W26569   0.523  10.518   3.294  0.2061  0.1473  0.0695
 9046W        W26570  13.260   0.308  14.873  0.1775 -0.0624 -0.3714
 9047W        W26571   9.507  10.267  11.800  0.3625  0.1418  0.0471
 9048W        W26572   2.796  11.402   0.987 -0.0725 -0.0422  0.0099
 9049W        W26573   0.827  10.495  11.724 -0.3273 -0.0733  0.1241
 9050W        W26574  16.371  16.270   4.497  0.0662 -0.0889  0.0978
 9051W        W26575  11.104   3.837   4.017 -0.1190 -0.0723 -0.1583
 9052W        W26576  17.453   0.391   3.145 -0.1666  0.2326 -0.1334
 9053W        W26577   5.520   1.459  11.840  0.1753  0.2843  0.0117
 9054W        W26578  14.655   3.006  14.187 -0.1719  0.0797 -0.1337
 9055W        W26579  12.975  11.713  16.249  0.2432 -0.0792 -0.1368
 9056W        W26580  13.909  13.388  16.183 -0.1027  0.2012 -0.3433
 9057W        W26581   5.624   8.762   3.868 -0.0953 -0.1865  0.0364
 9058W        W26582   2.491  13.733  10.574 -0.0396 -0.0458  0.1770
 9059W        W26583  14.279  10.610  11.059  0.1807 -0.0898  0.1357
 9060W        W26584  10.023   1.179   0.478  0.4480 -0.4021 -0.3956
 9061W        W26585   2.067   5.398  12.800 -0.2618  0.1648  0.1590
 9062W        W26586   6.038   6.216  15.531  0.1800 -0.0573 -0.2988
 9063W        W26587  17.147  11.346   0.009 -0.2614  0.0210 -0.4158
 9064W        W26588   9.099   0.224  13.587 -0.0311  0.1556 -0.0053
 9065W        W26589   5.878  12.343   1.898 -0.0241  0.3241  0.0198
 9066W        W26590  13.638   0.551  13.472  0.0219  0.0748 -0.1127
 9067W        W26591   5.348  15.763   0.365  0.2017 -0.1622  0.0566
 9068W        W26592   3.921   6.711   3.010 -0.1429 -0.3832  0.2172
 9069W        W26593   0.718  13.415  12.553  0.0268 -0.1247  0.1728
 9070W        W26594  14.188  10.910   3.366 -0.2465 -0.2545 -0.3270
 9071W        W26595  11.538   4.357  13.554 -0.0927 -0.1655  0.0183
 9072W        W26596  14.594  11.971   2.551 -0.0681 -0.0675  0.0616
 9073W        W26597  11.718   6.518   5.064 -0.0100  0.4432 -0.1881
 9074W        W26598  15.933  11.723  16.246  0.0022  0.2465 -0.0552
 9075W        W26599   6.287   1.272   5.211 -0.2958  0.0557  0.0391
 9076W        W26600   8.709   7.168   1.997 -0.4100  0.0109  0.0678
 9077W        W26601  11.560   7.939   0.103 -0.0813 -0.3128  0.0190
 9078W        W26602   0.240   7.785  15.921  0.4654 -0.1986 -0.3051
 9079W        W26603  10.382   6.448  16.150  0.1477  0.2053  0.2838
 9080W        W26604   2.967   0.710   5.521 -0.0689  0.0649  0.1667
 9081W        W26605   2.038  12.481  15.896 -0.0742 -0.1413  0.1588
 9082W        W26606   6.122   8.319   2.162 -0.1842  0.1453 -0.1769
 9083W        W26607   8.767   6.346   0.675  0.1274  0.1442 -0.2894
 9084W        W26608   9.055  16.510   5.369  0.1793  0.4645  0.0123
 9085W        W26609  12.071   5.899  12.870 -0.0549  0.1190  0.1263
 9086W        W26610  13.875   1.544  16.446 -0.1690  0.1038  0.4838
 9087W        W26611  11.887   3.550   1.624  0.1473 -0.3927 -0.2123
 9088W        W26612  13.361  14.870   3.119  0.1868  0.1358 -0.1748
 9089W        W26613  12.378   4.165  11.555 -0.1156 -0.2672 -0.0515
 9090W        W26614   7.848   6.185   2.847 -0.0016  0.0644  0.1579
 9091W        W26615  12.262   1.352   2.130 -0.3123  0.0702 -0.0316
 9092W        W26616   8.053   5.797  14.087 -0.0332  0.0644 -0.0894
 9093W        W26617  17.750   4.472  12.983  0.1429 -0.1350  0.1804
 9094W        W26618   9.750   4.516  11.693  0.3209 -0.2312 -0.1414
 9095W        W26619  10.266  15.952  15.776 -0.0314 -0.1538  0.0441
 9096W        W26620   1.168   3.360   0.216  0.1094 -0.0466  0.1656
 9097W        W26621  13.941   1.090   3.960 -0.0507  0.0786  0.0769
 9098W        W26622   0.029   4.499  13.476  0.1952 -0.0544  0.0457
 9099W        W26623  17.498   0.781  15.164 -0.1250 -0.1149  0.0719
 9100W        W26624   3.121   7.945  12.752  0.3901 -0.3218  0.2574
 9101W        W26625   1.046  17.817  15.791  0.1824 -0.0761 -0.0861
 9102W        W26626  15.215   1.623   1.720 -0.2673  0.3276  0.2242
 9103W        W26627   9.710   7.090   1.671  0.2044  0.0551 -0.1559
 9104W        W26628   8.869   8.615  16.446 -0.2469  0.0587 -0.0108
 9105W        W26629   1.165  17.750   3.599 -0.1235 -0.2528  0.1928
 9106W        W26630   5.060   6.414  13.049 -0.0095  0.2106 -0.1569
 9107W        W26631  17.406   1.745   1.478  0.1416 -0.1200 -0.0153
 9108W        W26632   1.967   6.208  13.821  0.2516  0.0054 -0.4389
 9109W        W26633  10.254   8.165  12.229  0.2936  0.2481 -0.0294
 9110W        W26634  15.437   8.357  13.796 -0.0947  0.0713  0.0332
 9111W        W26635   6.072   6.338  14.698 -0.1598 -0.0522 -0.5038
 9112W        W26636   0.663   9.728   2.364 -0.2386 -0.3602 -0.2300
 9113W        W26637  16.321  11.573  15.262 -0.1362 -0.2846  0.1761
 9114W        W26638   9.056   9.560   4.577 -0.0447 -0.0682  0.0982
 9115W        W26639  14.830  16.582   0.945  0.1318  0.0619  0.0613
 9116W        W26640  13.317  14.158  15.163 -0.1596 -0.1309  0.1991
 9117W        W26641   7.394   4.220   4.191 -0.1613  0.1585 -0.4094
 9118W        W26642   4.509  10.733   1.196  0.0167  0.2399  0.1203
 9119W        W26643  13.382  14.026  13.587  0.2909  0.4398 -0.2318
 9120W        W26644  14.577   7.030   3.885 -0.5043  0.0111 -0.1272
 9121W        W26645  15.750  14.156  15.768 -0.1140  0.0440  0.0211
 9122W        W26646   4.160  10.340   3.825 -0.0958  0.3949  0.2130
 9123W        W26647   9.472   0.711   0.250  0.6116 -0.1823 -0.2211
 9124W        W26648   1.143  16.842  15.778  0.1058  0.1318 -0.1382
 9125W        W26649  17.259  17.809  15.907  0.0456 -0.1569 -0.0225
 9126W        W26650  12.682   2.066  15.350 -0.3299  0.0286 -0.1395
 9127W        W26651  11.720  12.869   2.545 -0.0167 -0.0733  0.2738
 9128W        W26652  15.565  11.073   0.815 -0.4069  0.0701  0.0855
 9129W        W26653  11.896  15.611  14.732 -0.0561  0.1194  0.2721
 9130W        W26654   8.618   4.078  12.401  0.1692 -0.0414  0.2083
 9131W        W26655   8.784  11.313   5.756 -0.3095  0.0294 -0.2474
 9132W        W26656  11.363   2.300  14.107 -0.1284  0.2433  0.1502
 9133W        W26657   1.686   0.043   2.128  0.0906  0.1032 -0.2602
 9134W        W26658  12.555  16.045   2.318  0.0138  0.0151  0.4878
 9135W        W26659  15.343  10.967   1.594  0.3264 -0.0288  0.0904
 9136W        W26660  10.670  11.929   3.270 -0.1968  0.1318 -0.0201
 9137W        W26661  10.753   2.665  15.351  0.0697 -0.1545 -0.0802
 9138W        W26662   5.449   9.123   4.206  0.1380  0.2328  0.0541
 9139W        W26663   1.900   0.215  13.164  0.0561  0.3004  0.0179
 9140W        W26664  10.651  10.136  15.281  0.0106  0.3929  0.2313
 9141W        W26665   9.174  13.920   4.362  0.2920  0.1429 -0.2564
 9142W        W26666  16.689   4.720   4.582 -0.0781 -0.0954 -0.0009
 9143W        W26667   4.345  13.860  13.927  0.1721 -0.2278  0.3380
 9144W        W26668  14.624   2.233  12.837 -0.4088 -0.0409  0.0671
 9145W        W26669  12.119   4.845  14.724  0.0183  0.2508  0.0321
 9146W        W26670   8.058   1.158  13.608 -0.0440 -0.1007 -0.0013
 9147W        W26671  15.203  16.495   5.575  0.3281 -0.1705  0.0665
 9148W        W26672   5.017   8.946   4.458 -0.1634 -0.2959  0.2363
 9149W        W26673   9.598  12.814   4.430 -0.2335  0.0393  0.0657
 9150W        W26674   6.564  12.206   4.265 -0.0986  0.1844  0.0643
 9151W        W26675  16.735   2.406   4.706  0.1384 -0.0358 -0.0825
 9152W        W26676   6.333   2.821  13.351  0.2419  0.0235  0.0995
 9153W        W26677  17.389   6.472   0.764 -0.3211 -0.0632  0.4346
 9154W        W26678   9.769   8.979   4.963  0.0321  0.1284  0.2899
 9155W        W26679   4.069   9.526  14.594  0.1911  0.0364 -0.4992
 9156W        W26680  15.968   4.970  13.203  0.0707  0.1013  0.3439
 9157W        W26681   5.210   3.271  13.916  0.0153  0.0893 -0.1312
 9158W        W26682   1.373  16.434  16.063 -0.1646 -0.1421  0.1460
 9159W        W26683   1.086  12.235  13.217 -0.0236  0.0671 -0.0451
 9160W        W26684  15.285   1.987  15.959  0.2745  0.0823  0.1638
 9161W        W26685   9.323  10.162  14.429  0.0175  0.0143  0.2743
 9162W        W26686   1.247   4.648  13.242  0.0986 -0.2301  0.3414
 9163W        W26687  10.238  14.150   0.463  0.2404 -0.0750  0.1333
 9164W        W26688  16.546  16.340   0.672 -0.1922 -0.1832 -0.0241
 9165W        W26689  17.609  16.297  14.657  0.2580 -0.0089  0.4842
 9166W        W26690   2.845   3.691   0.953  0.2435 -0.1223  0.1937
 9167W        W26691   2.603   2.660   4.375  0.1013 -0.1973  0.1175
 9168W        W26692   1.336   9.090  14.504 -0.1005  0.1429 -0.1023
 9169W        W26693   0.568  14.321  14.871  0.3814  0.1182  0.2422
 9170W        W26694   8.670   7.653   1.828 -0.1400 -0.1849 -0.0711
 9171W        W26695   6.698   3.216   0.751  0.1930 -0.0097 -0.0824
 9172W        W26696  10.081  10.684  14.474 -0.1387  0.1061  0.1749
 9173W        W26697  14.474   6.891   5.463 -0.0066  0.0731  0.0604
 9174W        W26698   1.342   1.430  15.503 -0.3139  0.1525 -0.0618
 9175W        W26699  14.525   5.984  15.067 -0.2223  0.0821  0.3115
 9176W        W26700   7.791   1.635   4.193 -0.3530 -0.0569  0.0494
 9177W        W26701   0.468  13.811   4.843 -0.1270 -0.1535 -0.1332
 9178W        W26702  13.834  11.571   2.967 -0.0696  0.3334 -0.0832
 9179W        W26703  11.717  17.936   0.356  0.2652 -0.1619 -0.0121
 9180W        W26704  10.486  14.524   0.089 -0.3228  0.0421  0.0243
 9181W        W26705   9.686   0.257   0.516  0.1669  0.4337  0.6692
 9182W        W26706  17.857   4.588   4.352 -0.0298 -0.2767 -0.0340
 9183W        W26707   5.640   2.394  14.349  0.1145  0.2754  0.1398
 9184W        W26708   2.951   6.746   3.452  0.0253  0.0304  0.1396
 9185W        W26709   7.750   4.682   2.851  0.0128 -0.2074  0.2412
 9186W        W26710  13.774   5.412  13.625  0.1469 -0.1040 -0.1692
 9187W        W26711  12.808   5.152   1.424  0.1519 -0.1951  0.4941
 9188W        W26712  10.090   1.913   3.243 -0.0420  0.3236 -0.0175
 9189W        W26713   7.847   3.074   5.188  0.2697  0.2517  0.1106
 9190W        W26714   5.132   3.081  15.097  0.5089 -0.0424 -0.0971
 9191W        W26715  15.309  15.407  15.127 -0.0947  0.2364  0.1672
 9192W        W26716   8.333  17.353   3.221  0.0804  0.4427 -0.0346
 9193W        W26717   3.436   3.466  13.234  0.1851  0.0357 -0.3416
 9194W        W26718   8.552   3.507  12.958 -0.2471 -0.1311 -0.1561
 9195W        W26719   6.243   6.233  11.883 -0.1726 -0.2844  0.0861
 9196W        W26720  10.877  15.754   3.525  0.2566  0.0354 -0.2047
 9197W        W26721  16.696  17.213   3.863 -0.1949  0.1551  0.0345
 9198W        W26722   0.777   4.574   3.996 -0.2904 -0.0432  0.0967
 9199W        W26723  14.269   6.271  10.883 -0.1260  0.0333  0.0769
 9200W        W26724  15.657  12.123   2.463  0.0798  0.1083  0.1368
 9201W        W26725  14.383   6.560   3.748  0.1002  0.0841 -0.0448
 9202W        W26726  17.588   2.451  13.073 -0.0641  0.0573 -0.1335
 9203W        W26727  16.411  15.510   5.075  0.1484 -0.0580 -0.0368
 9204W        W26728  14.414  13.798   3.260 -0.0233 -0.0919  0.0209
 9205W        W26729  14.178  16.035   4.793 -0.0083  0.2030  0.1049
 9206W        W26730   3.834  11.342  13.176  0.2451  0.1536 -0.3283
 9207W        W26731  15.692  11.951   3.471 -0.3259  0.2189 -0.0338
 9208W        W26732   0.212  10.861  14.466  0.2357  0.0380 -0.1360
 9209W        W26733  10.856  15.572   1.855  0.0019 -0.0446  0.0580
 9210W        W26734   1.813   2.909  14.675  0.1436  0.4532  0.0701
 9211W        W26735   4.273  17.555  14.222  0.1162  0.2174  0.1197
 9212W        W26736   6.013  12.185   3.895 -0.1997 -0.0587 -0.1523
 9213W        W26737  10.252  14.286   4.724 -0.4276  0.2885  0.3384
 9214W        W26738   6.995  16.344   0.287  0.2226 -0.0437 -0.2424
 9215W        W26739  16.087   7.499   0.940  0.4253  0.0963  0.0327
 9216W        W26740   0.997   2.877  12.016 -0.2456 -0.2530  0.2702
 9217W        W26741  13.856  10.426   3.003 -0.1767 -0.0491 -0.3415
 9218W        W26742  17.067   0.684   4.389 -0.0143 -0.5131  0.2465
 9219W        W26743  17.851   6.383  14.433  0.1713  0.2200  0.2468
 9220W        W26744  16.714   8.172   4.370 -0.2496  0.0013  0.0965
 9221W        W26745  10.293   9.037   4.977 -0.2006  0.0653  0.0880
 9222W        W26746  14.833   2.520   1.124 -0.1985  0.0845 -0.1078
 9223W        W26747   2.627   2.247   3.171  0.1553 -0.2891  0.1271
 9224W        W26748  11.190  15.010  11.849  0.1252 -0.0955  0.0465
 9225W        W26749   5.467  17.144  15.493 -0.1872  0.2333 -0.1411
 9226W        W26750   4.858   3.245  14.337  0.1442  0.3399 -0.0932
 9227W        W26751   5.675   8.029   3.608  0.2201  0.1833 -0.0452
 9228W        W26752   7.245   3.886  12.825  0.0167 -0.1807  0.1032
 9229W        W26753   3.607   2.264   2.539 -0.5117 -0.0004  0.0681
 9230W        W26754  15.840  12.193  11.392 -0.0797 -0.3589  0.2543
 9231W        W26755   4.900   6.820  11.902  0.2000  0.1735  0.2545
 9232W        W26756  12.256   7.580  13.436 -0.0657 -0.0823 -0.1303
 9233W        W26757  13.883  11.233   5.580 -0.2211 -0.0199  0.1628
 9234W        W26758  15.799   2.815   5.017  0.0334 -0.0732 -0.0360
 9235W        W26759  16.625  10.671  13.923  0.1637  0.1803  0.2854
 9236W        W26760  13.935  14.551   3.643  0.0821  0.2309 -0.0579
 9237W        W26761  15.726   6.906   4.904  0.2428 -0.1054  0.3272
 9238W        W26762  13.860  13.056   2.064 -0.0143  0.0343  0.0332
 9239W        W26763   4.211   4.615  14.717 -0.0439  0.1068 -0.0519
 9240W        W26764  12.756   0.779  16.185  0.2604  0.1388  0.2295
 9241W        W26765   1.018  10.851  11.391  0.1367  0.3663 -0.3696
 9242W        W26766  12.068   5.250   3.404  0.2463 -0.3282 -0.0059
 9243W        W26767   7.279   7.502   4.032  0.3020  0.2074 -0.1636
 9244W        W26768   5.245   4.852  11.444 -0.1193 -0.1830  0.2003
 9245W        W26769  17.562  16.979  12.297  0.1255 -0.0393  0.0069
 9246W        W26770  11.682  14.425   0.675 -0.1537  0.1781 -0.0370
 9247W        W26771  11.578  16.712   2.474 -0.1622  0.0606 -0.1532
 9248W        W26772   1.291  13.068   0.496 -0.1206  0.1068 -0.0460
 9249W        W26773   7.464   9.016  12.892  0.0664 -0.0614 -0.2298
 9250W        W26774  14.511  16.006   1.775 -0.1070 -0.0911  0.1241
 9251W        W26775  15.616   7.527   4.932  0.4987  0.2057 -0.0230
 9252W        W26776   1.899   3.426  16.356 -0.0563  0.1432 -0.2520
 9253W        W26777   2.283   5.648   4.818  0.0113 -0.3677 -0.1634
 9254W        W26778  13.332   3.682   3.561  0.3317 -0.1363  0.0955
 9255W        W26779  15.608   8.659   4.273 -0.0190  0.2594  0.0412
 9256W        W26780  14.219  14.484  14.109 -0.1735  0.0348 -0.1161
 9257W        W26781   3.637  13.227   4.141 -0.3137 -0.2703 -0.0038
 9258W        W26782   7.547   3.024  13.150 -0.3968  0.2046 -0.0649
 9259W        W26783   8.773   7.631  16.426  0.0600 -0.1823  0.0864
 9260W        W26784  10.494   2.857  16.161 -0.0849 -0.2201 -0.1104
 9261W        W26785   2.205   3.212   1.366  0.0240  0.1210 -0.1671
 9262W        W26786   9.403   5.591   5.005  0.1461  0.0209  0.1787
 9263W        W26787   7.356   0.703   4.419  0.5334  0.0429 -0.0957
 9264W        W26788  17.034  14.619  14.958 -0.3367 -0.1844  0.1797
 9265W        W26789   0.253  16.583  15.476 -0.2466  0.3615  0.0638
 9266W        W26790   0.510  12.491   4.500 -0.0842 -0.1235 -0.0535
 9267W        W26791   3.503   1.965   2.047 -0.0051  0.1035 -0.1922
 9268W        W26792   7.718  10.854   3.817 -0.1736  0.2326 -0.0309
 9269W        W26793  10.304   2.344   5.431  0.0698 -0.0279  0.0324
 9270W        W26794  14.429   2.778  12.890  0.1397  0.0912  0.1905
 9271W        W26795  11.617  14.321   2.948 -0.0647  0.0804 -0.0614
 9272W        W26796  13.250   1.287  12.689 -0.1450  0.1871  0.0820
 9273W        W26797  14.949   2.382  12.288  0.0681 -0.2777  0.1666
 9274W        W26798  16.241   4.373  11.545 -0.4740 -0.1176  0.1363
 9275W        W26799   2.102  15.412  15.481  0.2052 -0.2925 -0.0404
 9276W        W26800  12.143  14.985  12.427  0.3429  0.0324 -0.1295
 9277W        W26801   1.934  13.126   1.874  0.1188  0.0223 -0.1720
 9278W        W26802   9.446  16.191   2.709 -0.0622 -0.1850  0.1155
 9279W        W26803   9.609  12.267   2.290 -0.0598 -0.1224  0.2352
 9280W        W26804   9.107   4.114  12.589 -0.1005 -0.1595 -0.1142
 9281W        W26805   4.657  13.484  13.137  0.0059 -0.0325  0.0949
 9282W        W26806   2.514   9.364  15.325 -0.2117  0.0071  0.0958
 9283W        W26807   6.801   3.473   3.178 -0.0423 -0.0212 -0.3376
 9284W        W26808  12.579   7.251   0.406  0.0197  0.1510 -0.2170
 9285W        W26809   1.475   1.782   2.236 -0.3165  0.2098 -0.0453
 9286W        W26810   3.440  16.161   2.284  0.3198 -0.2016  0.1321
 9287W        W26811   8.017   8.633   2.485  0.1118  0.0165  0.1059
 9288W        W26812   0.623  12.428  12.929 -0.0108 -0.0431 -0.1984
 9289W        W26813   9.441   9.839   2.209 -0.2854 -0.0538 -0.0282
 9290W        W26814   4.025   2.934  10.807 -0.3419 -0.2196  0.0579
 9291W        W26815   1.374  17.738  16.169 -0.0515  0.2649  0.2410
 9292W        W26816   6.664  10.742   3.929  0.0298 -0.1522  0.1558
 9293W        W26817   1.957  11.686   0.868  0.0560  0.0937 -0.0468
 9294W        W26818  15.267   2.767  11.376  0.0968 -0.4406  0.1532
 9295W        W26819   2.963  13.342  15.734 -0.3257 -0.1309  0.1171
 9296W        W26820  10.395   0.704   4.475 -0.1920  0.1720 -0.0293
 9297W        W26821   6.674   9.309  11.570  0.0664  0.5131  0.0215
 9298W        W26822  17.230  10.003   3.390 -0.1781  0.1488  0.1425
 9299W        W26823   6.945   5.522   0.513 -0.0479  0.3763 -0.2657
 9300W        W26824  14.151   2.314  12.765  0.0245  0.2071 -0.0120
 9301W        W26825   9.041  14.900  15.587  0.0937 -0.3404  0.1377
 9302W        W26826  11.651   0.808  15.375  0.1653 -0.0172 -0.0421
 9303W        W26827  12.528   7.063   3.712 -0.1719  0.0770 -0.0881
 9304W        W26828   9.214  14.225  12.488  0.0261  0.2601  0.0872
 9305W        W26829  12.922   4.488   0.630  0.2111 -0.0868 -0.0118
 9306W        W26830   9.194  14.349   5.501 -0.0667 -0.2735 -0.2711
 9307W        W26831  17.535   1.566   4.344  0.0642 -0.1709 -0.2305
 9308W        W26832   8.981   3.536  11.634 -0.0664  0.2107  0.1228
 9309W        W26833  10.251  11.930  13.111  0.1641 -0.0751  0.0772
 9310W        W26834  16.161   5.508   2.812  0.0722  0.1559  0.0252
 9311W        W26835   9.530  15.452  12.745 -0.0847  0.3021 -0.0554
 9312W        W26836   8.247  13.250  15.183 -0.1557 -0.0363  0.0706
 9313W        W26837   6.879   6.258  14.092 -0.0880 -0.0456  0.1556
 9314W        W26838   3.051  15.812   4.673 -0.0915  0.2532  0.2329
 9315W        W26839   7.998  17.309  14.919 -0.0374  0.2163 -0.2014
 9316W        W26840   6.061  12.281  12.530 -0.1525 -0.0458 -0.0593
 9317W        W26841   4.144   1.374   1.118  0.0438  0.0108 -0.1573
 9318W        W26842   9.605   5.601   2.591  0.0033  0.3360  0.1158
 9319W        W26843  13.484   0.260  11.850  0.1874 -0.0325  0.1668
 9320W        W26844   2.541  16.180  14.704  0.1780 -0.1688  0.1069
 9321W        W26845   8.336   4.752  11.718  0.0710 -0.1553 -0.0807
 9322W        W26846   3.494   7.459   2.951 -0.0295  0.0273  0.3831
 9323W        W26847   1.067   2.454   4.320  0.2994 -0.2788 -0.1270
 9324W        W26848   9.730   8.175  14.219  0.1020 -0.2172 -0.2238
 9325W        W26849   1.842  13.971  12.334 -0.1538  0.2303  0.0307
 9326W        W26850  10.645  16.574  12.701  0.2581  0.3241 -0.0862
 9327W        W26851  16.398  12.386  15.166  0.0135 -0.1064 -0.0058
 9328W        W26852   4.774  12.507   5.141  0.0057  0.2505 -0.0210
 9329W        W26853  13.104   6.136   4.258 -0.0963 -0.1232  0.0406
 9330W        W26854  12.592   8.130  15.272 -0.1483 -0.0748 -0.1456
 9331W        W26855   2.623  14.225   2.849  0.2385 -0.1986  0.1748
 9332W        W26856  13.473   3.485  15.992  0.1018  0.0338  0.1572
 9333W        W26857  14.185  17.676   0.945 -0.3397 -0.2164  0.2002
 9334W        W26858  13.792  15.194   3.252 -0.5134 -0.0438  0.3994
 9335W        W26859  14.884  16.786  16.233 -0.3708  0.1407  0.0260
 9336W        W26860  12.923   4.169   5.251 -0.3977  0.1149  0.1088
 9337W        W26861  13.510  13.462  12.273 -0.1530  0.2678  0.0343
 9338W        W26862   1.925  11.287  15.227 -0.3623  0.2334 -0.0778
 9339W        W26863  16.426  16.879   1.458  0.4974  0.3246  0.2455
 9340W        W26864   3.862   2.256   0.206  0.0749 -0.2025  0.1556
 9341W        W26865   7.467  11.030  16.103 -0.0932  0.1192 -0.0039
 9342W        W26866   1.637   7.360   0.244  0.2959  0.0877 -0.1659
 9343W        W26867   1.109  13.479  15.904 -0.0027  0.0809  0.1718
 9344W        W26868  14.830  13.378   4.043 -0.3426  0.2420 -0.0172
 9345W        W26869  10.933   8.962   4.212 -0.0340  0.2908 -0.2268
 9346W        W26870   9.654  17.774   1.009  0.2332  0.0999  0.1803
 9347W        W26871  15.213  17.954   2.114  0.2350 -0.0764  0.2244
 9348W        W26872   9.620  17.377   2.953 -0.0222 -0.0552 -0.0116
 9349W        W26873   5.579   5.249  11.275  0.2259  0.3080  0.1039
 9350W        W26874   1.537   8.921   0.377 -0.0710  0.1653  0.0576
 9351W        W26875   1.762   4.691  15.277 -0.1075  0.0971  0.1089
 9352W        W26876  14.197  16.056  11.750 -0.1756 -0.0153  0.1835
 9353W        W26877   4.444   2.296  13.207  0.0650  0.1211  0.0587
 9354W        W26878  16.781  10.200  15.439  0.1725  0.0738 -0.1449
 9355W        W26879   2.091  13.185  12.181 -0.0170  0.0596 -0.0629
 9356W        W26880   0.325  17.087  15.794 -0.0767 -0.2276 -0.3513
 9357W        W26881  15.898  16.076  16.201 -0.0466  0.3234  0.1152
 9358W        W26882   2.330   1.358   4.073 -0.0247 -0.2498  0.1820
 9359W        W26883   8.320   4.064  14.955 -0.0293  0.1951 -0.0179
 9360W        W26884   7.891   3.793   4.148  0.0608 -0.0982 -0.0716
 9361W        W26885   8.959  14.737  12.317 -0.0915 -0.2758 -0.0463
 9362W        W26886  16.494  15.202  14.319  0.1603 -0.0564 -0.1843
 9363W        W26887  14.994  11.282   2.393  0.4599 -0.0963  0.1161
 9364W        W26888   1.495  17.847  14.251 -0.2284 -0.1007  0.0362
 9365W        W26889   4.943   2.531  10.459  0.1214 -0.1048  0.1691
 9366W        W26890  13.335  10.407   0.030 -0.0514  0.2371 -0.0592
 9367W        W26891   6.990   2.512   5.013  0.2669 -0.3267  0.2072
 9368W        W26892  17.857   6.316  12.881  0.0701  0.0077  0.1469
 9369W        W26893   2.761   2.123  12.025  0.0104  0.1179 -0.1995
 9370W        W26894  17.682   6.792   3.326  0.1067  0.0144  0.1046
 9371W        W26895   5.650   7.917   0.390 -0.1159  0.3874  0.1636
 9372W        W26896   3.487   6.209  11.008 -0.2131 -0.2463  0.0379
 9373W        W26897   1.110  16.183   0.900 -0.3316 -0.3921 -0.2042
 9374W        W26898  12.305   5.015   3.923  0.1687  0.3442  0.2156
 9375W        W26899  12.615   1.820  12.193 -0.1004  0.0838  0.1485
 9376W        W26900   5.724   2.483  13.887  0.3374 -0.2905  0.1572
 9377W        W26901   0.354   7.843  11.584 -0.2282 -0.0709  0.0521
 9378W        W26902   6.149   7.091  16.412 -0.0039  0.1864 -0.0530
 9379W        W26903  15.217   3.809   1.682  0.0894  0.0170 -0.1778
 9380W        W26904   7.639   9.412  12.537  0.1206 -0.1020 -0.0094
 9381W        W26905   1.413  11.988  12.621  0.0581  0.1017 -0.1295
 9382W        W26906  17.075   1.072  14.064 -0.3273 -0.1259 -0.0177
 9383W        W26907  17.557   2.029   3.090  0.1097  0.2089  0.0108
 9384W        W26908   3.898   5.431   0.045 -0.2025  0.1905  0.2475
 9385W        W26909  13.816   7.628  16.410  0.0267 -0.0002 -0.2202
 9386W        W26910  11.648   8.373  14.926  0.0178 -0.2214 -0.0011
 9387W        W26911   1.190  11.573   2.726  0.1715  0.0129 -0.2003
 9388W        W26912  11.198  13.219   5.192  0.0935  0.0476 -0.1510
 9389W        W26913  10.883  15.960  15.877 -0.1162  0.0822 -0.1233
 9390W        W26914  15.938   9.399   5.429 -0.1498 -0.3319  0.1131
 9391W        W26915  11.065   3.689  15.189  0.0815  0.0655 -0.0968
 9392W        W26916   8.753   7.883   5.116 -0.1304 -0.1415 -0.0536
 9393W        W26917  15.279   6.843   4.630  0.3353  0.1097 -0.3301
 9394W        W26918  14.196   4.537   4.835  0.1054 -0.0823 -0.1356
 9395W        W26919   7.972  16.519   4.949  0.2453  0.2398 -0.2018
 9396W        W26920   6.780  10.565  16.153  0.0594 -0.2953 -0.0581
 9397W        W26921   9.098   5.314  13.237 -0.2144 -0.1233  0.2431
 9398W        W26922   4.531   9.574  14.417 -0.0004  0.0344  0.1007
 9399W        W26923  13.171   6.663   2.968 -0.0920  0.2384 -0.2089
 9400W        W26924  17.024   3.048  16.423 -0.1801 -0.3080 -0.2149
 9401W        W26925   0.595  10.725  14.763 -0.0948 -0.1216  0.1928
 9402W        W26926   9.926  14.797   3.732 -0.3927  0.2950 -0.2238
 9403W        W26927  16.621  17.436  11.828 -0.0986  0.1198 -0.1977
 9404W        W26928   4.814   8.982   4.021 -0.2290 -0.1438  0.2760
 9405W        W26929   3.950  14.514  13.013 -0.3011  0.0492  0.1635
 9406W        W26930   2.755  10.237  11.201  0.0208 -0.2414 -0.1570
 9407W        W26931   9.279   3.099  15.643 -0.0913  0.0601  0.0085
 9408W        W26932   6.077   8.623  13.077  0.1271  0.1840  0.2585
 9409W        W26933   9.463   6.036   4.767 -0.0140 -0.0141 -0.1756
 9410W        W26934   1.423   3.811  15.778 -0.3918  0.3544 -0.1290
 9411W        W26935   6.088   4.407  12.839 -0.4522 -0.1458 -0.2218
 9412W        W26936   0.590  15.430   1.720  0.1212  0.0824  0.1099
 9413W        W26937  13.610  14.275  13.004 -0.0260  0.1971  0.2219
 9414W        W26938  16.321   0.363  14.884  0.0204  0.2850  0.0176
 9415W        W26939   4.395  15.151   0.880  0.0713  0.1093 -0.0982
 9416W        W26940  15.049  11.270  15.641 -0.2111 -0.2940  0.2396
 9417W        W26941   4.153  15.166  15.315 -0.2333 -0.1504 -0.1727
 9418W        W26942   4.855   9.489  12.941  0.0248  0.1016 -0.0687
 9419W        W26943   8.656   8.189  11.604  0.2823 -0.4750  0.1547
 9420W        W26944  16.443  12.343   3.506  0.0759  0.1423  0.0641
 9421W        W26945  14.572  12.162   1.563 -0.1770 -0.2273 -0.0522
 9422W        W26946  10.845   9.692  13.514  0.0653  0.0094 -0.0309
 9423W        W26947  10.085   7.191  11.648  0.2287  0.1003  0.0501
 9424W        W26948  15.296  12.415   0.439 -0.4840 -0.0138 -0.0922
 9425W        W26949  14.043  15.596   4.536  0.0034  0.1248 -0.2462
 9426W        W26950   1.283   5.121  16.396  0.1142  0.0505  0.0151
 9427W        W26951   9.083   1.508   0.300  0.3036 -0.2595  0.4232
 9428W        W26952  11.524   8.539  13.183  0.1897 -0.0129 -0.1640
 9429W        W26953  10.147   3.249   4.908  0.0276  0.1604  0.1055
 9430W        W26954  10.361  14.986   4.026  0.0109 -0.0150  0.2151
 9431W        W26955   7.029  13.818  15.129 -0.0634 -0.1662  0.0632
 9432W        W26956   1.658  10.990  15.662  0.0478  0.0634  0.0611
 9433W        W26957   8.880   7.774  13.317 -0.0825  0.1000 -0.0044
 9434W        W26958  15.932  10.841  12.192  0.0921 -0.2761 -0.1728
 9435W        W26959  15.354   4.380  13.578  0.1991  0.1359 -0.0332
 9436W        W26960  15.154   2.267  11.351  0.1025  0.1027  0.1292
 9437W        W26961   6.502   5.271  14.760 -0.5790 -0.1602 -0.0925
 9438W        W26962  15.153   1.489   3.970 -0.1668  0.1235  0.2630
 9439W        W26963  16.888  17.155   4.367 -0.1483 -0.1607  0.2291
 9440W        W26964  10.853  16.640  15.204 -0.1156 -0.1512 -0.3604
 9441W        W26965   4.414   0.714  16.205 -0.0004  0.2568  0.0584
 9442W        W26966   2.377   8.104  11.538 -0.0472 -0.0981 -0.2250
 9443W        W26967  11.066   5.024  13.378  0.3040  0.1348 -0.0644
 9444W        W26968  12.130  16.632   4.345  0.0344 -0.1977 -0.1033
 9445W        W26969  14.496   0.753  16.246  0.0183 -0.0618  0.0879
 9446W        W26970   2.045   8.748   0.424 -0.1004 -0.1214 -0.1667
 9447W        W26971   5.448  16.159  14.631 -0.0835  0.0438  0.0396
 9448W        W26972   7.590  14.570   5.291  0.0542  0.0712  0.3480
 9449W        W26973   3.031  15.536   1.645 -0.0463  0.1524  0.1672
 9450W        W26974   0.755   4.283  15.304  0.0053  0.0002 -0.1709
 9451W        W26975   4.965   5.156   3.516 -0.2481 -0.0708  0.2581
 9452W        W26976  13.363  11.026  13.229  0.1293  0.3408  0.1268
 9453W        W26977   7.355   2.857   4.495  0.2325 -0.0461 -0.1242
 9454W        W26978  14.266   4.054  11.290 -0.4235  0.1164 -0.0381
 9455W        W26979  15.900   5.362  16.259 -0.1356 -0.2716 -0.0893
 9456W        W26980   3.255  11.634   0.895  0.3390 -0.0941  0.1791
 9457W        W26981  14.087  11.586   2.113  0.1409  0.1456 -0.1843
 9458W        W26982  15.240   9.131  14.703 -0.0726 -0.3691  0.1260
 9459W        W26983  17.019   8.359  14.653 -0.1896 -0.0967  0.0055
 9460W        W26984   4.388  10.092   2.951 -0.0112  0.0661  0.1671
 9461W        W26985   5.043   0.783  15.562  0.0052  0.0082  0.0532
 9462W        W26986   0.189   1.127  11.751 -0.0337  0.0519 -0.1187
 9463W        W26987   5.141  11.530  13.607  0.2828  0.0949  0.1207
 9464W        W26988   7.351  11.796  12.547 -0.3579 -0.1223  0.2964
 9465W        W26989  17.705  13.719  16.463 -0.2025 -0.5876 -0.0569
 9466W        W26990  15.701  16.350   4.628  0.2206  0.2881  0.1219
 9467W        W26991  17.940   3.074  15.419 -0.2093 -0.0553 -0.0561
 9468W        W26992  11.352   8.185   4.448 -0.0444 -0.1601  0.0924
 9469W        W26993   6.301   8.055   4.485 -0.0884 -0.0137 -0.1077
 9470W        W26994   5.514  16.422   2.509 -0.2063  0.1002  0.0354
 9471W        W26995  16.756   4.045   0.560 -0.2255 -0.1932  0.0347
 9472W        W26996   9.227   0.282  14.946 -0.0217 -0.0107 -0.3888
 9473W        W26997  13.743   4.712   0.247 -0.1026 -0.1380  0.1402
 9474W        W26998   4.993   7.749   2.592 -0.0436 -0.2706 -0.1617
 9475W        W26999   6.966  14.045   2.693 -0.2877  0.2462 -0.0174
 9476W        W27000  10.636  13.788   3.273  0.0078  0.0772  0.1124
 9477W        W27001   4.477   3.619  14.449 -0.1496  0.1608 -0.0790
 9478W        W27002   0.840  11.322   2.891 -0.0005 -0.0427 -0.0295
 9479W        W27003  17.044  14.213   4.213 -0.3082  0.0430  0.2772
 9480W        W27004   3.540  15.013  12.581 -0.0023 -0.0677  0.0145
 9481W        W27005   4.543  14.889  13.636  0.1286 -0.1046  0.0526
 9482W        W27006  10.830   9.837  16.096 -0.1740  0.2229 -0.2842
 9483W        W27007  15.749   1.004   4.673  0.0855  0.0983  0.1575
 9484W        W27008   5.461   5.556   2.149  0.0436  0.1219 -0.1113
 9485W        W27009   9.446  14.563   0.920 -0.0987  0.1550 -0.0279
 9486W        W27010  12.942   7.462   1.756  0.0519  0.1224  0.1312
 9487W        W27011   9.248   2.491  11.986 -0.4913  0.1062  0.0277
 9488W        W27012   0.331  10.405   1.272  0.0177  0.0810  0.0068
 9489W        W27013   9.780   9.392  13.453  0.0792  0.4236  0.0213
 9490W        W27014  11.929   4.333   3.759 -0.1665  0.1720  0.0189
 9491W        W27015   0.216   7.469  11.236  0.2182  0.0938 -0.1118
 9492W        W27016   2.760   7.670  14.569 -0.4490  0.0960  0.2420
 9493W        W27017  12.641  13.220   3.286 -0.0117  0.0600  0.2486
 9494W        W27018   2.700   8.551  15.635 -0.1263  0.0860  0.1997
 9495W        W27019  10.927  12.348   0.565 -0.2011  0.1033  0.0901
 9496W        W27020   7.113   2.043  15.204 -0.2492  0.3167  0.1495
 9497W        W27021   0.646  16.184   2.981 -0.0407  0.0643 -0.0033
 9498W        W27022   7.467  13.470  15.807 -0.1127  0.1232 -0.0357
 9499W        W27023   7.840   9.877   4.926 -0.1199  0.2270 -0.1711
 9500W        W27024   0.209   5.793   4.389  0.0680  0.1730  0.4556
 9501W        W27025   5.953  16.911  15.263  0.1167 -0.0359  0.2274
 9502W        W27026   7.700  13.754  16.226  0.0285 -0.3845 -0.0035
 9503W        W27027   6.730   9.928  13.773 -0.0177 -0.0715 -0.0887
 9504W        W27028  11.252   5.443   1.510  0.1649  0.1358  0.1496
 9505W        W27029   0.227   1.380  13.606 -0.2549 -0.0628 -0.1753
 9506W        W27030   4.116   6.527   1.463 -0.0162 -0.1159 -0.0531
 9507W        W27031   2.257  17.042   0.274 -0.2020  0.0024  0.1378
 9508W        W27032  14.209   9.795   0.104 -0.1003 -0.4273  0.0144
 9509W        W27033   2.550   5.974  15.804  0.2773  0.0164 -0.1522
 9510W        W27034   5.597  15.597  13.462 -0.0860  0.0774  0.2135
 9511W        W27035  16.649  14.333   4.555  0.2483 -0.1141  0.0576
 9512W        W27036   4.114   0.652  15.097  0.1165 -0.0607  0.0970
 9513W        W27037  10.988  17.615   4.391  0.0007  0.0092 -0.1911
 9514W        W27038   1.629  14.756  13.959 -0.0212  0.0964 -0.0159
 9515W        W27039   3.048  15.890  14.788  0.0517 -0.3308  0.2757
 9516W        W27040   0.185  13.619   2.448 -0.1308  0.2246  0.4630
 9517W        W27041   3.985   9.708   0.738  0.1848  0.1223 -0.0285
 9518W        W27042   4.439  12.317   0.661 -0.0429 -0.1814  0.0887
 9519W        W27043   1.813   0.788   1.707 -0.0487 -0.3035  0.1287
 9520W        W27044  11.465  11.083   2.062  0.0300 -0.0050 -0.0836
 9521W        W27045   8.516   3.439   4.181  0.1962 -0.2425 -0.0119
 9522W        W27046   0.102   7.396  15.622  0.2896 -0.0617 -0.2877
 9523W        W27047   8.165   0.852   4.121 -0.0784  0.2195  0.2120
 9524W        W27048   5.825   2.986   0.379 -0.0309  0.1459  0.1277
 9525W        W27049  10.767   4.537   0.590  0.2150  0.0375  0.1326
 9526W        W27050   3.926  14.670   2.498 -0.1607 -0.2886  0.1312
 9527W        W27051  15.020  14.401  11.899  0.0139 -0.1283 -0.2126
 9528W        W27052  16.052   7.385   5.481 -0.0058 -0.0111  0.1768
 9529W        W27053   2.951  12.286  15.569  0.1793 -0.0070 -0.0954
 9530W        W27054  10.254   1.269  12.831 -0.0051  0.3641  0.3217
 9531W        W27055   5.441  10.214   4.818  0.1835  0.0644 -0.0759
 9532W        W27056  16.969  13.322   1.502 -0.0130  0.0488 -0.2202
 9533W        W27057   4.122   6.084  11.898 -0.0714  0.0189 -0.2254
 9534W        W27058   4.244  11.129  15.216 -0.0864 -0.1658  0.1473
 9535W        W27059  11.943   7.989   2.211 -0.0595 -0.0714 -0.1843
 9536W        W27060   9.313   7.409  11.998 -0.1050 -0.1473 -0.1047
 9537W        W27061  14.291  14.655   2.834  0.1997  0.1357  0.0197
 9538W        W27062   5.701   1.068  15.961 -0.2624  0.0243 -0.1317
 9539W        W27063   8.777  13.363  12.477  0.1156 -0.2103  0.1954
 9540W        W27064  13.169   5.425  11.548 -0.0748  0.0673 -0.2834
 9541W        W27065   7.559   3.503   0.807 -0.3111 -0.1472 -0.1600
 9542W        W27066  13.291   2.518   3.093  0.2471 -0.0142  0.1006
 9543W        W27067   5.547  10.943   2.963  0.0523  0.1157 -0.0649
 9544W        W27068  11.753   0.145   0.837  0.1662  0.2917 -0.1763
 9545W        W27069  12.677   8.554  13.523  0.0713  0.0663 -0.4116
 9546W        W27070  14.033   3.955   0.487  0.2936 -0.3197 -0.1686
 9547W        W27071   4.677   2.817   4.072  0.1582 -0.1623 -0.0931
 9548W        W27072  15.395   1.164   1.906  0.1457  0.0689  0.1295
 9549W        W27073  14.907  16.949   4.472 -0.2283 -0.3311 -0.0431
 9550W        W27074  12.409   4.526  13.007 -0.0581  0.1311  0.2056
 9551W        W27075   4.097   7.695  16.136  0.1820 -0.0324 -0.0218
 9552W        W27076   7.643  13.237   2.891 -0.1667 -0.2970  0.1288
 9553W        W27077  17.608   8.135  11.946  0.1306  0.2867 -0.1470
 9554W        W27078   3.003   2.750   4.713 -0.0088  0.3374 -0.0277
 9555W        W27079   1.567  17.776   4.407 -0.0130  0.0902 -0.1234
 9556W        W27080  13.903   9.354  12.985  0.0047 -0.0110  0.0436
 9557W        W27081  12.724  10.346  13.864 -0.0676  0.0011  0.2348
 9558W        W27082  12.346   6.211   2.657  0.0513 -0.0977  0.1786
 9559W        W27083   6.629   2.645   0.319 -0.2300  0.2276  0.1956
 9560W        W27084  17.318  16.493   0.883  0.0109 -0.4441  0.2714
 9561W        W27085  11.666  14.889  13.988  0.2851 -0.0972 -0.0246
 9562W        W27086  14.934   3.680  12.370  0.1366 -0.1454  0.0664
 9563W        W27087  15.761  17.042   2.221  0.1151  0.0023  0.1032
 9564W        W27088   0.239  11.587  12.544  0.0245 -0.0603  0.0654
 9565W        W27089  17.826   6.375   1.634  0.1373 -0.3929  0.2699
 9566W        W27090   7.491  10.153  14.849  0.2104  0.0493 -0.2122
 9567W        W27091  14.227  10.348   1.295 -0.0482  0.0550 -0.3027
 9568W        W27092  11.710   8.580   3.829  0.0833 -0.0234 -0.3176
 9569W        W27093  11.785  15.772   0.030 -0.3582  0.5357 -0.1655
 9570W        W27094  10.781   2.242  16.277  0.0695  0.0072 -0.0605
 9571W        W27095   0.354   4.325  10.412 -0.4654 -0.0314  0.2065
 9572W        W27096  13.278  10.650  14.034  0.0368 -0.0143  0.1055
 9573W        W27097   3.779   9.038  14.715  0.3433  0.0060  0.2269
 9574W        W27098   2.077  17.209  12.429 -0.2631  0.0472  0.0066
 9575W        W27099  14.324  12.634   1.881 -0.0049  0.0625  0.3092
 9576W        W27100  11.136  12.951  16.460  0.0068 -0.2745  0.0547
 9577W        W27101  13.298   6.838   0.036  0.2720  0.1009 -0.1321
 9578W        W27102   8.806   5.074   2.130 -0.2917 -0.1414  0.0717
 9579W        W27103   2.268   8.700   3.331 -0.2881 -0.1543 -0.1579
 9580W        W27104   6.706   1.154  16.283 -0.0033 -0.1797  0.2244
 9581W        W27105   0.785   2.836   4.921 -0.0694  0.0487 -0.5348
 9582W        W27106  16.731  12.818   3.500  0.3051 -0.0898  0.1152
 9583W        W27107  15.857  13.890   3.914  0.0371 -0.0270 -0.1032
 9584W        W27108  16.696   3.361   5.236  0.2891 -0.0961 -0.1062
 9585W        W27109   4.158   6.229  13.826 -0.1696  0.3308 -0.1907
 9586W        W27110   5.655   2.403   1.282  0.1148  0.1026 -0.4348
 9587W        W27111   8.609   6.707  15.585 -0.2448 -0.1297  0.1762
 9588W        W27112  13.920  11.973   4.742 -0.0522 -0.1643  0.4701
 9589W        W27113   6.455  15.268  14.429 -0.0922  0.0388  0.1022
 9590W        W27114   2.003  11.306  11.649  0.0946  0.1262 -0.1419
 9591W        W27115  10.498  13.985  14.687  0.0374 -0.0275  0.1945
 9592W        W27116  17.216  11.349   1.479 -0.1208 -0.2105  0.2508
 9593W        W27117   8.501  11.739  15.898 -0.0222 -0.2301  0.1837
 9594W        W27118   0.823   1.216  13.106  0.1994  0.0857 -0.0193
 9595W        W27119   1.627   3.208   0.298 -0.1411  0.0262  0.1503
 9596W        W27120   9.507   1.678  11.517  0.0672 -0.2967 -0.1559
 9597W        W27121  14.547  12.684  13.676 -0.4480 -0.0354 -0.1313
 9598W        W27122   2.941   4.924  14.439 -0.0199  0.0498  0.2428
 9599W        W27123  16.883  12.438   2.689  0.0531 -0.0189 -0.2229
 9600W        W27124  16.404  14.632   3.014  0.0649  0.2886  0.1910
 9601W        W27125   4.862   9.789   3.803 -0.0104 -0.1694  0.0097
 9602W        W27126  14.866  11.536   3.581  0.3123  0.2502  0.3036
 9603W        W27127   7.849   5.689  16.410  0.1273  0.1091  0.0359
 9604W        W27128   6.316  15.048  14.925 -0.0884  0.1333  0.0628
 9605W        W27129   8.461   3.853  13.369 -0.1066  0.1934  0.0349
 9606W        W27130   2.375   3.648   0.152 -0.3617  0.2782  0.1514
 9607W        W27131  14.137  15.385  12.402 -0.1201  0.0187 -0.0232
 9608W        W27132  14.667   4.787   1.439  0.0883 -0.2160  0.1290
 9609W        W27133  16.481   7.247   3.633  0.4114 -0.1233 -0.0862
 9610W        W27134   1.048  17.641   5.120 -0.2933  0.1368  0.1260
 9611W        W27135  10.804  14.394   2.578  0.1116  0.2131 -0.1152
 9612W        W27136   0.707   9.956   3.298 -0.3193  0.2362  0.3214
 9613W        W27137   5.683   3.035   2.496 -0.0813 -0.1067  0.1329
 9614W        W27138   6.559   7.229   1.312  0.1994  0.1104 -0.2072
 9615W        W27139  12.094   4.461   1.200 -0.0678 -0.1959  0.1434
 9616W        W27140   3.130  11.608   2.710 -0.0875  0.0041  0.2928
 9617W        W27141  14.452  11.722  13.410 -0.0864 -0.0729  0.3543
 9618W        W27142  11.233   2.603  15.460  0.1554  0.0859  0.0130
 9619W        W27143  13.408   5.240  14.021  0.0040  0.0727 -0.1631
 9620W        W27144  11.817  11.367  14.808 -0.3644 -0.0016  0.0965
 9621W        W27145   8.918  17.842  15.624  0.0048  0.0558  0.1079
 9622W        W27146   1.873   1.063   4.009 -0.0812 -0.2127 -0.4190
 9623W        W27147   9.407  16.291  12.261  0.0553 -0.1805 -0.1224
 9624W        W27148  12.636  10.398   0.816 -0.2684  0.0843  0.3802
 9625W        W27149  17.221   9.413  11.071  0.6657 -0.0621 -0.2999
 9626W        W27150   2.015  15.989  15.496  0.0302 -0.0609  0.2069
 9627W        W27151  13.938  15.489   0.556  0.1037  0.1427  0.0597
 9628W        W27152  13.914   1.886  14.422 -0.1057  0.0810 -0.2304
 9629W        W27153   1.430   4.188  12.353  0.0365 -0.0036  0.1632
 9630W        W27154   7.773   1.491  16.093 -0.0515 -0.1080  0.1517
 9631W        W27155   0.185  13.386   4.744  0.1467  0.1012  0.0367
 9632W        W27156  13.611   4.834  13.705 -0.1336 -0.0156 -0.1325
 9633W        W27157   3.158  13.154  15.310 -0.0845 -0.1163  0.0126
 9634W        W27158   0.962   0.780   1.005  0.0028  0.2285 -0.0503
 9635W        W27159  12.034   2.691   1.540 -0.3339  0.1454  0.3653
 9636W        W27160  16.628  11.909   3.579 -0.0588  0.0272 -0.1191
 9637W        W27161   0.579   4.797   2.282 -0.0723 -0.1007 -0.0663
 9638W        W27162  16.428   5.681   3.896 -0.1071  0.2718  0.2347
 9639W        W27163   3.799   9.627  12.706 -0.0821  0.0613  0.1799
 9640W        W27164   9.254  15.026  16.224  0.0585 -0.0327 -0.0102
 9641W        W27165   7.650  17.567   0.685 -0.1111 -0.1599  0.2703
 9642W        W27166   4.698   8.411  16.400 -0.0107 -0.1816  0.1263
 9643W        W27167   3.508  14.445   2.605  0.3391  0.1095 -0.3877
 9644W        W27168   9.501  17.026  15.874  0.2081  0.0322  0.0488
 9645W        W27169   0.640   2.443  11.966 -0.2763 -0.2674  0.1069
 9646W        W27170   5.136  14.626   5.021  0.3740  0.0147  0.0422
 9647W        W27171   9.415   7.897  15.467  0.2622 -0.1053 -0.2155
 9648W        W27172   0.066  13.786   3.004 -0.1609 -0.0359 -0.2749
 9649W        W27173  15.603   8.694   2.126 -0.2809  0.1433 -0.0547
 9650W        W27174  11.673   5.232  16.012  0.1410 -0.3323  0.1214
 9651W        W27175  16.962   3.217  12.012 -0.2125  0.0287  0.1035
 9652W        W27176  14.306  16.385   5.132  0.0587 -0.0139 -0.2009
 9653W        W27177   0.920   3.978  15.899 -0.1428 -0.2910 -0.2835
 9654W        W27178  15.767  16.956  13.200 -0.0657  0.2111 -0.1790
 9655W        W27179  17.915  12.809   0.229 -0.1908 -0.1938 -0.4917
 9656W        W27180  13.457   4.957   5.009 -0.0793  0.2223  0.2448
 9657W        W27181   9.155   0.545  15.514 -0.0011 -0.1626  0.1907
 9658W        W27182   3.620   3.473  12.161  0.1678  0.2512  0.1064
 9659W        W27183  10.339  15.650   3.530 -0.0682 -0.3529 -0.1873
 9660W        W27184  14.020   5.169   6.124 -0.0157  0.2031 -0.0570
 9661W        W27185  10.539  11.875  12.726  0.1384  0.1137 -0.1563
 9662W        W27186   6.118   3.864   2.169  0.2682 -0.0933  0.0696
 9663W        W27187   0.207  16.274   3.302  0.1298  0.1050 -0.4484
 9664W        W27188  11.044   5.671  14.808  0.1788  0.3189 -0.2342
 9665W        W27189   2.247   9.939   3.108 -0.0358  0.0164  0.2955
 9666W        W27190  14.702  15.912  13.027 -0.0289  0.2366 -0.1918
 9667W        W27191   4.258   5.884   2.934  0.0714  0.4591  0.0234
 9668W        W27192   9.391   8.237   0.796 -0.2857  0.1029  0.2614
 9669W        W27193  12.636   0.933   1.949  0.2491 -0.4136 -0.0621
 9670W        W27194  15.451   9.024  15.902  0.3957 -0.0278  0.1542
 9671W        W27195  11.403  12.224  15.539 -0.0341  0.0589  0.3356
 9672W        W27196  12.237  13.544  15.239  0.1884  0.2304 -0.0753
 9673W        W27197  10.124  10.364   2.302 -0.0457 -0.0274  0.1397
 9674W        W27198  11.743  12.906  12.252 -0.0100  0.1525  0.1486
 9675W        W27199  15.588  10.895  12.935 -0.0429  0.3576  0.0763
 9676W        W27200   5.841   3.598   1.199  0.1461  0.0003 -0.1310
 9677W        W27201  14.456   8.626  11.362 -0.2470  0.0595  0.1057
 9678W        W27202  17.235   5.807   0.986  0.2213 -0.1113  0.0972
 9679W        W27203   5.822   1.372   5.251 -0.1117  0.1051  0.0129
 9680W        W27204  16.423   4.804  12.956 -0.0253  0.0832 -0.0381
 9681W        W27205  16.373   7.955   3.680 -0.5297  0.1027 -0.1505
 9682W        W27206  17.081   4.256   3.835 -0.0276  0.0293 -0.0680
 9683W        W27207  13.836   8.507   3.905  0.1771 -0.0881 -0.2491
 9684W        W27208   6.525   0.737  14.356 -0.0207 -0.0453  0.1550
 9685W        W27209  17.698  14.379   3.431 -0.1545  0.0258 -0.4584
 9686W        W27210   4.322   2.772  15.994 -0.0605  0.1888  0.2694
 9687W        W27211  14.650  11.214   5.283  0.0444 -0.3247 -0.2979
 9688W        W27212   9.887  15.294   3.080  0.3310 -0.1069 -0.0235
 9689W        W27213   3.079   5.958   1.503  0.0667 -0.2331 -0.0691
 9690W        W27214   6.418   7.675   4.867  0.3724 -0.1952 -0.1129
 9691W        W27215   8.592   8.749  14.789  0.0540  0.1911 -0.0551
 9692W        W27216   3.228   9.269   3.368 -0.0744  0.2710  0.4229
 9693W        W27217   6.148   5.006   2.680  0.3878  0.0929 -0.2144
 9694W        W27218   2.074  13.941   3.442 -0.1752 -0.0424  0.2002
 9695W        W27219   4.663  17.652   4.397 -0.2383  0.1248  0.0710
 9696W        W27220   9.001  14.007   1.233  0.0976  0.1024  0.0466
 9697W        W27221   9.674  10.414  13.535  0.0201 -0.1102  0.0230
 9698W        W27222  15.953  15.375   4.256  0.0443  0.1808 -0.1378
 9699W        W27223   8.301   3.578  15.888  0.0480 -0.2236  0.3069
 9700W        W27224  10.838  12.048  13.584  0.0561 -0.0413 -0.0712
 9701W        W27225  12.957  13.112   5.200 -0.1428 -0.1615 -0.2533
 9702W        W27226   9.177   1.973  12.681 -0.0966  0.1129 -0.0589
 9703W        W27227   3.905   4.180  14.757 -0.1362 -0.0451  0.1845
 9704W        W27228   4.823   7.280   2.910 -0.0148 -0.2542  0.2018
 9705W        W27229   4.029   3.758  14.313  0.1265 -0.2726  0.0879
 9706W        W27230  13.057  13.276  12.200 -0.0827  0.3672  0.4633
 9707W        W27231   7.663   6.141   1.620 -0.2244 -0.0301  0.1502
 9708W        W27232  17.941   7.345  13.615  0.1620 -0.2846 -0.0019
 9709W        W27233   9.448  17.239   2.495 -0.0307 -0.2916  0.0012
 9710W        W27234  10.043  10.731  13.503  0.4515 -0.0418 -0.0150
 9711W        W27235   6.226   2.368  12.259 -0.0502  0.0995 -0.2088
 9712W        W27236   0.766   2.889   0.209 -0.1105  0.1779  0.1860
 9713W        W27237  10.969  15.066   4.396  0.4248  0.0187 -0.1102
 9714W        W27238  14.885   2.079   2.574  0.0532  0.2407  0.1900
 9715W        W27239   1.268   2.930  14.566 -0.4239 -0.2302  0.2420
 9716W        W27240   1.601  16.956  16.080  0.0833 -0.1020  0.1547
 9717W        W27241   5.688   8.868  12.112  0.1231  0.1669  0.2662
 9718W        W27242   0.782   3.960  13.911  0.1242  0.1418 -0.0595
 9719W        W27243  13.788   0.095  15.487 -0.3810 -0.0129 -0.1035
 9720W        W27244  14.013  17.695  13.012  0.1589 -0.0112  0.0776
 9721W        W27245  11.006  15.475  15.744  0.0645  0.1517  0.1098
 9722W        W27246  12.480   6.664  12.114  0.1344 -0.1951 -0.0888
 9723W        W27247   5.545   0.995   4.998  0.0662  0.1785 -0.1859
 9724W        W27248   1.738   5.975   3.547  0.0247 -0.0688 -0.1560
 9725W        W27249  16.337  11.978  13.495  0.5266 -0.0721  0.3572
 9726W        W27250  12.568   0.244   4.593  0.0877 -0.0770  0.0776
 9727W        W27251  14.923  12.916   2.496 -0.0881 -0.1014 -0.1448
 9728W        W27252   7.297   8.542  12.663  0.0156 -0.1975 -0.1226
 9729W        W27253   8.983   3.066  13.293  0.2454  0.0247  0.1779
 9730W        W27254   4.528   2.234   2.249  0.0476 -0.2098  0.1653
 9731W        W27255   1.604   8.270  15.115 -0.1560  0.0230  0.0757
 9732W        W27256  12.826   6.819   2.166  0.0285  0.0999 -0.0657
 9733W        W27257   3.575   7.955   2.270 -0.0274  0.0673 -0.3444
 9734W        W27258  14.355   0.042   3.215 -0.1444 -0.1502  0.0906
 9735W        W27259   5.127  13.018  16.001  0.0918 -0.3519 -0.1455
 9736W        W27260   0.053  14.101   3.737  0.1710  0.1098  0.1623
 9737W        W27261   2.755   4.573  12.661  0.0803 -0.0508  0.1486
 9738W        W27262   5.079  16.534   3.673 -0.1102  0.1331  0.3010
 9739W        W27263   0.897  13.177   1.740  0.0002  0.3288  0.1165
 9740W        W27264  11.285   2.433  16.376  0.1458  0.0109 -0.1989
 9741W        W27265   1.988  17.151   3.637  0.3132 -0.1269  0.1181
 9742W        W27266   8.397   0.476  12.067 -0.2592  0.0718 -0.2256
 9743W        W27267  16.915   0.818  12.491 -0.0218  0.1973 -0.0249
 9744W        W27268  11.935   6.900  15.147 -0.3063  0.4330 -0.1784
 9745W        W27269   6.676  16.656  12.577  0.1396  0.0772 -0.0534
 9746W        W27270  15.245  16.121   0.377 -0.2860 -0.1610 -0.1389
 9747W        W27271  16.455  12.930  15.662 -0.2878  0.0943  0.1275
 9748W        W27272  17.777  11.845  14.517  0.1759  0.3426 -0.1454
 9749W        W27273   6.232   3.273  12.132 -0.1998 -0.1677  0.3090
 9750W        W27274   8.509   1.615   0.095  0.0449 -0.0188  0.0550
 9751W        W27275  12.624   7.141  12.836  0.0356 -0.1354  0.2832
 9752W        W27276   4.551   4.474   2.962 -0.1080 -0.0058 -0.3463
 9753W        W27277   9.744   3.941   1.541 -0.2773  0.2532 -0.2997
 9754W        W27278  14.032   0.888   4.796 -0.1883 -0.0737 -0.0885
 9755W        W27279  17.355   3.738   0.591  0.2980 -0.0222 -0.1728
 9756W        W27280  12.816  15.754  12.556 -0.1332 -0.2888  0.2090
 9757W        W27281   9.834  15.360   5.630 -0.0998  0.0613 -0.3916
 9758W        W27282   0.949   0.506  14.273  0.3281  0.0674 -0.0925
 9759W        W27283   3.864   9.423  15.108  0.1818 -0.2755  0.1250
 9760W        W27284   8.376  10.410   0.982  0.1244  0.1121 -0.4134
 9761W        W27285  15.141   0.148  14.575 -0.5240  0.1198  0.0660
 9762W        W27286  16.388   1.698  12.118 -0.0342 -0.1078  0.2765
 9763W        W27287  14.921   0.564   0.307 -0.0203 -0.0670  0.1978
 9764W        W27288   9.018   4.760   3.397  0.1436 -0.3335 -0.1076
 9765W        W27289  16.118   3.664   4.203 -0.0415 -0.2665  0.4161
 9766W        W27290   7.871  13.724   4.470 -0.0298 -0.1574  0.0715
 9767W        W27291  17.695   4.775  16.105  0.1043 -0.0956  0.1214
 9768W        W27292  13.504  11.305   1.462 -0.1843  0.0511  0.4008
 9769W        W27293  12.528  16.706  14.243  0.0058 -0.0742 -0.1397
 9770W        W27294  16.165   8.648   0.519  0.0549 -0.0769  0.0298
 9771W        W27295   4.079  12.150   3.872  0.0179  0.0594 -0.1186
 9772W        W27296   7.497   2.037   2.997  0.1969  0.0973 -0.3056
 9773W        W27297  10.199  13.703   4.570 -0.2262 -0.1086 -0.2099
 9774W        W27298   9.401  15.947  14.188 -0.1183  0.0979  0.0018
 9775W        W27299  11.310  14.511   1.061 -0.3628 -0.2054  0.0672
 9776W        W27300   3.447  11.322   2.203  0.2786  0.2559 -0.0029
 9777W        W27301   5.455  11.803  13.347  0.1900 -0.0416  0.0248
 9778W        W27302   0.633   3.973   2.877 -0.2825  0.2178  0.0378
 9779W        W27303  11.995  13.097  15.229  0.1543  0.1653  0.3097
 9780W        W27304   0.697  13.138   0.739  0.0215  0.1025 -0.2865
 9781W        W27305   2.195  12.845  15.499  0.0261  0.1164 -0.1015
 9782W        W27306  16.022   5.715  15.036  0.1861  0.0902 -0.0418
 9783W        W27307  15.064  10.844  14.225 -0.3559  0.0399 -0.1548
 9784W        W27308  14.702   7.098   1.666  0.2335  0.0057  0.1457
 9785W        W27309   2.606   6.793   1.102 -0.4473 -0.0030 -0.1492
 9786W        W27310   2.494  16.203   0.700  0.0778  0.1429  0.0837
 9787W        W27311  17.193  12.678  14.871 -0.1009 -0.4281 -0.0879
 9788W        W27312  11.115   7.073  12.057  0.0334  0.0489 -0.0538
 9789W        W27313   6.654   8.484   3.506 -0.1253  0.0730  0.0057
 9790W        W27314   4.648  10.735  16.058  0.2679 -0.0477  0.2325
 9791W        W27315  15.591  10.996   3.395  0.0122 -0.1974  0.0977
 9792W        W27316  15.262  11.889   3.192  0.0199 -0.2761  0.1496
 9793W        W27317   7.650  15.305  14.974 -0.2541 -0.2400 -0.0833
 9794W        W27318   4.318   8.390   0.303  0.1673 -0.1751  0.1993
 9795W        W27319   5.846   2.570  15.330  0.1448  0.3321  0.0513
 9796W        W27320   3.626  16.915   0.480  0.0017 -0.1072 -0.0133
 9797W        W27321   6.124   4.277   1.888 -0.0588  0.0872  0.1164
 9798W        W27322  17.741  15.810  15.588 -0.1794  0.0394 -0.0749
 9799W        W27323   5.006  12.998   2.513  0.2218 -0.2323 -0.0902
 9800W        W27324   1.015  16.939  12.634 -0.1688 -0.2331 -0.2075
 9801W        W27325   0.889  14.956  14.594  0.0371 -0.3756  0.1354
 9802W        W27326  11.133   9.033   3.753 -0.0223  0.0069 -0.0699
 9803W        W27327  11.867  15.991   6.117 -0.0425  0.4469  0.0097
 9804W        W27328  13.046  13.980  13.951 -0.0878 -0.0769 -0.0995
 9805W        W27329   7.591   3.305   4.217 -0.0001  0.1515  0.1296
 9806W        W27330  10.874  14.290   0.937  0.1994  0.0064  0.1175
 9807W        W27331   1.943   1.504   4.392  0.0762 -0.2407 -0.0430
 9808W        W27332  15.575   3.139  15.422 -0.1129  0.0956  0.0614
 9809W        W27333  17.775   9.388  16.146 -0.1936 -0.1903 -0.3139
 9810W        W27334  13.984   3.710   4.543  0.0218 -0.1514 -0.3303
 9811W        W27335   0.298  13.699  16.434  0.1872  0.0149 -0.1175
 9812W        W27336   5.627   6.395   1.449 -0.1614  0.0746 -0.0497
 9813W        W27337   5.682   3.909   0.084 -0.2552  0.0921  0.2241
 9814W        W27338  14.720  11.856  13.883 -0.2869  0.1585  0.1445
 9815W        W27339  15.768   3.842   5.060  0.2506 -0.0283  0.0817
 9816W        W27340   2.532   6.636   3.122  0.0682  0.0840  0.0242
 9817W        W27341  12.562   5.974   0.558  0.1986 -0.1170  0.1786
 9818W        W27342   3.036  16.137  13.542 -0.0423 -0.2469  0.2567
 9819W        W27343  17.428   9.540  13.925 -0.0085  0.1322  0.2356
 9820W        W27344  12.681   8.080   2.913 -0.0427  0.1203  0.2458
 9821W        W27345  14.562  16.293  12.310  0.1095 -0.0632  0.1325
 9822W        W27346   1.659   0.226  11.492  0.0073  0.0768 -0.1112
 9823W        W27347   1.950  17.157  12.967 -0.1856  0.0600  0.0265
 9824W        W27348   5.113  17.807   5.686 -0.1860  0.0101  0.3055
 9825W        W27349   6.174  11.516   3.248  0.1260 -0.1497 -0.0268
 9826W        W27350   4.905   6.397   3.030 -0.0566  0.1427  0.0984
 9827W        W27351  16.344  11.639  13.109  0.1884 -0.1347  0.2823
 9828W        W27352   5.812  11.652  12.618  0.0685  0.0138 -0.2268
 9829W        W27353   9.828   6.551  15.691  0.0837 -0.0636 -0.0989
 9830W        W27354   2.907  15.049  13.500 -0.0623  0.0180 -0.0996
 9831W        W27355  10.608  11.235  16.119  0.0761 -0.0410  0.0876
 9832W        W27356  15.611  17.280  16.387 -0.0573  0.0388 -0.0942
 9833W        W27357  12.620   7.878   1.577 -0.0074 -0.0593  0.0694
 9834W        W27358   2.021   4.229  15.367 -0.4226 -0.0473 -0.3738
 9835W        W27359  11.801  14.492  13.598 -0.2340 -0.0552 -0.1590
 9836W        W27360   9.570   6.835  13.373 -0.0021 -0.0091  0.0662
 9837W        W27361   4.285   9.161   0.556 -0.3485 -0.4303 -0.0672
 9838W        W27362  10.536  12.464   5.275 -0.1163  0.1778  0.1544
 9839W        W27363  11.414  17.784   1.146  0.2087 -0.0640 -0.1712
 9840W        W27364   4.006  12.321   0.338 -0.0570 -0.0140  0.0765
 9841W        W27365   1.680   5.567  10.779 -0.5639 -0.0789  0.0120
 9842W        W27366   7.665  15.990   4.093  0.2311  0.0137 -0.0869
 9843W        W27367   1.196   1.463   1.924 -0.1044  0.1470  0.0150
 9844W        W27368   3.821   9.177   1.518  0.3301 -0.0092  0.1111
 9845W        W27369  16.068  15.677   4.707 -0.0831 -0.1063 -0.2444
 9846W        W27370   7.304   3.653   1.189  0.2625  0.1572 -0.0139
 9847W        W27371   7.728  12.651   0.501  0.1130  0.0132  0.0313
 9848W        W27372   7.312   7.815  16.105  0.1135 -0.0949 -0.0727
 9849W        W27373  15.994  12.005   0.599 -0.1376 -0.3954 -0.1523
 9850W        W27374  15.049  17.528  13.239  0.0270  0.2126 -0.1275
 9851W        W27375   5.214   1.161   2.986 -0.1522 -0.1923  0.1774
 9852W        W27376   6.610   6.640  13.826 -0.0061 -0.1102 -0.2186
 9853W        W27377   7.136  13.547   3.508 -0.0386 -0.1162 -0.1495
 9854W        W27378  16.041  16.796  15.622 -0.0896  0.0016  0.0824
 9855W        W27379   9.968  17.047  12.572  0.4590  0.0724 -0.0010
 9856W        W27380  10.527  16.851   0.672 -0.2605  0.3154 -0.2580
 9857W        W27381  14.876   4.883   4.170  0.2670 -0.0677 -0.2638
 9858W        W27382   1.684  17.143   3.051 -0.0885  0.3736  0.3317
 9859W        W27383   4.788   0.824  14.541  0.1650  0.1868  0.0896
 9860W        W27384   8.543   2.811  16.110 -0.0656 -0.4608 -0.2182
 9861W        W27385   9.550  12.967   1.548 -0.2903 -0.0044  0.2006
 9862W        W27386   8.804  13.126  13.604 -0.0835  0.6740  0.0149
 9863W        W27387   9.134  14.625   4.961  0.2829 -0.0882 -0.3057
 9864W        W27388   1.386  11.109  13.508  0.0559 -0.2039 -0.1455
 9865W        W27389   2.081  16.616  13.147  0.4651 -0.1044 -0.1041
 9866W        W27390   4.009   0.898   4.471  0.1467 -0.0885  0.0077
 9867W        W27391   3.627  15.403  15.228  0.1572  0.2470 -0.3857
 9868W        W27392   4.477   5.733  15.933 -0.2598  0.1482 -0.1851
 9869W        W27393   8.726  11.228  12.238  0.0084 -0.0264 -0.1379
 9870W        W27394   7.648   0.439  16.067 -0.1731  0.1206 -0.3193
 9871W        W27395   5.058   4.483   2.107  0.2662 -0.2041  0.0496
 9872W        W27396  13.449  13.341   4.939  0.1182 -0.2016  0.3003
 9873W        W27397  12.080   1.622  15.606 -0.1398  0.1719  0.0883
 9874W        W27398  12.109  16.376  14.048  0.1255 -0.2787  0.2877
 9875W        W27399  12.077   4.690   4.737 -0.3532  0.1467 -0.2028
 9876W        W27400   8.629   1.569   3.701  0.2511 -0.0048 -0.0239
 9877W        W27401   5.926  15.912   5.111  0.1574  0.0366  0.0464
 9878W        W27402  14.425   3.206  13.788 -0.0919  0.1197 -0.1018
 9879W        W27403   3.262  12.145   4.004 -0.0356  0.2494 -0.0976
 9880W        W27404   0.369   9.668   3.059  0.0727 -0.1388 -0.2479
 9881W        W27405   9.339  14.051   5.157  0.2896  0.0722  0.2117
 9882W        W27406   1.700   3.985  11.880 -0.4078  0.1450  0.0214
 9883W        W27407   2.640   7.303  14.259  0.0770 -0.2653  0.0490
 9884W        W27408   6.720   1.612   5.973 -0.1538  0.1857 -0.1635
 9885W        W27409   3.282   0.114   3.512 -0.0469 -0.3189  0.0848
 9886W        W27410  16.412   2.041   4.832 -0.0038 -0.0857 -0.4927
 9887W        W27411   2.312   8.609   4.234 -0.2381 -0.1413  0.1430
 9888W        W27412   7.665   6.478   2.038 -0.0748  0.3292  0.0695
 9889W        W27413  10.945   4.725  14.337  0.1573  0.2539  0.2428
 9890W        W27414  17.771   5.942  15.065  0.0739 -0.2326 -0.2380
 9891W        W27415   5.434  15.699  10.983 -0.0855 -0.2065  0.0493
 9892W        W27416   0.383  15.110  15.453 -0.1558  0.1190  0.2845
 9893W        W27417   9.431  11.725   1.990 -0.0362 -0.1775 -0.3771
 9894W        W27418  14.486  17.187  11.076  0.1592  0.0775 -0.3456
 9895W        W27419  12.116   9.010   5.158  0.1935  0.1806  0.2720
 9896W        W27420  17.389   5.265   4.854  0.2238 -0.0109 -0.2302
 9897W        W27421   5.845   6.251  14.205  0.0424 -0.3041 -0.0533
 9898W        W27422  14.882   4.053   3.006 -0.1772 -0.2874 -0.0355
 9899W        W27423   3.973  13.630   0.508 -0.0221  0.0781 -0.2752
 9900W        W27424   5.275  14.181   1.836  0.3140 -0.2443  0.0897
 9901W        W27425  13.718   8.170  12.273 -0.1053 -0.2342 -0.2280
 9902W        W27426  17.357   1.194   3.421  0.0037 -0.1772 -0.5009
 9903W        W27427  17.822   7.373  11.570  0.2834  0.0960 -0.0507
 9904W        W27428   7.065  15.022  11.969 -0.0216  0.2746  0.0984
 9905W        W27429   2.587   4.697   0.964 -0.0122 -0.0198  0.1567
 9906W        W27430  16.742   1.333  13.735  0.0770  0.0009 -0.0699
 9907W        W27431  12.882   0.599  15.119 -0.2095 -0.2140 -0.3170
 9908W        W27432  12.847  17.452   2.522  0.3483 -0.0088  0.0051
 9909W        W27433  15.990   3.181   3.389 -0.0008  0.0752 -0.0090
 9910W        W27434   3.778   7.271  13.302  0.0578 -0.0671  0.2679
 9911W        W27435   3.638   7.249  10.798  0.5288  0.3113 -0.1144
 9912W        W27436   8.067   6.918  11.817 -0.2093  0.1106 -0.2154
 9913W        W27437   2.089   7.147  13.393 -0.0397  0.2417  0.0486
 9914W        W27438   8.066   7.815   0.394 -0.1456  0.0087 -0.0400
 9915W        W27439  15.205  12.925  13.810  0.2373  0.1280 -0.2237
 9916W        W27440   1.075   0.591   2.805 -0.0382  0.1964 -0.0053
 9917W        W27441  16.990   9.116   0.923  0.2500  0.0241 -0.1451
 9918W        W27442   4.556  11.320  14.882 -0.1667 -0.0769 -0.1893
 9919W        W27443   8.530  12.435  14.717  0.1221 -0.2295  0.1641
 9920W        W27444  11.166  15.353  12.519 -0.1486 -0.1520  0.4267
 9921W        W27445  12.244   7.696  13.923  0.1962  0.1124 -0.0205
 9922W        W27446   5.579  14.231  13.575 -0.0162 -0.1202 -0.4076
 9923W        W27447   6.865   7.711   3.820  0.1901 -0.3079  0.0948
 9924W        W27448  14.880  10.291  15.673 -0.2479  0.2069  0.2081
 9925W        W27449   7.241   3.893  15.159  0.0136 -0.2768  0.4729
 9926W        W27450  17.084   7.181  12.834 -0.0948 -0.2529 -0.2030
 9927W        W27451  10.636   8.702   1.350  0.0709  0.3728 -0.0651
 9928W        W27452   2.619  13.211   0.499 -0.3292  0.1356  0.2371
 9929W        W27453  10.202   6.068   5.520  0.0958  0.3305  0.0448
 9930W        W27454   1.865   4.127   1.543 -0.1619  0.0847  0.0011
 9931W        W27455   6.385  12.182  14.429  0.1806  0.1175  0.1296
 9932W        W27456   3.078  14.865  15.877  0.1058 -0.2848 -0.1750
 9933W        W27457  11.458   4.475  16.421 -0.1989  0.0719  0.1338
 9934W        W27458   5.337   2.475  16.162 -0.2606  0.0314 -0.0744
 9935W        W27459  14.624   9.942  16.070  0.0104 -0.0881 -0.2152
 9936W        W27460  12.653   0.935  14.737 -0.1936  0.0369 -0.2324
 9937W        W27461  14.382  13.469  16.021 -0.0315  0.0953 -0.3388
 9938W        W27462  16.860   6.643  14.742 -0.2954 -0.3080  0.2123
 9939W        W27463   5.042  16.843   1.482  0.1981 -0.1334 -0.2507
 9940W        W27464   5.450  14.983  12.879  0.2129 -0.1459 -0.0205
 9941W        W27465   3.669  16.960  15.904 -0.2464  0.0375  0.0108
 9942W        W27466   9.659  13.493   0.126 -0.0940 -0.1640 -0.3415
 9943W        W27467  11.713  16.578   1.944 -0.1980 -0.1241  0.1818
 9944W        W27468  10.075  16.644   4.373 -0.1686  0.1124 -0.0836
 9945W        W27469   9.623   2.757  14.614 -0.1711 -0.0244  0.2150
 9946W        W27470  11.407  15.767   3.969  0.1953  0.0351  0.2601
 9947W        W27471  16.695   2.008   1.019 -0.1102 -0.2735 -0.2239
 9948W        W27472  15.116   4.210   2.123  0.0498 -0.0676 -0.3235
 9949W        W27473   0.064  17.268   3.609  0.4067  0.2019  0.1708
 9950W        W27474  13.191   2.644  12.833  0.0049 -0.0754 -0.0121
 9951W        W27475   4.123  11.797   0.241 -0.0622  0.0499 -0.0770
 9952W        W27476   3.360   9.840  11.670 -0.0562 -0.0809 -0.0649
 9953W        W27477   4.998   4.547  11.774  0.2505  0.3889  0.1403
 9954W        W27478   1.956   7.780   5.069 -0.2136 -0.1469 -0.2709
 9955W        W27479  17.455  17.385   0.627  0.3349 -0.3886  0.0591
 9956W        W27480   2.397  11.182  14.530  0.0512  0.2199 -0.2139
 9957W        W27481   9.899  11.055  14.705  0.1569  0.0298  0.0690
 9958W        W27482   9.140   3.170   1.401  0.1100 -0.1124  0.1929
 9959W        W27483   7.111  14.707   4.556  0.1888 -0.0139  0.2203
 9960W        W27484   7.220   2.252   5.369 -0.0208  0.2169  0.1234
 9961W        W27485   2.974   9.531  14.902  0.0639 -0.1628  0.3512
 9962W        W27486   2.002  15.995   0.573  0.3592  0.2210  0.3736
 9963W        W27487  11.250  14.931  13.204 -0.0942 -0.0486 -0.1653
 9964W        W27488   1.667   3.079  14.210  0.0738  0.0974 -0.3025
 9965W        W27489   6.089   2.460   3.964  0.3138 -0.0769 -0.3018
 9966W        W27490  14.699   0.292  16.328  0.3018  0.3059  0.1632
 9967W        W27491  10.005   2.640  14.139  0.3043  0.0798  0.0458
 9968W        W27492  10.862  17.060  13.992 -0.0097 -0.2343  0.0518
 9969W        W27493  16.640   4.876   2.115  0.1966 -0.0515  0.2868
 9970W        W27494  15.534  16.976  14.733  0.0341  0.0160  0.2492
 9971W        W27495   4.034   6.844   1.045 -0.1242  0.0236  0.2083
 9972W        W27496  13.498   4.132   3.191  0.0527 -0.1629  0.2465
 9973W        W27497  10.733   2.919   1.160  0.0959  0.1843  0.0914
 9974W        W27498   2.884   1.591   0.799  0.0256 -0.0221 -0.1430
 9975W        W27499   9.599  17.426  12.697 -0.3757 -0.2150 -0.1178
 9976W        W27500  16.381  17.139  11.522  0.0345 -0.1871  0.0163
 9977W        W27501   5.872   7.111  12.143 -0.1413 -0.5424  0.2919
 9978W        W27502   3.212  17.407   1.857  0.0173 -0.2402 -0.0173
 9979W        W27503  12.167   6.136   1.058 -0.0245 -0.2198  0.0325
 9980W        W27504  15.730   7.950  13.078  0.3797  0.1167 -0.2330
 9981W        W27505   1.991  14.975  13.261  0.2640  0.0536  0.2021
 9982W        W27506  14.405  13.651   1.248  0.1677 -0.0830  0.2637
 9983W        W27507  13.853   4.411   2.915  0.0690  0.0315  0.2216
 9984W        W27508   9.840  14.933   1.149  0.0720 -0.0109  0.1956
 9985W        W27509  10.566  15.369   2.651  0.2722 -0.1718  0.3168
 9986W        W27510  12.227   9.380  13.653 -0.1325  0.1387  0.1719
 9987W        W27511   2.029   3.124  13.894  0.2901 -0.2463 -0.0658
 9988W        W27512   4.510  14.071   3.155 -0.2720  0.4700 -0.2274
 9989W        W27513  16.178   8.826  12.502 -0.0736  0.1125  0.0824
 9990W        W27514   9.829  14.307   4.420 -0.2113 -0.0549 -0.1743
 9991W        W27515  15.079   1.731   3.490 -0.3261  0.0331 -0.0387
 9992W        W27516  12.376  15.593   1.542 -0.0694 -0.1023  0.1091
 9993W        W27517   2.757   5.421   4.849 -0.0828 -0.2173 -0.3409
 9994W        W27518  12.588  14.776   1.523 -0.3096  0.2413  0.2149
 9995W        W27519  14.480  13.241  14.529 -0.2852 -0.0876 -0.1252
 9996W        W27520  12.562   1.004  13.281 -0.2762  0.1164 -0.1114
 9997W        W27521  11.175  11.056  13.768  0.1438 -0.4630  0.0538
 9998W        W27522   3.418  12.830   4.349  0.1622  0.3304  0.0238
 9999W        W27523   8.667   0.686   4.518 -0.3609 -0.2007 -0.0084
10000W        W27524   4.077   4.361  15.183  0.0927  0.0207 -0.1382
10001W        W27525   8.725   1.246  14.212  0.2702  0.0630  0.0137
10002W        W27526  17.034   0.375   2.852  0.0391  0.1232  0.1299
10003W        W27527  14.845   6.683   0.764 -0.0967 -0.2157  0.0411
10004W        W27528   1.079  17.254   2.323  0.0503  0.4435  0.1240
10005W        W27529   7.631  12.658   1.749 -0.2421 -0.2330  0.2940
10006W        W27530   8.822   5.387   5.160  0.1519  0.0061  0.0976
10007W        W27531  12.819   3.524   0.780 -0.0902 -0.0861  0.0134
10008W        W27532  13.882   4.803   2.028 -0.0067 -0.0554  0.1191
10009W        W27533  17.821   7.973  11.458  0.0324  0.1658  0.1779
10010W        W27534  11.201  10.875   5.094 -0.0052 -0.0396 -0.0472
10011W        W27535  11.596   4.033   4.033 -0.1323 -0.0094 -0.3072
10012W        W27536   8.451  10.742  13.314 -0.0097  0.0190 -0.0088
10013W        W27537  14.200   6.724  11.966  0.1114 -0.0326 -0.0726
10014W        W27538  10.510  13.596  11.958  0.0956  0.0053 -0.0034
10015W        W27539   7.535  13.099   5.297 -0.2696 -0.2207 -0.0982
10016W        W27540   4.969   2.331  16.400  0.2440  0.1256 -0.2024
10017W        W27541   0.591   2.135  10.900  0.4141  0.1183 -0.1529
10018W        W27542   6.290  11.413  16.086  0.0876  0.0583 -0.0057
10019W        W27543   7.748   5.314  14.700  0.0704  0.0508  0.0163
10020W        W27544   3.118   0.517   3.282  0.4006  0.2504  0.1289
10021W        W27545   3.751  17.238   3.299 -0.0369 -0.2103 -0.2303
10022W        W27546   8.224   4.265  12.680 -0.0739 -0.0272 -0.1901
10023W        W27547  13.476   5.347   2.773  0.0066  0.2909  0.1441
10024W        W27548   4.938  12.158  16.395 -0.0269 -0.0027 -0.1048
10025W        W27549  11.048  12.241  15.226 -0.1799 -0.1849 -0.1756
10026W        W27550   9.169   4.703   2.730  0.2868 -0.0157 -0.0060
10027W        W27551   3.470  16.180   1.383 -0.2951 -0.3195  0.0779
10028W        W27552  13.092  12.222   5.293 -0.0621 -0.1381  0.1818
10029W        W27553   8.582  10.599  11.534 -0.1154 -0.0605 -0.1377
10030W        W27554  15.189  11.710  15.101  0.0565  0.2111  0.3186
10031W        W27555   0.646  10.108  12.911  0.0553 -0.0697 -0.3016
10032W        W27556   7.251   2.074  11.774  0.2831 -0.1521 -0.0693
10033W        W27557  15.358  15.587   2.945 -0.0463  0.0025  0.0598
10034W        W27558   1.566  11.578  12.920  0.1022  0.0969 -0.2028
10035W        W27559  10.119   4.185   3.328  0.0519 -0.0567  0.0575
10036W        W27560   5.264   8.164  13.574 -0.0780  0.0481 -0.1117
10037W        W27561   4.775   1.795   0.583 -0.1258  0.1292  0.0943
10038W        W27562   6.150   6.068   0.945  0.0220 -0.2152  0.2080
10039W        W27563  17.469   7.578   4.516  0.1056 -0.0143 -0.1694
10040W        W27564   5.840   7.378  14.214 -0.0817  0.0431  0.3007
10041W        W27565  16.389   1.994   1.385 -0.0150  0.1302  0.2376
10042W        W27566   7.072   6.699   5.115 -0.2669  0.4453 -0.1272
10043W        W27567   9.849   7.965  13.692  0.1669  0.3264 -0.0938
10044W        W27568   7.167   7.762  11.943  0.0370  0.1866  0.2057
10045W        W27569   2.865  10.970  15.372 -0.2652  0.1329  0.0602
10046W        W27570   9.042   1.416   4.510 -0.1523 -0.1463 -0.3001
10047W        W27571   5.141   1.138  10.527  0.0454  0.1888 -0.1058
10048W        W27572   5.193  13.558  14.198 -0.1329  0.3901  0.0612
10049W        W27573  10.595  10.635  14.377  0.2819 -0.1785 -0.4404
10050W        W27574  10.559   0.330   3.374 -0.1061 -0.2078  0.0925
10051W        W27575   4.682   9.371  13.986  0.0723 -0.1481  0.4209
10052W        W27576   0.444  17.954  13.371 -0.1459 -0.1269 -0.0461
10053W        W27577  13.531  14.749   0.327 -0.1761  0.0361 -0.1149
10054W        W27578   6.263   9.673  11.606 -0.3930  0.0808 -0.0197
10055W        W27579   7.901  12.292   0.110 -0.0971  0.1753  0.2768
10056W        W27580  12.586   6.155  15.301  0.2659 -0.0193 -0.3260
10057W        W27581  17.219   9.855   2.300  0.0233 -0.1463 -0.1590
10058W        W27582  14.426   5.463   4.016  0.2193  0.0738  0.0429
10059W        W27583  10.324   8.687  16.404  0.2999  0.0013  0.1693
10060W        W27584  12.176  17.383   1.060 -0.1130 -0.0887  0.0720
10061W        W27585  13.365   0.399  15.325 -0.1515  0.1077  0.3937
10062W        W27586   6.533  17.556   6.343  0.0193 -0.2827 -0.2016
10063W        W27587   4.730   4.360   0.744 -0.2310 -0.1612 -0.0686
10064W        W27588  15.097  11.262  12.248  0.2858 -0.2237 -0.1173
10065W        W27589  14.085   8.198   1.181  0.0940  0.2422 -0.1241
10066W        W27590   5.336   4.228  16.315 -0.0456  0.0199 -0.0634
10067W        W27591   1.608   3.700  13.126 -0.0214  0.0940  0.0146
10068W        W27592  10.915   5.304  15.531  0.0499 -0.0415 -0.4883
10069W        W27593  15.761  13.960   2.814  0.0078 -0.1825 -0.0683
10070W        W27594  14.400   1.588  13.358  0.0515 -0.2143 -0.3714
10071W        W27595   5.917  12.335   2.399  0.0224  0.1029 -0.1757
10072W        W27596   5.932   1.163   1.884 -0.1738  0.0513 -0.1970
10073W        W27597  12.035   6.261  15.111  0.1687 -0.2829  0.1287
10074W        W27598   5.472   3.105   2.969 -0.1276  0.1321 -0.0648
10075W        W27599   9.127  10.949   0.449 -0.1148  0.1101 -0.3038
10076W        W27600   7.644   8.382  16.004 -0.2020 -0.0204 -0.0395
10077W        W27601   4.983  13.995   4.974  0.0778  0.1287  0.2107
10078W        W27602   3.408   4.077  14.827  0.0862  0.2438  0.0314
10079W        W27603   1.730   2.945  16.295 -0.0365 -0.0997 -0.3060
10080W        W27604  13.756   1.043  12.656  0.1453 -0.0434  0.0365
10081W        W27605  12.410   1.231   1.651  0.0079 -0.5765 -0.0430
10082W        W27606  14.930   4.251  12.337 -0.0243  0.0757 -0.0177
10083W        W27607   1.917  10.362  11.974 -0.1038 -0.1210 -0.1309
10084W        W27608  11.506   4.475   2.425 -0.0229 -0.3308  0.0485
10085W        W27609  17.128   2.122   0.708 -0.0131 -0.1703  0.1804
10086W        W27610  11.964  11.733  12.433  0.0239 -0.0112  0.4129
10087W        W27611  12.840  10.889   2.003  0.0660 -0.2063  0.1352
10088W        W27612   4.588   3.326   0.391 -0.2600 -0.1608  0.2692
10089W        W27613  16.699   9.537   3.928 -0.0462 -0.0572  0.0045
10090W        W27614   8.534   1.456   1.335 -0.3818 -0.1059 -0.3106
10091W        W27615   7.200   0.268   4.576  0.1671  0.0316 -0.0119
10092W        W27616  13.894   6.668   2.941 -0.2349 -0.2660  0.1563
10093W        W27617   0.727  10.896  12.863 -0.2401 -0.0554 -0.1920
10094W        W27618  13.629   3.931  16.241 -0.1078 -0.2909 -0.0846
10095W        W27619  13.709  16.429  15.598 -0.1506  0.1133 -0.2113
10096W        W27620   8.238   8.061   5.506 -0.0163  0.1553 -0.0744
10097W        W27621   8.332   8.609  13.965  0.0310  0.0392 -0.0746
10098W        W27622  11.684   6.408   1.733  0.1856 -0.1756  0.0747
10099W        W27623  10.867   1.332  15.058  0.0724  0.1935  0.0607
10100W        W27624   6.547  15.501   1.780 -0.1447 -0.0618  0.0776
10101W        W27625   8.281  17.445   3.925 -0.0923  0.1763  0.1659
10102W        W27626   8.603  15.937   0.291 -0.2725  0.0313  0.1860
10103W        W27627   8.475   5.915   2.622 -0.1800  0.3072 -0.1020
10104W        W27628   0.170  14.049   0.803  0.2897 -0.0725 -0.0528
10105W        W27629   2.469   0.396   3.778 -0.1896  0.4272  0.0430
10106W        W27630   6.685   2.595  13.859 -0.1891  0.0402 -0.1658
10107W        W27631  17.293   1.517  14.129  0.0810  0.0816 -0.2208
10108W        W27632   4.200   5.083   5.041 -0.1442  0.0665 -0.0528
10109W        W27633  13.328  14.748  15.845  0.0428  0.0406 -0.2914
10110W        W27634   8.476   8.018   3.192 -0.0542 -0.2041 -0.3031
10111W        W27635  11.226  15.528   3.301  0.1680 -0.2002 -0.2056
10112W        W27636  10.930  17.550  15.334  0.0429 -0.1573  0.0501
10113W        W27637   8.227  10.006   4.154 -0.0308 -0.1556  0.0578
10114W        W27638   4.588   7.322   1.109 -0.1995  0.1314 -0.2564
10115W        W27639   2.977   2.718   1.908  0.2449  0.1102  0.1112
10116W        W27640   7.434   6.608  12.585  0.0425 -0.1022 -0.2205
10117W        W27641   3.414   6.576   5.059  0.2694 -0.2251 -0.0846
10118W        W27642   5.738   3.251  12.277 -0.0643 -0.2405 -0.0195
10119W        W27643  13.476   9.144   3.184  0.0065  0.1080  0.2752
10120W        W27644   3.729  15.466   5.143 -0.0606  0.2160 -0.1515
10121W        W27645   4.106   8.174   2.727 -0.4767  0.0684  0.1553
10122W        W27646   2.007   3.498   0.403  0.2266 -0.1882  0.3774
10123W        W27647   7.283   8.785  14.697  0.2132 -0.0511  0.0245
10124W        W27648  13.673  10.489   0.427  0.2315  0.0057  0.2112
10125W        W27649  11.027  12.663  14.840 -0.2200 -0.2119  0.0059
10126W        W27650  10.606   9.628   2.300 -0.2765 -0.1980  0.6387
10127W        W27651   5.283   0.627   4.850  0.1019 -0.0378  0.1359
10128W        W27652  10.761  16.541   0.254  0.1058 -0.1310  0.0279
10129W        W27653   9.738   2.536   1.013 -0.1864  0.0876 -0.0328
10130W        W27654  16.050   8.744  15.197  0.1278 -0.3056 -0.0929
10131W        W27655  12.899   0.036  13.197  0.0475 -0.0522 -0.0146
10132W        W27656   3.424   9.656  14.645  0.0096 -0.1421 -0.1891
10133W        W27657   3.255   2.731  15.995  0.0150  0.0185  0.1980
10134W        W27658  17.768  10.302  15.296 -0.0479 -0.0713 -0.2897
10135W        W27659   2.060  11.609   4.356 -0.0566  0.1363 -0.0792
10136W        W27660  17.852   1.831  12.747  0.0363  0.0493  0.0172
10137W        W27661   5.578  10.177  12.908 -0.1830 -0.0587 -0.0267
10138W        W27662   6.750   3.692   4.174  0.4098  0.1745 -0.2139
10139W        W27663  15.859   1.275  16.295  0.2844 -0.3023 -0.0279
10140W        W27664   7.722  10.413   2.106  0.1138  0.3477  0.1285
10141W        W27665   3.734  12.411   3.631  0.1478  0.0410  0.1139
10142W        W27666  16.843   0.288   0.696 -0.0638 -0.1932  0.1600
10143W        W27667   8.595  15.960   3.181  0.1827  0.1685 -0.1816
10144W        W27668  16.872   9.677  14.343 -0.1572 -0.0047  0.0018
10145W        W27669   4.269  14.596  16.357  0.2081 -0.1888 -0.0547
10146W        W27670   7.611   6.020  14.041  0.0126 -0.0329  0.1289
10147W        W27671  14.515   7.968   1.205  0.1661 -0.1116 -0.0152
10148W        W27672   6.279   7.047  13.646  0.0018 -0.2763  0.1379
10149W        W27673  17.218   2.078   2.264  0.3294  0.3828 -0.4540
10150W        W27674  11.059  17.495   5.160  0.0710 -0.0987 -0.1889
10151W        W27675   1.980  11.025  13.549  0.0822  0.0060 -0.4743
10152W        W27676  12.640   1.885  11.684  0.1221 -0.0740  0.2725
10153W        W27677  10.445   3.570   2.038  0.1609 -0.1289 -0.0183
10154W        W27678   4.214   1.875  15.750 -0.0850  0.1859 -0.5897
10155W        W27679  15.802   2.689  15.484  0.2508 -0.1208 -0.1582
10156W        W27680   9.685  13.861   4.554  0.0043  0.0751  0.0055
10157W        W27681  13.065  17.048   2.278  0.3558 -0.0774 -0.0873
10158W        W27682  15.260   9.072   2.815  0.0536 -0.0129 -0.0150
10159W        W27683   9.782  14.048  13.701  0.0512 -0.0063 -0.3446
10160W        W27684  12.285  13.412  13.323  0.2510  0.0567  0.2780
10161W        W27685   1.762   3.622  12.584 -0.0175  0.0777  0.2287
10162W        W27686  16.089  10.974   0.825  0.0140 -0.0025 -0.0795
10163W        W27687   6.462  15.962   3.967 -0.1263 -0.1314 -0.1867
10164W        W27688  10.844   7.057  15.639 -0.3293  0.2232  0.0408
10165W        W27689   1.206   8.390  11.692  0.1338  0.1078 -0.4669
10166W        W27690   3.209   2.518   3.115  0.0947 -0.1810  0.3013
10167W        W27691   1.654  15.270  12.379 -0.1538 -0.1024  0.0414
10168W        W27692   6.746  13.076  15.984 -0.1743 -0.0819 -0.1656
10169W        W27693  13.708  12.873   3.495 -0.0684  0.2651 -0.3909
10170W        W27694   3.501  11.984   2.648  0.2809  0.0281  0.0799
10171W        W27695   8.089  17.811  14.318  0.0819 -0.0345 -0.0286
10172W        W27696   3.176  13.318   4.322  0.0042 -0.3157 -0.1255
10173W        W27697   3.135  11.085   0.722  0.2244  0.0062  0.3010
10174W        W27698   8.770   7.182   2.666 -0.0984  0.0168 -0.0516
10175W        W27699   6.773   0.474   1.465 -0.1801  0.0691 -0.0339
10176W        W27700  14.388  16.237   0.741  0.2004 -0.1367  0.1551
10177W        W27701   3.311  15.956   1.821 -0.0170 -0.2150 -0.0453
10178W        W27702   5.410   7.154   1.488 -0.2661 -0.0757  0.0005
10179W        W27703   3.883  12.991  13.005 -0.1251 -0.2576  0.0872
10180W        W27704   5.473  11.226   5.038 -0.1408 -0.0511  0.2750
10181W        W27705   9.838   3.931  15.820 -0.2387  0.2682 -0.0239
10182W        W27706   8.381   7.321   1.590  0.1967 -0.1182  0.0835
10183W        W27707  14.644   5.243   1.623 -0.2053 -0.0141 -0.0559
10184W        W27708  15.619   4.378   4.359 -0.0965 -0.0240 -0.1753
10185W        W27709  16.842  17.102  14.125 -0.1993  0.3527  0.0653
10186W        W27710  10.279  15.024  15.933  0.0030  0.0139  0.1733
10187W        W27711   3.239   7.597  12.403 -0.1592 -0.4064 -0.1171
10188W        W27712  16.149   1.974  11.134 -0.2333 -0.1546 -0.0501
10189W        W27713  12.243  15.071   5.116 -0.0800  0.1893  0.1759
10190W        W27714   7.945   8.136  13.221 -0.0826 -0.0734 -0.0110
10191W        W27715   3.324   1.729  14.473  0.0068  0.1707 -0.1032
10192W        W27716   4.944   0.367  15.115 -0.2234 -0.0742 -0.1667
10193W        W27717  11.951  13.177   1.619 -0.0300 -0.4239  0.2783
10194W        W27718   4.967  14.972   2.664 -0.2635 -0.1990  0.0064
10195W        W27719  15.193  16.415   3.455 -0.0563 -0.0034  0.1312
10196W        W27720  11.196   4.527   2.787  0.1086 -0.0714 -0.0464
10197W        W27721  17.379   7.193  15.377 -0.0345 -0.3428 -0.3013
10198W        W27722   1.686  10.575   3.728 -0.2251  0.1426 -0.1126
10199W        W27723  14.453  10.417   4.680 -0.0131  0.2709 -0.1636
10200W        W27724   8.942   3.580  13.276  0.0725 -0.0759  0.0427
10201W        W27725   5.553  17.069  15.004  0.1686 -0.2342 -0.2176
10202W        W27726   2.547   3.990  14.286 -0.1313  0.3484  0.2018
10203W        W27727  14.948  10.813  13.634  0.0759 -0.1842  0.0362
10204W        W27728   1.203   2.221  12.679  0.5311 -0.1923 -0.4447
10205W        W27729  17.875   5.811  10.994 -0.0935  0.4044  0.0424
10206W        W27730   3.437   7.073   0.018 -0.2009 -0.0699  0.1107
10207W        W27731   6.470  13.779   4.185 -0.1205 -0.1425  0.0981
10208W        W27732   7.840  17.897   6.020 -0.0231 -0.0231 -0.1484
10209W        W27733   7.739   1.160  15.025  0.3090 -0.0038 -0.1221
10210W        W27734  12.444   1.062   0.649  0.1923  0.3185  0.1622
10211W        W27735  17.281  17.632  13.374 -0.1349 -0.1232 -0.2237
10212W        W27736   7.525  11.017   1.625 -0.1306 -0.0063 -0.0892
10213W        W27737  14.162  11.068   4.367  0.0680  0.0317 -0.0519
10214W        W27738   9.906  17.314  15.982  0.2934  0.1594 -0.0319
10215W        W27739  13.589  17.122   5.129  0.3273  0.1114 -0.1037
10216W        W27740   7.159  13.620   1.352 -0.0325 -0.0217 -0.5316
10217W        W27741   7.861   7.791  11.370 -0.1152  0.3072 -0.0281
10218W        W27742   6.248   5.829  12.187 -0.0471 -0.0108 -0.1198
10219W        W27743  11.669   9.048   3.661 -0.0536 -0.0658 -0.2144
10220W        W27744   9.998  12.684   0.528  0.2369  0.0399  0.2720
10221W        W27745   7.643  15.478   3.327 -0.2557  0.3883 -0.1008
10222W        W27746   9.488  13.938  15.273 -0.1450 -0.0111  0.1111
10223W        W27747  10.307  11.741   2.433 -0.0704  0.0419  0.0422
10224W        W27748   1.986   2.366   1.288  0.2899  0.1447 -0.3312
10225W        W27749   9.783  15.539   3.507 -0.0586  0.1997 -0.1162
10226W        W27750   7.336  12.611  15.200 -0.0076 -0.1126 -0.1462
10227W        W27751  10.086   5.078  13.342  0.2862  0.0669  0.0687
10228W        W27752   5.568   8.641   4.378 -0.1282 -0.0062 -0.2038
10229W        W27753   5.023  14.475   2.835 -0.1469  0.2976 -0.2135
10230W        W27754   5.570   1.881  12.975  0.1608 -0.0335  0.0309
10231W        W27755   0.438  12.676  13.897  0.1250 -0.2332  0.0004
10232W        W27756  11.578   0.900  12.665  0.1114  0.1793  0.0150
10233W        W27757  14.529   3.031  11.660  0.0378 -0.1155 -0.2098
10234W        W27758  10.493   9.719   1.838  0.1370  0.5984  0.1767
10235W        W27759   2.471   9.065   2.848 -0.0976 -0.4862 -0.3765
10236W        W27760   3.329   9.879   1.814 -0.1850  0.1969  0.4536
10237W        W27761   5.381   4.737   4.118 -0.0886  0.2551  0.3594
10238W        W27762  10.374   0.581  14.767  0.2065 -0.1382 -0.0878
10239W        W27763   2.163   9.679  12.465 -0.1444 -0.0529 -0.3573
10240W        W27764   4.933  16.270  13.845  0.1667  0.0324  0.4148
10241W        W27765   4.187   9.621   3.007 -0.0970 -0.2504  0.1789
10242W        W27766  10.602   9.710   4.337 -0.0980 -0.2067 -0.0659
10243W        W27767   1.577   9.079  11.294  0.2380  0.3350 -0.0686
10244W        W27768   7.262   4.798  12.469  0.0483 -0.1211 -0.0078
10245W        W27769   7.532   4.727  13.020 -0.2514  0.0193 -0.3160
10246W        W27770   6.159   9.725   4.166  0.1192 -0.0941 -0.2273
10247W        W27771   5.163   7.542   4.513  0.0877 -0.0835 -0.0825
10248W        W27772   4.046   2.601   1.991  0.0028  0.1466  0.0396
10249W        W27773   9.694   5.623  15.441  0.1894 -0.2398  0.2070
10250W        W27774   6.497   6.390   0.532  0.2222  0.1621  0.0970
10251W        W27775   9.734  14.039   0.064  0.0801  0.2655 -0.1883
10252W        W27776  10.578   0.295   1.515  0.0789  0.1823 -0.0629
10253W        W27777  14.021  14.450   5.833  0.0135  0.1967 -0.0216
10254W        W27778   2.067   2.871  13.008  0.0308 -0.0945  0.0820
10255W        W27779  12.742  10.883   3.797 -0.0032 -0.0809  0.1197
10256W        W27780  12.096  17.733  14.308 -0.1512  0.2440 -0.1848
10257W        W27781  10.629  11.553  13.285 -0.1864  0.4435 -0.2419
10258W        W27782  12.338  13.643  15.795  0.0402 -0.2774  0.0110
10259W        W27783   9.838   9.798   4.814 -0.0133  0.1364  0.0664
10260W        W27784   0.894   1.980  15.632 -0.0979  0.1572  0.2243
10261W        W27785  14.769  16.165   4.919 -0.2121  0.1085 -0.4229
10262W        W27786  13.250   7.238   4.821 -0.0504 -0.1145 -0.3336
10263W        W27787   8.711   3.729  15.213  0.1796  0.1694 -0.4090
10264W        W27788   1.905   0.037  16.107 -0.0562  0.1039  0.3351
10265W        W27789  11.463   7.086  14.973  0.3319  0.0045 -0.2756
10266W        W27790   7.679  17.212  15.747 -0.2510 -0.2542 -0.0841
10267W        W27791   4.596   9.936  14.078 -0.0885 -0.0699 -0.0165
10268W        W27792  12.725  16.078   1.867  0.1530 -0.0106 -0.2746
10269W        W27793   2.164   6.587  13.382  0.2677 -0.1565  0.2486
10270W        W27794   0.244   0.047   0.951 -0.2140 -0.1752  0.1722
10271W        W27795   9.640  17.924   5.039 -0.3074  0.2375  0.1001
10272W        W27796   1.203  10.848  13.098 -0.0731 -0.0352  0.1349
10273W        W27797   7.585   5.078   3.865  0.1646 -0.1485  0.0080
10274W        W27798  13.030   7.083  16.158  0.1208 -0.2408  0.1168
10275W        W27799   3.917   5.899   6.114  0.0132 -0.1345 -0.1787
10276W        W27800   9.268   8.005  14.400  0.2349  0.0113  0.1364
10277W        W27801  12.240  17.883   0.826  0.0328  0.1491  0.0178
10278W        W27802   8.416   2.278  14.383 -0.5014  0.2794  0.0658
10279W        W27803  12.386   4.366  14.075 -0.5178  0.1872  0.0107
10280W        W27804   3.007   6.322   4.827 -0.0785 -0.3405  0.2844
10281W        W27805  15.211  14.575  14.674 -0.1250  0.1087  0.3795
10282W        W27806  16.065   7.878   2.311  0.1302 -0.0043 -0.0426
10283W        W27807  15.285  10.928   4.891 -0.0726  0.1446 -0.0132
10284W        W27808   6.047   4.071   4.900  0.2874  0.0506  0.3005
10285W        W27809  11.195   5.629  14.318 -0.0277  0.0924  0.0055
10286W        W27810   4.595   3.249  15.893 -0.3366  0.1373  0.1896
10287W        W27811  12.610  15.457   5.151  0.1502  0.1535  0.1036
10288W        W27812  11.336   4.973  16.326  0.0999  0.0361  0.1490
10289W        W27813   6.180  14.062   1.454 -0.2031 -0.1830 -0.0536
10290W        W27814  12.369   7.467   3.502  0.1164  0.3182 -0.0834
10291W        W27815   0.890   5.410  13.497  0.2221  0.4511 -0.0790
10292W        W27816  14.924   2.455  15.492 -0.0070 -0.1855  0.0204
10293W        W27817  11.261   8.617   0.141  0.0620  0.1347 -0.2001
10294W        W27818   0.625  16.224  15.585  0.1355 -0.0072  0.2241
10295W        W27819  16.272   6.204  13.093 -0.2287 -0.2411 -0.0651
10296W        W27820   8.911   7.923   3.990 -0.1365 -0.1367  0.2260
10297W        W27821  17.734   5.764  12.855  0.0391 -0.1109  0.2107
10298W        W27822  16.802   3.519   1.961  0.3801  0.2637 -0.3015
10299W        W27823   4.380  17.096   2.190 -0.0571 -0.1036  0.2824
10300W        W27824  15.022  14.342  12.924  0.0418 -0.2913  0.1320
10301W        W27825  14.792  10.077   3.706 -0.2719 -0.0587  0.0233
10302W        W27826   7.266   7.678  15.628 -0.0540  0.0537 -0.2006
10303W        W27827  13.415  13.081  15.899 -0.0524 -0.1969 -0.2266
10304W        W27828  12.906  17.762  14.736 -0.3111  0.1566  0.4523
10305W        W27829  15.494  10.146  16.411  0.1003  0.4429  0.2677
10306W        W27830  14.931  13.402   1.607  0.0371  0.1517 -0.0061
10307W        W27831  11.424   9.479   1.593  0.0626 -0.0471 -0.2649
10308W        W27832   2.491  11.669  15.994 -0.2230 -0.0961 -0.5018
10309W        W27833   9.224  10.541  13.671  0.0930 -0.0247 -0.0567
10310W        W27834   4.221  17.266  13.540  0.2656  0.0289  0.0561
10311W        W27835   7.300   6.394   4.173  0.0799 -0.0965  0.1132
10312W        W27836   9.153   8.908  14.015 -0.0346 -0.2835  0.2511
10313W        W27837  17.202   6.316  14.635  0.1825  0.1510  0.0664
10314W        W27838   0.887  12.485   3.974  0.1734 -0.2464  0.2820
10315W        W27839   9.683  12.483   1.397 -0.0211  0.0061 -0.1876
10316W        W27840  10.756   3.716   0.734 -0.3509  0.2297 -0.1867
10317W        W27841  14.510   2.709   3.688  0.2014  0.4286  0.0026
10318W        W27842  13.134  11.707  14.354 -0.1534  0.1101 -0.0151
10319W        W27843  11.758  10.620   0.707  0.1355 -0.0635  0.0406
10320W        W27844   6.217  15.056   2.016  0.0184  0.2545  0.0419
10321W        W27845   9.445   7.184   4.015  0.2937 -0.5519  0.0262
10322W        W27846   8.047  14.564   1.731  0.3467 -0.0689 -0.1510
10323W        W27847   5.832  17.793  15.600  0.1008  0.0247 -0.4220
10324W        W27848   0.628  10.227  14.923 -0.2677 -0.0637 -0.0487
10325W        W27849  10.232  10.452   3.818 -0.1649  0.1091  0.0470
10326W        W27850   0.475   1.691  15.382 -0.4553 -0.3078 -0.1595
10327W        W27851  13.270   4.874   2.731 -0.1582  0.0167  0.0428
10328W        W27852   0.196   3.309   0.800 -0.0262  0.1492  0.0416
10329W        W27853   5.537   5.312  11.950  0.1167 -0.0438  0.0799
10330W        W27854   6.525   2.195  14.736 -0.0501  0.2895  0.2768
10331W        W27855  13.055  17.534  13.170 -0.1024  0.0556  0.3752
10332W        W27856   5.686  12.329   0.501 -0.1679 -0.1715  0.3141
10333W        W27857   0.041  12.178   0.229  0.2516 -0.1007  0.1627
10334W        W27858   0.956   4.961   0.402  0.1979  0.0243  0.0518
10335W        W27859   0.433   6.312  13.473  0.1571  0.0920  0.2637
10336W        W27860  16.368  14.898   1.780  0.0634  0.0635  0.2792
10337W        W27861  10.583   6.577  15.617  0.2067  0.2661  0.0517
10338W        W27862   1.984   8.963  11.585  0.2058 -0.0991 -0.5963
10339W        W27863   4.508   8.538   4.251  0.0030 -0.1185 -0.0112
10340W        W27864   0.824   8.859  15.430  0.3210 -0.3090  0.0360
10341W        W27865  14.245   7.867   0.095 -0.0683  0.1409 -0.1244
10342W        W27866   2.938   4.751   2.656 -0.0846 -0.2283 -0.3346
10343W        W27867  14.079  14.285  15.465 -0.1171 -0.1673 -0.2484
10344W        W27868  10.939   0.071  14.079  0.1069 -0.2452 -0.0537
10345W        W27869  12.647   4.596  11.681 -0.0735  0.0434  0.1918
10346W        W27870   9.620  15.452   2.420  0.0810 -0.1281 -0.0452
10347W        W27871  17.642   4.927  13.545  0.1358  0.4676  0.2048
10348W        W27872   0.113   7.034   1.094  0.2671  0.1039  0.0035
10349W        W27873   3.954  10.000   4.313  0.1715  0.1270 -0.0608
10350W        W27874   9.309  14.111  16.252 -0.2091  0.2412  0.0883
10351W        W27875   3.809  11.824  16.341 -0.0015  0.2707 -0.2294
10352W        W27876  10.098   8.240  14.543  0.2126 -0.0857  0.2817
10353W        W27877  13.039   8.424  12.581  0.1165 -0.0958 -0.0997
10354W        W27878   9.077  11.690   5.716 -0.2253  0.1767  0.2201
10355W        W27879   4.683   3.256  13.839 -0.0689  0.1541 -0.1569
10356W        W27880  13.488   9.181   3.927 -0.3218  0.0962  0.1340
10357W        W27881   3.621   5.222  15.540 -0.1870  0.0276  0.1752
10358W        W27882  17.786  15.354  15.469  0.0096 -0.1475  0.0458
10359W        W27883   4.397   2.268   1.645  0.1846  0.0161  0.0345
10360W        W27884  16.354   0.436   0.914  0.1462 -0.1814 -0.0253
10361W        W27885  12.892   3.694   1.749 -0.2033 -0.3509  0.2614
10362W        W27886   8.066   3.352  11.315  0.4609  0.0799 -0.2658
10363W        W27887  14.902   0.813  10.724  0.1439 -0.0912 -0.0395
10364W        W27888   8.840   1.825   4.796  0.0035  0.2025  0.1525
10365W        W27889   8.067  14.814  11.947 -0.0015  0.1517 -0.0932
10366W        W27890   1.760   2.812  12.145 -0.1479  0.0186 -0.0414
10367W        W27891   7.166   8.118   0.894 -0.2998 -0.1007 -0.0401
10368W        W27892   2.956   4.634   0.018  0.1482 -0.1120 -0.1163
10369W        W27893   2.286  15.878  14.297 -0.2913  0.0607 -0.4216
10370W        W27894   4.303   1.194  16.349 -0.0381  0.0753  0.1948
10371W        W27895   8.378  14.412  12.676  0.0304  0.1948  0.1479
10372W        W27896   8.465   2.594  13.762 -0.0163  0.1069  0.1181
10373W        W27897   8.268   2.904  11.731 -0.0594  0.5660 -0.0731
10374W        W27898   5.451   5.976   2.861  0.1944  0.1628 -0.0572
10375W        W27899   9.292   0.022   0.689  0.1799  0.1568  0.2151
10376W        W27900  17.634  10.298   3.179  0.1429 -0.1455  0.1103
10377W        W27901  10.006  10.786   0.832  0.0880  0.4628  0.1113
10378W        W27902   7.429  13.474  11.540 -0.1866 -0.1889 -0.2395
10379W        W27903  17.519   7.078   4.765  0.2253  0.1377  0.1919
10380W        W27904  13.259  16.720   5.141  0.1017 -0.2287 -0.2375
10381W        W27905  15.667   5.526   2.963  0.2047 -0.1224 -0.1091
10382W        W27906   1.667  13.416  14.015  0.0231 -0.0448 -0.1585
10383W        W27907  17.356   5.949   2.293 -0.0903 -0.1160  0.3347
10384W        W27908  15.589   0.849  14.408  0.0539 -0.1264  0.1799
10385W        W27909  12.017   3.297   3.323  0.3125  0.0643 -0.0185
10386W        W27910   0.620   2.970   0.732  0.2200 -0.0839 -0.0718
10387W        W27911  16.032   8.335  13.392  0.1336 -0.1057  0.2907
10388W        W27912  13.643  14.560  15.454  0.1944 -0.1693 -0.0513
10389W        W27913   3.811   9.920  14.837 -0.0311 -0.0514  0.1035
10390W        W27914   7.627  15.643   0.074 -0.2393  0.0331 -0.2283
10391W        W27915   2.887  12.728   3.544  0.1197  0.1526 -0.0753
10392W        W27916   8.686   1.096   3.776 -0.1603  0.1983 -0.1389
10393W        W27917  12.035  11.769  11.770  0.1223  0.0854 -0.1146
10394W        W27918   2.916   5.757   4.115 -0.1734  0.0934  0.0074
10395W        W27919   1.159   5.989   2.996 -0.5047  0.2108 -0.0564
10396W        W27920  10.797   8.848   3.432  0.2791  0.1384  0.0117
10397W        W27921  13.658   3.242  14.279 -0.1493  0.0553 -0.0245
10398W        W27922   3.842   8.292  10.687 -0.1164  0.2549  0.0336
10399W        W27923  13.935   4.451   0.545  0.1603  0.3075  0.0079
10400W        W27924  10.411  11.099  14.491 -0.0762 -0.2807  0.0630
10401W        W27925  10.117   5.323   4.574  0.2527 -0.1258  0.2243
10402W        W27926  14.665  16.510   2.153 -0.2361 -0.1912  0.0846
10403W        W27927  16.725   4.919  11.978 -0.3705 -0.0476  0.3770
10404W        W27928  11.167   0.460   3.094  0.3144 -0.1246  0.0017
10405W        W27929   7.566   0.966  14.524 -0.2029  0.2622 -0.1397
10406W        W27930  10.177  16.597   5.889  0.0060  0.0655  0.0286
10407W        W27931  11.084   3.924  11.286  0.1599  0.1160  0.4134
10408W        W27932   7.911   4.204   3.763  0.3177  0.2600 -0.3132
10409W        W27933  11.988   0.306  13.596 -0.0255 -0.2945 -0.0397
10410W        W27934  14.923   5.003  11.822  0.3066 -0.1503  0.0550
10411W        W27935  12.440  15.743  12.234 -0.0782 -0.1241 -0.4182
10412W        W27936   8.947   1.834   1.125  0.0353  0.0544  0.1882
10413W        W27937  10.807   2.907  12.195  0.3344  0.1370 -0.0622
10414W        W27938   9.266  17.324   4.515  0.0884 -0.0229 -0.3099
10415W        W27939   3.352   4.744  13.820 -0.2149 -0.0300  0.1693
10416W        W27940   9.954  13.464   3.678  0.2129  0.0165  0.0146
10417W        W27941  15.189   6.614  13.101  0.2556  0.1501  0.1378
10418W        W27942  10.138  10.690   3.222 -0.2003 -0.0661 -0.0531
10419W        W27943  15.203  16.117  13.054  0.2621  0.0962 -0.2320
10420W        W27944   2.715   3.154   3.792 -0.2122  0.1501 -0.0963
10421W        W27945   9.237   8.066   5.400  0.0017 -0.0550 -0.0987
10422W        W27946  10.887  11.262   2.312  0.2644 -0.0107  0.1156
10423W        W27947  11.730   8.084  16.114  0.0956 -0.1772 -0.3478
10424W        W27948   7.766   3.043  13.662 -0.0314  0.1364  0.0130
10425W        W27949   2.221   3.298   5.093  0.0607  0.1728 -0.3051
10426W        W27950  11.725  11.509   1.925  0.0104 -0.0150  0.0487
10427W        W27951  11.103   4.645  16.039 -0.0445 -0.0763  0.1691
10428W        W27952  14.938   8.868  13.343  0.0220 -0.0706 -0.1254
10429W        W27953   2.089   8.453  13.240  0.0163  0.1261 -0.0161
10430W        W27954  14.276  14.371   3.324  0.0771 -0.1859 -0.0727
10431W        W27955  17.250   0.893   1.103 -0.0595  0.4567  0.1454
10432W        W27956  15.199  17.600   3.547  0.0584 -0.0581  0.2572
10433W        W27957  13.115   1.183   1.185 -0.0337 -0.0482  0.0818
10434W        W27958   3.941  14.291   1.024  0.0744  0.1447 -0.3011
10435W        W27959  17.312   0.429   4.767  0.1098 -0.1196  0.0986
10436W        W27960  16.297  10.756   0.419 -0.1889 -0.1064  0.2090
10437W        W27961   5.410   3.271   4.846  0.0608 -0.1272  0.0626
10438W        W27962   5.769  13.607   3.652  0.1393  0.0741  0.3276
10439W        W27963  13.174   2.326  13.737 -0.1473  0.0706  0.3118
10440W        W27964   7.814   4.045  12.492 -0.3240  0.0783  0.1430
10441W        W27965   1.242  15.144  14.960  0.2124 -0.4257  0.2179
10442W        W27966   4.840  16.247  12.430 -0.1386 -0.6109 -0.0882
10443W        W27967   9.486  12.162   1.765  0.1886 -0.0999  0.2407
10444W        W27968  17.859   3.238  13.132 -0.0888 -0.0144 -0.0877
10445W        W27969  14.354   2.109   1.877  0.2605  0.3912 -0.3070
10446W        W27970   2.732  14.679  14.484  0.1340 -0.0974 -0.2781
10447W        W27971   4.452  16.398  13.791  0.0114 -0.2147  0.0186
10448W        W27972  12.297  13.193  12.841 -0.0356 -0.1328  0.2478
10449W        W27973   9.289  12.901  11.917 -0.1397  0.2182 -0.0113
10450W        W27974  12.086   6.887   0.670 -0.0672  0.2806 -0.0180
10451W        W27975  14.890  13.835   4.359 -0.1383  0.3374  0.0945
10452W        W27976  12.267   1.799  15.100  0.3953  0.2461 -0.2443
10453W        W27977   1.869  16.047   5.227  0.0226  0.2112 -0.3911
10454W        W27978  10.129   3.884   2.712  0.0826 -0.0343  0.3316
10455W        W27979   2.416   1.750   1.969 -0.1612 -0.1631 -0.1738
10456W        W27980   8.985   8.388  12.666  0.0597 -0.1555 -0.0177
10457W        W27981  11.052   7.124   5.069 -0.0905  0.3074 -0.0536
10458W        W27982  10.548  16.433  15.751 -0.0909 -0.3719 -0.2439
10459W        W27983   6.056   3.005  11.571  0.0707  0.0231 -0.0780
10460W        W27984  17.378  16.917   0.445  0.0102  0.1522 -0.1954
10461W        W27985  12.936  14.378   1.543 -0.0785 -0.0142 -0.1775
10462W        W27986  11.837  10.194   2.696 -0.0739  0.0771 -0.1285
10463W        W27987   4.465   6.126   1.248  0.1521 -0.4405  0.2119
10464W        W27988   9.979  16.986   0.541  0.1018  0.1129  0.1692
10465W        W27989  17.217  15.507  15.861 -0.4238 -0.0934 -0.1218
10466W        W27990   3.672   5.709  16.081 -0.0256 -0.0606  0.1328
10467W        W27991   9.295   6.180  14.683  0.1276 -0.2235  0.0487
10468W        W27992   3.580  17.900   5.025 -0.1686 -0.2193  0.3352
10469W        W27993   5.405  17.510  12.756  0.1326 -0.0499 -0.1677
10470W        W27994  13.502   2.597  12.378 -0.0096  0.0093 -0.1715
10471W        W27995  10.057   0.166   4.182 -0.0689 -0.4072  0.1311
10472W        W27996   5.642   3.543   2.684 -0.0163  0.1149  0.1011
10473W        W27997  13.066  16.720   0.774  0.0491 -0.0355  0.1291
10474W        W27998  15.713   9.115  14.335 -0.0138  0.0031 -0.0803
10475W        W27999   2.218   3.409   0.882  0.1963  0.1050  0.0573
10476W        W28000   7.783   8.330   4.493 -0.0384  0.3790 -0.0027
10477W        W28001  14.006   5.525   3.597 -0.0193 -0.1250 -0.0064
10478W        W28002   9.142  11.071  13.604  0.3926  0.0789  0.2606
10479W        W28003   9.875  17.526   0.541 -0.0165  0.0288 -0.0607
10480W        W28004  13.921  16.709  12.061  0.2577 -0.3080 -0.3231
10481W        W28005  16.815   3.774  15.540 -0.0251  0.2816  0.1031
10482W        W28006   8.208  13.708  16.370  0.0535  0.0582  0.1527
10483W        W28007   4.107  13.018   5.999  0.1760 -0.1506 -0.1020
10484W        W28008   5.624   1.834   5.387 -0.0429 -0.0849  0.4939
10485W        W28009   4.498   3.817   0.910  0.2073 -0.3272 -0.4755
10486W        W28010   9.805   4.063   4.738  0.2322 -0.3338  0.2997
10487W        W28011  10.779   7.825  14.645  0.1807  0.0597  0.0312
10488W        W28012  13.128  15.789   0.227 -0.2099 -0.1955 -0.5152
10489W        W28013  16.808  16.025   3.113  0.1689 -0.0326  0.1724
10490W        W28014  17.869   3.614   0.578 -0.2357 -0.2102  0.1946
10491W        W28015   2.087   4.204   2.299  0.0104  0.1007 -0.0486
10492W        W28016   8.533  17.238   0.800  0.0524 -0.4536 -0.1275
10493W        W28017   0.791  16.687   2.245 -0.2774  0.0215  0.1214
10494W        W28018   4.643   2.395   3.628  0.1199  0.1679 -0.0386
10495W        W28019   6.072   7.924  13.805 -0.1107  0.1138 -0.1616
10496W        W28020  13.704  16.620   4.999 -0.0642 -0.0853  0.2005
10497W        W28021   7.717   7.538  15.414 -0.0625  0.3393 -0.0327
10498W        W28022   5.775   2.224  12.019  0.0885  0.3948  0.0247
10499W        W28023  11.263  14.135   0.561 -0.0986 -0.1024 -0.2385
10500W        W28024  17.140  10.730   2.066  0.0562  0.1169  0.0697
10501W        W28025   2.304  10.925  15.398  0.2883  0.0374  0.1635
10502W        W28026  11.741  14.393   0.075 -0.0225  0.1503  0.0426
10503W        W28027   4.375  13.734   2.477  0.1256  0.3293 -0.5152
10504W        W28028   6.710   7.684   1.150  0.1033 -0.0009  0.1564
10505W        W28029  14.778  11.187  10.391 -0.0640 -0.0435  0.0770
10506W        W28030  16.711  17.842   2.201 -0.0452  0.1196  0.1469
10507W        W28031  11.533   8.577   1.497 -0.2900 -0.5083  0.1588
10508W        W28032  13.650   0.349   0.710  0.3501  0.1577  0.0029
10509W        W28033   7.588   0.149  12.004  0.0053 -0.3006 -0.2008
10510W        W28034  10.641  11.726  12.022  0.1651 -0.0041 -0.2636
10511W        W28035   2.799  14.351  13.175  0.0645  0.0323  0.1067
10512W        W28036   3.658   5.198  16.080 -0.0104  0.0340 -0.1031
10513W        W28037   9.436  10.059  12.727  0.0584  0.6319 -0.0741
10514W        W28038  10.562  10.013   3.890  0.2613  0.1730 -0.1559
10515W        W28039   8.564   0.684   0.285 -0.0687  0.2199  0.0551
10516W        W28040   3.152   6.330  15.097  0.1849  0.0843 -0.1391
10517W        W28041  14.073   8.019   3.754  0.2936 -0.0483  0.1966
10518W        W28042   2.245   4.230   1.818  0.1884  0.3236  0.1583
10519W        W28043  14.103   2.362  13.702 -0.0422 -0.0569 -0.4092
10520W        W28044   2.375   8.156  14.529  0.1177 -0.2655 -0.2620
10521W        W28045   3.477  14.925  11.684 -0.1096 -0.1414  0.2845
10522W        W28046  15.190  16.732  13.430 -0.1244 -0.1669 -0.1396
10523W        W28047   4.609  10.966   3.151  0.1472 -0.0754  0.1475
10524W        W28048  14.165  10.837   1.668  0.1321  0.0319 -0.2263
10525W        W28049  13.884   4.352  15.444  0.1918  0.0201 -0.2278
10526W        W28050  10.501  11.515   4.987 -0.2358  0.0345  0.4246
10527W        W28051   0.337  14.042  15.584  0.1725  0.2907  0.2929
10528W        W28052  15.316   1.324   4.430 -0.1671  0.3675  0.3741
10529W        W28053   0.476  13.258  13.682  0.1378 -0.1435  0.0694
10530W        W28054   6.266  11.653   2.765  0.2163  0.0978  0.1317
10531W        W28055   7.963  10.260   4.438 -0.1455 -0.1006  0.0405
10532W        W28056   1.352   8.130   3.328  0.2343 -0.0744 -0.0804
10533W        W28057   6.828   3.189   2.130 -0.0758  0.0639  0.0191
10534W        W28058  15.943   2.228  14.159  0.0171  0.0634 -0.1674
10535W        W28059  14.872   1.666  13.066  0.1186  0.0815 -0.0665
10536W        W28060   5.382   4.285  11.563 -0.2748  0.0248  0.1824
10537W        W28061   0.737   4.280  11.828  0.2704 -0.0206 -0.1889
10538W        W28062   9.958  15.451  15.759  0.3075  0.1239  0.3063
10539W        W28063   6.748  10.626   0.204 -0.0149  0.2107  0.0072
10540W        W28064  12.530   7.563  15.615  0.1550  0.0316  0.8955
10541W        W28065   8.314  13.399  12.308 -0.0449  0.1608 -0.2074
10542W        W28066   5.314   3.782  14.702  0.1852 -0.1008  0.1638
10543W        W28067   3.150  10.985   0.158 -0.0054 -0.1758 -0.1045
10544W        W28068   6.470   8.576   0.612 -0.1911  0.2222 -0.1947
10545W        W28069   1.428  11.746  13.821  0.5591  0.0381  0.0255
10546W        W28070  10.245  10.893  16.220  0.0687 -0.0950 -0.0912
10547W        W28071  10.544   3.680  13.476  0.0758 -0.0425  0.1936
10548W        W28072  11.903   3.898  13.326  0.2383  0.0621 -0.0414
10549W        W28073  16.330  10.991   3.855 -0.3221  0.0167 -0.3898
10550W        W28074  17.039  10.075  14.584 -0.1089  0.1423  0.0931
10551W        W28075  11.874  16.754  14.301  0.2367 -0.1335  0.0346
10552W        W28076   0.368  10.040   1.663  0.1551  0.1486 -0.1366
10553W        W28077   2.268   3.703   2.147  0.1006 -0.1614 -0.1970
10554W        W28078  10.474  10.245   0.571  0.1390 -0.0870  0.1521
10555W        W28079  11.962   3.511  15.177  0.2683  0.2725 -0.0918
10556W        W28080  14.402   9.802   4.525  0.1032  0.0294 -0.0507
10557W        W28081   8.372  13.782  11.257 -0.1774 -0.3585  0.0030
10558W        W28082   6.823  13.405  16.428  0.0924  0.1644 -0.0746
10559W        W28083  15.564   9.061  13.821  0.1373  0.5781 -0.0936
10560W        W28084   3.857   1.292  14.462  0.0992 -0.3309 -0.1745
10561W        W28085   3.159  17.450   2.382  0.2403  0.0461 -0.1175
10562W        W28086  14.928   3.740   2.181 -0.3122 -0.1479  0.1673
10563W        W28087  15.411  12.974  15.470 -0.2172 -0.0210  0.1135
10564W        W28088  11.144  16.166  13.760 -0.0256 -0.0476  0.0541
10565W        W28089  14.010   7.727  12.045  0.5054 -0.1877  0.1325
10566W        W28090   2.648   3.225   1.074 -0.0344  0.1061  0.0945
10567W        W28091   8.125  15.172  14.760 -0.0817  0.1950 -0.1432
10568W        W28092   4.845   8.154   1.301 -0.1237  0.1783 -0.0712
10569W        W28093  15.621  13.569  15.438  0.0883  0.2572 -0.0527
10570W        W28094   3.656  10.858  12.655  0.1469  0.0574 -0.5072
10571W        W28095   9.041  11.547   1.693  0.3234 -0.2921 -0.0005
10572W        W28096   2.295  16.174  11.716  0.3680 -0.1969 -0.0356
10573W        W28097  15.258   7.490   1.739 -0.1942 -0.1707 -0.0591
10574W        W28098  15.329   6.091  12.368 -0.0015 -0.2485  0.2040
10575W        W28099   8.713   0.365  15.352 -0.0256 -0.1506  0.0875
10576W        W28100  12.003   0.330   0.121 -0.1448  0.2528 -0.2475
10577W        W28101  10.543   0.563  15.326 -0.3420 -0.0975 -0.0250
10578W        W28102  16.887  14.278  12.290  0.1601  0.2376 -0.1650
10579W        W28103   2.543   0.979  15.086 -0.3655  0.2041  0.0740
10580W        W28104   8.807   2.013   0.231 -0.0411  0.0357 -0.0973
10581W        W28105  10.911  11.756   2.519  0.4251  0.0702 -0.1559
10582W        W28106   6.320  17.238   4.162 -0.0297  0.2914 -0.2982
10583W        W28107  13.745   2.039  12.862 -0.1621 -0.0305  0.2427
10584W        W28108   0.545  12.052  12.519  0.1550 -0.0370  0.1653
10585W        W28109  10.617  17.027  11.903  0.5183 -0.0186  0.2888
10586W        W28110   7.832   9.827   5.974  0.3048 -0.2256 -0.0068
10587W        W28111  15.408   8.340  12.139  0.1414 -0.2370  0.1688
10588W        W28112   2.040  14.584   0.551 -0.1936 -0.0219 -0.2351
10589W        W28113   6.469   7.450   2.924 -0.1839  0.2712 -0.2115
10590W        W28114   3.388  13.012  13.149  0.4450  0.1063  0.2320
10591W        W28115   9.960   6.640  13.115 -0.2103 -0.1056  0.1469
10592W        W28116   9.236  16.381  12.874  0.2346  0.0180 -0.2556
10593W        W28117  16.604   1.314   2.569 -0.0587 -0.0712 -0.1314
10594W        W28118  16.440   5.933  13.562  0.1057  0.0030  0.3217
10595W        W28119   8.581   0.938  11.377 -0.0455  0.0031 -0.2196
10596W        W28120  17.576  16.732  14.856 -0.0336 -0.1135 -0.1675
10597W        W28121  15.973   6.759   3.922 -0.0499  0.1462  0.0697
10598W        W28122  10.875   8.126   3.895 -0.1845  0.1669 -0.1271
10599W        W28123   2.363  13.809  15.234 -0.3522 -0.2507 -0.1675
10600W        W28124   2.021  12.407   2.705  0.1402  0.1553  0.2342
10601W        W28125   4.998   5.847   5.216 -0.0063  0.0209  0.0181
10602W        W28126  12.328  15.044   3.386  0.1936  0.0258 -0.1199
10603W        W28127   0.893   1.497   2.866  0.4165 -0.2005 -0.0165
10604W        W28128  11.719   6.910  15.651 -0.0700  0.0963  0.0811
10605W        W28129   9.478  17.170   0.472  0.0699  0.1376 -0.0367
10606W        W28130  12.805   1.295  16.399  0.0072  0.1335  0.0538
10607W        W28131   9.319   0.035  12.047 -0.1321  0.3141  0.2019
10608W        W28132   8.832   1.330  12.279 -0.2928 -0.3113 -0.1392
10609W        W28133   5.486  13.113  16.386  0.2718  0.0634  0.2670
10610W        W28134   5.977   4.060  13.244  0.1011  0.1304  0.0404
10611W        W28135  16.848  10.271   2.829  0.2218  0.1894 -0.0532
10612W        W28136   6.406  15.268  11.202  0.0168  0.2347  0.1099
10613W        W28137  12.467  13.111   0.271  0.2246 -0.1671  0.1117
10614W        W28138  10.542   4.340  14.362  0.0734 -0.1347 -0.0247
10615W        W28139   9.180  14.413  14.443 -0.2402 -0.1382 -0.0051
10616W        W28140   9.531   8.513  14.572  0.0420  0.1169  0.0630
10617W        W28141   1.908  17.867  13.709 -0.3150  0.1931  0.3334
10618W        W28142   8.907   0.130   1.157  0.0035 -0.0480  0.1675
10619W        W28143   0.369  16.290   2.042  0.1311  0.1005  0.1634
10620W        W28144  14.238   0.335   2.812 -0.0116 -0.0553  0.2572
10621W        W28145  17.160  11.933  12.938  0.2046  0.0319  0.0611
10622W        W28146   8.541   6.273  12.760  0.4405  0.0726  0.0299
10623W        W28147   2.058   5.724  16.010  0.0584  0.1143  0.1727
10624W        W28148   7.676  12.262  15.006  0.1597 -0.1510  0.1239
10625W        W28149   5.327   8.722  10.539  0.2585  0.0848 -0.1357
10626W        W28150   6.428  13.574  12.574  0.4926  0.1014 -0.1420
10627W        W28151  14.245   0.450  15.101  0.0850  0.0738  0.2719
10628W        W28152  15.627  15.699   1.113  0.2081  0.0567  0.0774
10629W        W28153   9.553  13.899   2.207  0.1924  0.1564  0.2066
10630W        W28154  11.733   4.267  14.753  0.3736 -0.2259  0.2577
10631W        W28155   2.025   8.572  14.433  0.1613  0.2278 -0.0468
10632W        W28156  10.818   0.370   0.113  0.0343  0.0054  0.0928
10633W        W28157   0.180   7.911  11.086  0.1722  0.0022  0.1884
10634W        W28158   1.944   7.993   3.593 -0.1146 -0.1269 -0.1219
10635W        W28159  10.851   7.361  13.838 -0.0579  0.1204  0.2441
10636W        W28160   9.449  10.854   3.760 -0.1129  0.0058 -0.0356
10637W        W28161   8.748   9.913  14.970 -0.3602  0.1462  0.0102
10638W        W28162  14.922  10.804  14.855 -0.1284 -0.0051  0.0328
10639W        W28163   7.520   6.854  15.951  0.0325 -0.1366  0.3123
10640W        W28164   8.414   1.775  14.823  0.2654 -0.0255  0.2267
10641W        W28165   1.171   9.538   0.558 -0.3527  0.2334 -0.0538
10642W        W28166  16.688   4.546   0.503 -0.0404  0.0500 -0.1121
10643W        W28167  16.505  11.437   4.017  0.2362 -0.0531  0.4055
10644W        W28168  17.388   9.420   4.095  0.1704  0.0558  0.3072
10645W        W28169   7.038  11.552  14.003  0.1007 -0.1559 -0.1117
10646W        W28170   2.221   4.205   4.762 -0.2779 -0.0073 -0.2972
10647W        W28171   1.136   2.014   4.925  0.1447  0.2686  0.1015
10648W        W28172   1.877   9.152   1.771  0.7095  0.3681 -0.0726
10649W        W28173   2.504   2.243  11.538  0.0429 -0.0923 -0.1463
10650W        W28174   4.597   7.019  10.961 -0.0847 -0.0766 -0.0087
10651W        W28175   5.336   6.312   0.754  0.2005  0.0941 -0.1211
10652W        W28176  15.413  10.835  11.961  0.1740  0.2874  0.2279
10653W        W28177   8.462  13.837   3.651  0.2179 -0.0625  0.2634
10654W        W28178  17.711   3.568  12.396  0.0673  0.0674  0.4508
10655W        W28179   0.543  13.678  12.946  0.2196 -0.2243  0.2222
10656W        W28180   3.766   6.395  14.625  0.0224 -0.1073  0.1202
10657W        W28181  14.713  10.983   3.315 -0.0024 -0.1376  0.2752
10658W        W28182  11.040  14.133  12.857 -0.2152 -0.1025  0.2216
10659W        W28183  13.945   6.523   1.451 -0.3998 -0.3152  0.0928
10660W        W28184   6.452   7.064   2.328 -0.4340  0.0360 -0.1208
10661W        W28185   1.936  10.856  11.905 -0.0193 -0.1946 -0.3533
10662W        W28186  17.221  13.633  12.635 -0.0632 -0.2242  0.3652
10663W        W28187  13.199  14.551   4.686  0.1756 -0.1720 -0.0266
10664W        W28188  16.467  17.961   4.640  0.1107  0.0249  0.0829
10665W        W28189  16.916  10.196   2.179  0.1933 -0.1429  0.0196
10666W        W28190   4.255   3.552  14.889  0.3670  0.0804  0.0927
10667W        W28191  10.273  15.679  12.548  0.1529 -0.1129 -0.0989
10668W        W28192  17.652  11.584  13.500 -0.0944  0.2950 -0.1028
10669W        W28193   2.428  15.406   1.130  0.1408 -0.0991 -0.2408
10670W        W28194   5.290   9.173   3.270 -0.0560  0.1120 -0.2900
10671W        W28195  14.304   8.720   1.814 -0.2563 -0.2782  0.1373
10672W        W28196  16.417   9.835  14.480  0.0647  0.5176  0.1781
10673W        W28197   7.233   3.018   2.506  0.5462  0.4805  0.0255
10674W        W28198   9.048   0.814  15.904  0.4501  0.3256  0.2904
10675W        W28199   2.125  12.052   4.611  0.1849  0.1250 -0.0762
10676W        W28200  11.910   3.378  13.151 -0.0224  0.0148  0.1207
10677W        W28201   1.389   9.506   3.056 -0.3759 -0.1582  0.0874
10678W        W28202   6.226  10.131   0.225 -0.1038  0.1254 -0.0049
10679W        W28203  14.623   9.941  15.476 -0.1394 -0.0948  0.2150
10680W        W28204   8.057  12.633  13.961  0.0986  0.0143 -0.1649
10681W        W28205   5.681   5.933   5.735 -0.1217  0.0359  0.0182
10682W        W28206   5.522  13.997  16.105 -0.0503  0.0201 -0.1739
10683W        W28207  15.917   5.917   0.097  0.0089 -0.1087  0.0118
10684W        W28208  14.131   9.275   3.657  0.0934 -0.2420 -0.2209
10685W        W28209   5.614   5.383  16.364  0.1116  0.1834  0.0549
10686W        W28210   6.621   0.210  16.225 -0.1161 -0.1720 -0.3971
10687W        W28211   6.426   4.333  13.276 -0.1134  0.1475 -0.1854
10688W        W28212   6.904   7.529   4.889 -0.2009  0.0572  0.0040
10689W        W28213  17.035  16.887  14.959 -0.1167  0.1994  0.0792
10690W        W28214  11.704   1.648   1.906  0.1769  0.1840  0.1190
10691W        W28215   1.260  13.074  11.766  0.5183  0.1070  0.1660
10692W        W28216  11.579  10.677  12.800 -0.0186  0.0028 -0.1378
10693W        W28217  13.803   8.567   2.874 -0.2006 -0.0250  0.3015
10694W        W28218  12.861   0.505  14.616 -0.1553 -0.4765 -0.3835
10695W        W28219   5.614  11.431  13.046  0.1431 -0.0506 -0.1497
10696W        W28220   3.541   0.850   4.149  0.1026  0.0347 -0.0941
10697W        W28221   1.471  10.684  14.824  0.3401 -0.2741 -0.1820
10698W        W28222   1.230   4.781   3.146 -0.1851 -0.2738  0.0019
10699W        W28223  10.752   0.700   1.275  0.1716  0.2316  0.2392
10700W        W28224  12.992   3.202   4.605  0.2756 -0.0310 -0.0604
10701W        W28225   1.013   4.748  14.301  0.0332 -0.1304  0.1080
10702W        W28226  13.474  13.606   3.811 -0.3018  0.3112 -0.1199
10703W        W28227   4.550   5.641  15.394 -0.2496 -0.2610  0.2852
10704W        W28228   6.548   6.867   5.214 -0.2330  0.0181  0.0136
10705W        W28229   9.271  13.209  13.821 -0.0754  0.0347 -0.1252
10706W        W28230   8.771  16.533  12.963 -0.1440 -0.0030  0.0688
10707W        W28231   5.719   1.344   0.835 -0.2314  0.1868 -0.1477
10708W        W28232   2.656   4.782  15.946 -0.1892  0.1100  0.0341
10709W        W28233   5.621   0.944  11.791 -0.3392  0.0658  0.1774
10710W        W28234  14.179   0.900   3.141 -0.1155  0.3092  0.0942
10711W        W28235   1.383  15.516  15.308  0.3046 -0.1817  0.1386
10712W        W28236  10.994   0.669  12.461 -0.2607 -0.3515 -0.2437
10713W        W28237   3.642  12.742   1.627  0.0208  0.3566 -0.1927
10714W        W28238  10.957   1.416   4.115 -0.0914  0.1614  0.2639
10715W        W28239  16.735   0.020  12.448 -0.0690 -0.2114 -0.0414
10716W        W28240   6.006   1.551  14.366 -0.0786 -0.3019 -0.0244
10717W        W28241  10.400   4.800  16.168 -0.0092 -0.1015  0.2586
10718W        W28242  15.832  10.548  12.658 -0.2693 -0.0368 -0.0767
10719W        W28243   0.521   8.905   2.905 -0.1387 -0.2005 -0.2182
10720W        W28244   3.569   8.881   0.182 -0.0236  0.1318 -0.0600
10721W        W28245   8.352  16.724  13.113 -0.2805 -0.1009 -0.2645
10722W        W28246   0.192   5.950  13.705  0.1645  0.0344  0.1377
10723W        W28247   1.062  15.119  13.223 -0.0180  0.0783  0.0549
10724W        W28248  17.175  16.336  11.455 -0.2464  0.0334 -0.2453
10725W        W28249   5.277   7.038  14.030 -0.0829 -0.1390 -0.1018
10726W        W28250   9.512   3.144   2.086  0.2540  0.2078 -0.2484
10727W        W28251  13.645  15.747   4.018  0.1698 -0.2389 -0.0320
10728W        W28252  13.566   1.914  13.474 -0.3015  0.1081 -0.0267
10729W        W28253  10.113   4.176   1.318 -0.1771  0.0575 -0.4335
10730W        W28254   5.598  13.415   4.521  0.0750  0.2288 -0.0867
10731W        W28255  11.797   5.225  15.116 -0.3638 -0.3039  0.1807
10732W        W28256   3.375  15.225  13.377 -0.0642 -0.0030  0.0828
10733W        W28257  14.131  17.442   3.950 -0.0937 -0.3137 -0.0889
10734W        W28258   0.048  12.816   1.492 -0.4772  0.3103  0.0603
10735W        W28259  15.412  12.355   1.082  0.0748  0.1000  0.1914
10736W        W28260   4.607   2.884  13.457 -0.3380 -0.0820 -0.1317
10737W        W28261   2.166   3.473  11.714 -0.0224 -0.2832  0.1637
10738W        W28262   4.293   2.361  15.563 -0.0093 -0.0444 -0.1409
10739W        W28263   1.973   5.603   1.301 -0.0138 -0.1216 -0.2778
10740W        W28264   7.171   0.809  16.174  0.1008  0.1586 -0.0213
10741W        W28265   4.463  14.087  12.412 -0.0406  0.0196 -0.0904
10742W        W28266  10.189   6.430  14.538 -0.0561 -0.1278  0.1629
10743W        W28267   6.536  10.111  15.742 -0.0092 -0.0452 -0.2467
10744W        W28268   9.772   6.768  14.365 -0.3019  0.0212  0.1788
10745W        W28269   6.702  13.587  15.999 -0.0281  0.4295 -0.0680
10746W        W28270   8.491   7.365  14.234  0.1672  0.3192  0.0071
10747W        W28271  14.990  14.601  12.362 -0.2211  0.0101  0.0430
10748W        W28272  10.211   3.825  12.985 -0.1526 -0.1986 -0.0522
10749W        W28273  12.668   6.205   4.436 -0.1360 -0.0702 -0.0691
10750W        W28274   9.441  11.494  13.659 -0.1063  0.2091  0.0613
10751W        W28275  17.900   9.905   2.889 -0.2857 -0.1923 -0.2234
10752W        W28276   4.934  16.473   0.640  0.1706  0.0993  0.0131
10753W        W28277  10.476   9.434  16.051 -0.0364 -0.4183 -0.5546
10754W        W28278  13.054   0.811   2.194 -0.1185 -0.5586 -0.2789
10755W        W28279  15.292   5.781   0.615 -0.1304  0.0750  0.0421
10756W        W28280  14.623  15.979   0.199 -0.0235 -0.1216  0.0426
10757W        W28281  13.638  16.616  16.457 -0.0374  0.2631 -0.0657
10758W        W28282  17.930  13.760   4.451 -0.0068 -0.3215  0.0580
10759W        W28283   9.184   4.778  14.696  0.2317 -0.2936 -0.1776
10760W        W28284   4.410   0.976  13.201  0.1887 -0.4153  0.1091
10761W        W28285  17.184  13.864   3.168  0.0110  0.0969 -0.1227
10762W        W28286   0.035  17.355   2.354  0.2001  0.0549 -0.1199
10763W        W28287   7.788   8.749  11.415  0.1793  0.1538 -0.0159
10764W        W28288  17.900  13.277  14.441 -0.0614  0.0477  0.2130
10765W        W28289   5.403   0.399  15.317  0.3669  0.0163 -0.1989
10766W        W28290   4.120   3.226   1.384 -0.1611  0.1176 -0.0575
10767W        W28291  13.911  15.248  13.253 -0.3477  0.2816  0.2168
10768W        W28292   0.868   9.232  15.795 -0.0744 -0.2938 -0.1919
10769W        W28293   7.875   9.868  12.484 -0.0135 -0.0602 -0.1014
10770W        W28294   8.091  14.083  13.956  0.0771 -0.4013 -0.0673
10771W        W28295   2.574  16.798  13.049  0.3005  0.2204  0.0581
10772W        W28296   5.767  14.826   4.888  0.0632 -0.0387  0.1713
10773W        W28297  16.807   6.883   2.835 -0.0935  0.0971 -0.0830
10774W        W28298  14.799  14.817  14.821 -0.0276  0.1355 -0.3568
10775W        W28299   7.155  13.855   3.938 -0.0684 -0.1340  0.0337
10776W        W28300   0.370   7.962   1.368 -0.0788 -0.0413 -0.2943
10777W        W28301   7.769   1.696   0.726  0.2721 -0.0284 -0.0642
10778W        W28302  12.620   7.600  15.093  0.3786  0.0580  0.0368
10779W        W28303   6.037   8.628  15.626  0.0654 -0.1448  0.1237
10780W        W28304  16.595   0.701   3.265  0.1376  0.0250 -0.0368
10781W        W28305   7.285   8.346  14.942 -0.1173 -0.1916 -0.0713
10782W        W28306   4.687   2.060  15.610  0.2940 -0.0934 -0.1137
10783W        W28307  15.933   0.737  15.308  0.0086 -0.0506 -0.0509
10784W        W28308  10.934  11.166  13.270 -0.1048 -0.0854  0.3502
10785W        W28309  15.811  12.466   0.713  0.3567 -0.0067 -0.2086
10786W        W28310  15.670  14.860   0.997 -0.0383  0.0371 -0.0264
10787W        W28311   9.897   4.219   3.753  0.1682  0.0467  0.5961
10788W        W28312   3.469   5.851  12.452 -0.2118  0.0876 -0.0350
10789W        W28313   4.138  15.012   4.367  0.0218 -0.1982  0.2314
10790W        W28314   4.669  11.788  11.956 -0.0934  0.0548  0.0931
10791W        W28315  11.658   2.490   4.075 -0.2958 -0.1401  0.5913
10792W        W28316  11.350  12.753   5.280  0.0175 -0.0124 -0.0813
10793W        W28317   2.094   0.800   4.914 -0.1397  0.0961 -0.2979
10794W        W28318   3.700  10.736   4.501 -0.1539  0.2842  0.0376
10795W        W28319  15.738   9.758   1.327  0.0711 -0.3210  0.1152
10796W        W28320   5.511   2.178  11.444  0.1539  0.0787  0.0782
10797W        W28321  11.993  11.954   4.897  0.0827  0.3097  0.0798
10798W        W28322   4.811   6.849   3.786 -0.2031 -0.0456 -0.1293
10799W        W28323   8.090   1.514  11.237  0.0520  0.1674 -0.0769
10800W        W28324   4.543   7.509  15.478 -0.0279  0.0261  0.3820
10801W        W28325   1.411   7.189  15.281  0.1597 -0.0477  0.0763
10802W        W28326  11.076   7.999   3.349  0.1265 -0.0948 -0.2598
10803W        W28327  11.595  13.539   4.860 -0.0196 -0.2039  0.1067
10804W        W28328   3.298   1.459  15.435 -0.0525 -0.2412  0.0383
10805W        W28329   3.010   3.903   1.356  0.1084  0.2960 -0.1191
10806W        W28330  11.859  11.234  15.376 -0.0822  0.0644 -0.1766
10807W        W28331  11.862   7.935  14.905  0.0710  0.2079  0.0585
10808W        W28332   6.768  10.956  14.267  0.2782 -0.4514 -0.4052
10809W        W28333  17.029   8.048   3.281  0.1781 -0.0001  0.2067
10810W        W28334  16.289  11.575   0.708  0.1520  0.2541 -0.0712
10811W        W28335   6.476  17.250   2.532  0.0703  0.0218 -0.4168
10812W        W28336  10.841   1.051   2.746  0.1598 -0.0691 -0.0654
10813W        W28337  16.910   8.380   1.733  0.0195  0.0306 -0.0213
10814W        W28338   1.235   6.616   1.753 -0.1008  0.2624 -0.0251
10815W        W28339  12.547  15.288  12.371 -0.4484 -0.0606 -0.2181
10816W        W28340  16.094   9.364  14.610 -0.0357  0.0175 -0.1983
10817W        W28341  17.037  12.780  12.742  0.0630  0.0104 -0.0860
10818W        W28342   7.306  14.154   3.037 -0.1239  0.3018  0.0382
10819W        W28343   0.564   4.767  10.289 -0.1126  0.1112 -0.1878
10820W        W28344   0.709  16.322   3.982 -0.1007  0.1716  0.0550
10821W        W28345   6.767   1.853   0.551 -0.0141 -0.0929 -0.2371
10822W        W28346  17.114   2.306   1.797  0.1721 -0.1898  0.0805
10823W        W28347   0.315   5.215   2.244  0.2342 -0.1312  0.0631
10824W        W28348   9.788  11.811   2.346  0.4504 -0.0336  0.1501
10825W        W28349  15.351   4.849   2.834 -0.2627 -0.2459  0.2003
10826W        W28350   8.694   2.249  11.136 -0.0518 -0.1633 -0.1952
10827W        W28351  13.508  14.399   3.457  0.3555  0.3081 -0.0541
10828W        W28352  10.750  15.004  15.721  0.0359  0.2626  0.2695
10829W        W28353  17.756  17.407   3.994 -0.0334 -0.2098 -0.1269
10830W        W28354   0.228   1.222  16.129 -0.0050 -0.0315 -0.2812
10831W        W28355   5.086  11.212  14.844  0.2079  0.1557  0.0404
10832W        W28356   9.707   4.550   3.443 -0.1150  0.1161 -0.0241
10833W        W28357   6.171   9.271  14.973  0.0352 -0.3426  0.0763
10834W        W28358   3.735   1.772  14.819 -0.0676 -0.1190  0.1205
10835W        W28359  12.222  14.123  11.811 -0.4535 -0.2027  0.0659
10836W        W28360  11.303  12.316  13.288 -0.2801  0.1504 -0.1619
10837W        W28361   7.949  16.848   4.009  0.1168  0.0344 -0.1531
10838W        W28362  10.423  12.172  12.336 -0.0550 -0.1083 -0.2465
10839W        W28363   2.728   7.068   1.948  0.0191  0.0070  0.0565
10840W        W28364  14.280   8.358  14.110  0.1948  0.0070  0.2781
10841W        W28365   6.651  10.030   4.003  0.0396 -0.1538  0.2131
10842W        W28366  11.527   6.064   4.345 -0.0111  0.0262 -0.2124
10843W        W28367   0.299  11.100  14.922 -0.0641 -0.2441  0.0503
10844W        W28368   5.076  12.502  15.993 -0.1114  0.1439 -0.1245
10845W        W28369   9.102   8.774   4.333  0.0996 -0.0244  0.1185
10846W        W28370  10.102  10.300  15.416  0.0130 -0.0391 -0.0258
10847W        W28371   5.081   3.976   4.770 -0.2744  0.1228 -0.0958
10848W        W28372  15.860  10.514   0.273 -0.0629  0.0015  0.0129
10849W        W28373  12.589   0.408  15.478  0.1247 -0.3667  0.1401
10850W        W28374  13.263  16.052  13.332 -0.2344  0.0456  0.1571
10851W        W28375   8.346   4.893  16.017  0.3237 -0.2299 -0.0463
10852W        W28376  10.943   7.029   1.701  0.1929 -0.1681  0.0053
10853W        W28377   8.333   4.181  14.442 -0.2039  0.1579 -0.4847
10854W        W28378  12.685   1.152   2.391 -0.2561  0.0238  0.0261
10855W        W28379   2.463   8.806   0.987  0.1389 -0.3139  0.1417
10856W        W28380  11.438  17.016  14.057 -0.2825 -0.3878 -0.2806
10857W        W28381   7.162   6.887   2.835  0.0085  0.0027 -0.0181
10858W        W28382  12.876  17.007  12.261  0.0746  0.1304  0.1005
10859W        W28383  15.148  15.909  12.125  0.0274  0.2892 -0.0534
10860W        W28384  12.949   0.046  15.275  0.1717  0.2364 -0.0313
10861W        W28385   3.187   0.294  13.991 -0.0137 -0.1726 -0.2060
10862W        W28386   6.452   0.201  11.563  0.0154  0.2313 -0.2504
10863W        W28387  17.179   2.656  12.117 -0.1980 -0.1061  0.1091
10864W        W28388   8.038   2.644  14.508  0.3885  0.1107 -0.0735
10865W        W28389   9.538   8.645   4.183  0.1184 -0.1063 -0.0475
10866W        W28390   7.663   5.300   1.139 -0.2391 -0.2822  0.0297
10867W        W28391  15.628   5.348   0.743  0.0209  0.0010  0.1077
10868W        W28392  17.929  17.331  16.352 -0.0132  0.0374 -0.0250
10869W        W28393   0.698   4.285   2.388 -0.0845 -0.2118  0.1124
10870W        W28394   1.913  13.361  15.765  0.0839 -0.1803 -0.2312
10871W        W28395  17.632   5.929   0.219 -0.0614  0.2797  0.3702
10872W        W28396   9.725   9.046   3.845 -0.0223 -0.0761 -0.0910
10873W        W28397   3.428   2.536  12.652 -0.0234  0.3485  0.3452
10874W        W28398   2.189  10.111  14.616  0.0164 -0.0031 -0.0284
10875W        W28399   9.517   8.133  16.261  0.1378 -0.1114  0.6507
10876W        W28400   3.449   7.802  15.952  0.0674  0.0827  0.0029
10877W        W28401  10.043  12.873   1.435  0.0117 -0.1017  0.1328
10878W        W28402  10.639   6.467  12.654 -0.0429  0.0226  0.1011
10879W        W28403   4.219   1.733  16.328 -0.2470  0.0988 -0.0002
10880W        W28404  10.364   4.153  12.563  0.2902  0.1308  0.0125
10881W        W28405  13.070   5.257   2.462 -0.1754  0.1295  0.1021
10882W        W28406  13.213  15.633   4.193 -0.1488  0.1578 -0.1386
10883W        W28407   2.771   3.682  10.546  0.2805 -0.1877 -0.3761
10884W        W28408  12.055   3.097  14.889 -0.0620 -0.0571  0.1261
10885W        W28409   7.013   5.234   5.495 -0.1156  0.2296 -0.3393
10886W        W28410  12.926  16.000   3.882  0.1198 -0.0201 -0.0679
10887W        W28411   1.864   1.489   4.850 -0.0332  0.0189 -0.1852
10888W        W28412   9.472   2.998  11.952  0.2480 -0.0461 -0.1462
10889W        W28413   5.515   4.693  15.534 -0.0136 -0.0758  0.1020
10890W        W28414   0.311  11.164   0.016 -0.0188 -0.2108  0.0119
10891W        W28415   8.475   2.788  13.271  0.1607 -0.1105  0.0844
10892W        W28416  10.987   2.591   2.468  0.3474  0.1087  0.1666
10893W        W28417  16.640  12.984  13.607 -0.0972  0.3731 -0.2981
10894W        W28418   5.118   4.302  14.832  0.1913 -0.0706  0.1385
10895W        W28419   8.139   7.668   2.055 -0.0168  0.0626 -0.1168
10896W        W28420  13.664   4.686   1.627  0.2191  0.0655  0.2441
10897W        W28421   5.270   7.380   2.385  0.0945  0.0517  0.2386
10898W        W28422   8.637   5.979  15.830 -0.0394 -0.1740 -0.0793
10899W        W28423  17.938  16.543   0.081  0.0110 -0.2665  0.0440
10900W        W28424   2.202   6.826  12.396 -0.1567  0.2704  0.0771
10901W        W28425  16.153  12.193  13.070 -0.2472 -0.0324  0.3311
10902W        W28426   9.812   9.942   2.519  0.3200  0.0924 -0.0708
10903W        W28427  15.466   6.707   3.937  0.0835 -0.1231 -0.0971
10904W        W28428   2.795   2.520   0.453  0.1349 -0.1645 -0.3713
10905W        W28429   6.370  14.894   0.234  0.0030  0.1920 -0.0737
10906W        W28430  13.429  10.986  15.770 -0.1868  0.0585 -0.1882
10907W        W28431   7.352   1.673   2.413  0.2021  0.1315  0.1856
10908W        W28432   9.870  11.928  14.473 -0.0996 -0.3324  0.0626
10909W        W28433   8.629  13.983  13.914  0.2547  0.0853 -0.1611
10910W        W28434  17.097   4.112   3.343 -0.1366  0.4265  0.1103
10911W        W28435  13.519  11.465  15.540  0.0248 -0.0752 -0.2304
10912W        W28436  14.960   3.327   1.743  0.1414  0.2628 -0.2185
10913W        W28437   8.735   9.004   5.936 -0.0731  0.0860  0.4039
10914W        W28438  15.417  11.350  12.844  0.2066  0.2117  0.3061
10915W        W28439   0.315   5.445  12.381  0.0518  0.0402 -0.3618
10916W        W28440  13.952   5.316   4.435 -0.1318 -0.3715  0.0466
10917W        W28441   7.424   2.677   1.195 -0.0306  0.0256 -0.0819
10918W        W28442  14.599  10.508   1.666 -0.1537 -0.0516  0.1526
10919W        W28443   6.151  10.860   4.258 -0.1622  0.1407  0.0345
10920W        W28444   9.421  12.020  11.295  0.0331  0.1737  0.2549
10921W        W28445  13.279  15.813   4.983  0.0526  0.0626 -0.0106
10922W        W28446  17.544  10.747   3.413 -0.0215 -0.1068 -0.1610
10923W        W28447   8.402  16.817   1.578  0.2849 -0.1795  0.0193
10924W        W28448  17.958   2.934  16.002 -0.0100  0.0760 -0.1093
10925W        W28449  10.152   0.129  15.318 -0.1320 -0.3873  0.0095
10926W        W28450  12.843  15.690  14.069 -0.1854 -0.2113  0.0901
10927W        W28451  17.698  11.406  14.812  0.3177 -0.1027 -0.0839
10928W        W28452   1.665   9.791  13.915 -0.2150  0.0451  0.0677
10929W        W28453  15.569  14.204  14.893  0.0727 -0.0794 -0.0524
10930W        W28454   7.883   4.151   2.871  0.2554 -0.3592  0.0273
10931W        W28455   4.170  17.516   2.019 -0.1145  0.0705 -0.0211
10932W        W28456  15.263   0.357   5.192 -0.0033 -0.0266 -0.2473
10933W        W28457   9.399   1.200   4.759  0.0822 -0.2912 -0.1525
10934W        W28458  13.820   8.182  13.205 -0.0332 -0.2334  0.0800
10935W        W28459   4.444  11.517  14.383 -0.0751  0.1579 -0.2475
10936W        W28460   1.658   2.479  14.456  0.0962 -0.0405  0.1557
10937W        W28461   8.038  10.576   1.379  0.1797 -0.0769 -0.1108
10938W        W28462  14.743  15.699  15.357  0.0910 -0.0500  0.2323
10939W        W28463   3.427  16.185  15.732  0.0766 -0.0588 -0.0226
10940W        W28464  14.371   2.749   2.808 -0.1251 -0.1380 -0.0565
10941W        W28465  10.058  16.093   1.103  0.1623  0.4293 -0.3349
10942W        W28466  17.447  10.377   3.696  0.0523  0.0420  0.3612
10943W        W28467  13.953   7.001   2.182 -0.0969  0.0627  0.4543
10944W        W28468  12.270   4.784   2.313 -0.0325  0.0334  0.3710
10945W        W28469  17.094   1.208   5.335 -0.1376 -0.0400 -0.0189
10946W        W28470   6.101  14.321   4.121  0.0997 -0.2651 -0.3489
10947W        W28471  10.113   8.513   1.595  0.0434 -0.0123 -0.2922
10948W        W28472  13.484  17.039   3.753  0.1169  0.3704 -0.2728
10949W        W28473   1.665  17.661   2.651  0.1305 -0.0054  0.2292
10950W        W28474   7.213   6.335   1.469  0.4194  0.1662  0.2047
10951W        W28475   6.690  13.795   3.695  0.0306  0.1111  0.1576
10952W        W28476  16.498   5.910   2.936  0.4468  0.0763 -0.1174
10953W        W28477  16.131  12.366  11.882 -0.2235 -0.1794 -0.1198
10954W        W28478   5.127  15.879   1.703 -0.1016  0.0846 -0.0235
10955W        W28479  12.468   7.217  13.884  0.1430 -0.0473  0.3340
10956W        W28480  15.411   5.232  13.216 -0.1027  0.0079 -0.2584
10957W        W28481   5.504   4.763  13.488 -0.0044  0.1617  0.1793
10958W        W28482  12.886  12.979   1.925 -0.0747 -0.2143 -0.0606
10959W        W28483   9.678   6.006  14.307 -0.0168  0.1017  0.0290
10960W        W28484  15.109   9.944  15.856  0.0810  0.1777  0.1031
10961W        W28485  16.760  17.128  14.618 -0.1643  0.0634 -0.0774
10962W        W28486   9.703   4.124  14.430  0.0236  0.0878 -0.1668
10963W        W28487  11.655   6.247  10.776  0.1453  0.0562  0.1803
10964W        W28488  13.087  15.780   5.513 -0.1930 -0.1573 -0.0080
10965W        W28489   9.848  11.675  13.344  0.7138  0.0362 -0.2706
10966W        W28490   2.343   4.421  12.468 -0.3058  0.1118 -0.1273
10967W        W28491   3.634  11.758  15.330  0.0566  0.1302 -0.2775
10968W        W28492   3.499   9.840   0.056  0.3028  0.3144  0.1747
10969W        W28493  16.393   2.490   0.425 -0.0622  0.0918  0.0169
10970W        W28494  11.089   4.447  13.281  0.0419  0.2739 -0.0256
10971W        W28495   4.571  10.999  14.420 -0.0539  0.1308 -0.1737
10972W        W28496  14.354   8.136  11.499  0.1583  0.0359 -0.1105
10973W        W28497  13.048  10.775   0.818  0.1401  0.1460  0.3074
10974W        W28498  11.942   9.518   2.342  0.0820  0.0459 -0.1036
10975W        W28499  13.137  11.644   3.552 -0.0071 -0.0935 -0.0350
10976W        W28500  13.582   8.430  11.634 -0.0283  0.1616 -0.0865
10977W        W28501  12.549  13.238  15.665  0.4517  0.1389  0.3140
10978W        W28502   0.129  16.465  13.110 -0.0928 -0.4443  0.0380
10979W        W28503   7.928  11.749   3.316 -0.3844 -0.2083 -0.0413
10980W        W28504   4.657   4.150  16.016 -0.2647  0.2660  0.3087
10981W        W28505   8.028   3.111  15.778  0.0403 -0.0913 -0.0534
10982W        W28506   9.346   0.644  14.603 -0.3228  0.3384  0.0667
10983W        W28507  14.840   5.097   2.744 -0.1430  0.0743  0.2987
10984W        W28508   6.011   8.457   4.172 -0.0537 -0.1298 -0.0280
10985W        W28509  10.758  12.266   4.886 -0.0623  0.0747  0.3099
10986W        W28510  13.213  13.018   3.295  0.0004 -0.5227  0.1315
10987W        W28511   3.200   8.978   2.240  0.0734  0.1407 -0.1296
10988W        W28512   7.297   5.578   3.787  0.0496  0.0125  0.2474
10989W        W28513   4.166  12.874  12.300 -0.0512  0.0598  0.3161
10990W        W28514  14.986   3.027   4.570  0.1189 -0.4082 -0.0745
10991W        W28515  11.043   8.735   5.235 -0.4286 -0.0233  0.1350
10992W        W28516  16.681   5.984  12.219  0.0853 -0.0351  0.2864
10993W        W28517   4.064   5.289  15.347  0.1453  0.1233 -0.3162
10994W        W28518   6.586   3.058   1.234  0.0740  0.0373  0.2007
10995W        W28519  17.361  13.984   3.798  0.2223  0.2112 -0.4021
10996W        W28520   8.980   8.079   3.187 -0.1263 -0.0210 -0.0572
10997W        W28521   9.249  11.319  13.165  0.2301  0.0467  0.2561
10998W        W28522   3.531  13.305  12.742 -0.0555 -0.1595  0.0584
10999W        W28523  16.103   0.329  14.428 -0.0664 -0.0617 -0.0337
11000W        W28524  11.138  17.028  15.390  0.2992  0.0741  0.0187
11001W        W28525   5.980  17.337   2.520  0.2502  0.0063  0.2364
11002W        W28526  11.831  16.242   0.321 -0.0206  0.2169  0.3134
11003W        W28527   6.519  12.733  15.563  0.0081 -0.1899  0.0076
11004W        W28528  14.091   6.372   1.006  0.0791  0.1941  0.1023
11005W        W28529  17.966   8.342  15.867  0.2660  0.0965  0.3403
11006W        W28530  11.818  12.088   0.777 -0.0470  0.0078 -0.4347
11007W        W28531   1.397  12.030  16.371  0.1508  0.1233 -0.0364
11008W        W28532   4.440   5.542  14.473  0.0474 -0.0397  0.0817
11009W        W28533  17.337  10.924  10.064 -0.1693  0.0803 -0.2516
11010W        W28534  15.343  15.124   0.430  0.3243 -0.1233 -0.1185
11011W        W28535   5.719  14.264  14.505  0.3629 -0.0152  0.1185
11012W        W28536   6.548   4.582  12.083 -0.0196  0.2951 -0.4391
11013W        W28537  10.662   1.926   1.342 -0.1119 -0.0187  0.3090
11014W        W28538   3.602   8.219   3.926 -0.5173 -0.0948 -0.0147
11015W        W28539   9.844  16.453   4.816  0.2049  0.1630  0.1260
11016W        W28540  16.215  11.900   2.148 -0.1899 -0.3041  0.0262
11017W        W28541   6.721   6.896  14.485  0.4550 -0.0544  0.0806
11018W        W28542   7.394  15.205   5.349 -0.0080 -0.0069 -0.2322
11019W        W28543  12.455   1.277  15.075  0.2760  0.1151 -0.0037
11020W        W28544  14.912   2.096   1.575  0.2295 -0.3753 -0.1022
11021W        W28545   8.821   3.538   0.402  0.5415 -0.1195  0.2131
11022W        W28546   5.225  14.897   0.571 -0.0756  0.2161  0.0458
11023W        W28547   3.128  15.042   3.038 -0.0036  0.0637  0.0497
11024W        W28548  13.962  13.429   4.764 -0.3626  0.4234 -0.2661
11025W        W28549   1.264   2.512  13.653 -0.0902 -0.3266 -0.0587
11026W        W28550   3.371  11.736   1.805  0.0039  0.1700 -0.0312
11027W        W28551  17.586   3.578   1.031 -0.2237  0.0555 -0.3269
11028W        W28552  13.243  10.703  11.187  0.1165 -0.3973 -0.0433
11029W        W28553   9.015  15.570  14.077 -0.1498 -0.0846 -0.0477
11030W        W28554  11.779   5.323   3.966 -0.1649 -0.0826  0.3820
11031W        W28555   2.395  16.003   4.289 -0.0143  0.0586 -0.1137
11032W        W28556  16.866   9.251  15.157 -0.0231 -0.0239  0.1111
11033W        W28557   3.160   9.408   1.974 -0.2093  0.0180  0.0548
11034W        W28558   8.843   4.782  11.760  0.1057 -0.1014  0.0953
11035W        W28559   8.029  16.744   2.314 -0.1906 -0.0891 -0.1832
11036W        W28560   0.843   4.425   3.092  0.0202 -0.3020 -0.0968
11037W        W28561   6.876   2.993   6.124  0.0020 -0.1457 -0.0628
11038W        W28562  15.401  12.406   1.958  0.0634  0.1749 -0.2562
11039W        W28563  14.511   9.416   0.044 -0.2480  0.2068 -0.0346
11040W        W28564  13.461  17.168  15.257 -0.3473  0.0986  0.4271
11041W        W28565   4.775  17.449   3.683 -0.2883 -0.4220  0.1134
11042W        W28566   8.346   7.845  14.023  0.1862  0.1918 -0.1475
11043W        W28567  11.395  17.392   0.509 -0.0232 -0.0468 -0.0607
11044W        W28568  14.235   5.740   0.218  0.0854 -0.4380  0.0436
11045W        W28569   3.247  15.633   5.109 -0.2907  0.0815 -0.0903
11046W        W28570   5.331   4.576  14.453 -0.0869  0.1615  0.3696
11047W        W28571   1.206  12.703  12.551  0.1205  0.1671  0.3467
11048W        W28572   9.922  12.806  11.721  0.2658  0.2240  0.0369
11049W        W28573   4.031   4.056  11.632  0.2273 -0.3516 -0.1799
11050W        W28574  15.285   7.757   1.335  0.1983 -0.1139  0.1728
11051W        W28575   6.890   6.889  15.413 -0.1528  0.2716  0.0642
11052W        W28576   1.468  13.661  14.991  0.0104  0.0079  0.0886
11053W        W28577   2.574   4.429   4.480 -0.5896  0.0252 -0.1950
11054W        W28578   1.081  15.019   2.384 -0.0406 -0.0177  0.1585
11055W        W28579   2.509  13.020   4.642 -0.0806 -0.1067  0.1983
11056W        W28580  10.747   8.733  14.457 -0.0235  0.3699  0.1556
11057W        W28581  14.849  16.311  11.891  0.1916  0.0696  0.1269
11058W        W28582   4.959   1.366  14.569 -0.1229 -0.1364 -0.3546
11059W        W28583   1.494  10.779  12.213  0.4943  0.0501  0.2609
11060W        W28584   0.036   8.416  14.447 -0.1452 -0.2146 -0.1891
11061W        W28585   3.529  16.239  14.818  0.0531  0.0542 -0.3106
11062W        W28586   9.180   0.675  12.762 -0.2124  0.0273  0.0241
11063W        W28587   4.255   8.057  12.193  0.0162  0.1603  0.2814
11064W        W28588   7.978  17.953   0.690 -0.1000  0.2345  0.0206
11065W        W28589  16.974   9.927   4.209  0.0017  0.1039  0.2929
11066W        W28590   7.561   3.585  12.577  0.1888 -0.2292 -0.3255
11067W        W28591   3.196  12.656  15.323  0.2734 -0.3808  0.1350
11068W        W28592   4.827   8.656  10.518  0.1211  0.0539 -0.1143
11069W        W28593   4.778   8.918  14.694 -0.1344 -0.3557 -0.3744
11070W        W28594   4.168   8.828   1.879  0.2722 -0.0898  0.1498
11071W        W28595  14.697  12.833   1.534 -0.1460  0.2912  0.0490
11072W        W28596   4.863   0.492  11.169  0.2560  0.3857  0.0513
11073W        W28597   3.428   7.766   4.756  0.0473  0.0029 -0.0632
11074W        W28598   1.836   5.077  10.175 -0.1359 -0.1320  0.0126
11075W        W28599   5.578  13.761  13.855  0.0347  0.1802  0.1698
11076W        W28600   5.964  15.115   0.015  0.1723 -0.1419 -0.0217
11077W        W28601   3.639  11.720   5.278 -0.2426 -0.0173  0.0091
11078W        W28602   3.694   7.321  16.094 -0.0984 -0.1136 -0.3284
11079W        W28603   0.464  14.726  14.496 -0.3252 -0.3085 -0.0980
11080W        W28604   4.056   8.930   2.393  0.0479 -0.0138  0.3066
11081W        W28605  16.367   1.317  16.298 -0.0655 -0.1372  0.1245
11082W        W28606   4.283   2.888   2.977  0.3340  0.1198 -0.1189
11083W        W28607  14.280   4.842   2.833 -0.2497  0.0862 -0.1619
11084W        W28608   0.259   7.652   4.241 -0.1670 -0.0679  0.2397
11085W        W28609  11.251   0.481   3.994  0.1714 -0.1318  0.1784
11086W        W28610   3.539  15.830  12.308 -0.0515  0.0956  0.0687
11087W        W28611  11.468   8.997  13.314  0.2663 -0.1674  0.1712
11088W        W28612  10.127   9.140   1.365  0.1724  0.1509  0.1986
11089W        W28613  11.464  14.858   0.398 -0.1801 -0.1146 -0.0791
11090W        W28614   6.057   3.937  11.463  0.3154 -0.0977 -0.1782
11091W        W28615  17.102  13.143  15.087 -0.0808  0.0216 -0.7723
11092W        W28616  15.807  17.057  15.977  0.0069 -0.1033 -0.0973
11093W        W28617  13.297   0.443   4.434 -0.0629 -0.0971 -0.1111
11094W        W28618   7.857  13.132  10.372  0.0063 -0.1673 -0.1346
11095W        W28619  17.277   7.480  14.228 -0.2251 -0.2582 -0.1658
11096W        W28620  14.801   0.111   5.699 -0.0592 -0.1995 -0.1065
11097W        W28621  10.803   8.437  13.923 -0.1728 -0.3010  0.0812
11098W        W28622  14.945   9.981  13.982 -0.1118 -0.3015 -0.0014
11099W        W28623  14.188  13.303   2.587  0.1004  0.1507  0.0300
11100W        W28624   8.113   6.705  14.685  0.3011  0.0676 -0.0944
11101W        W28625  12.505  17.298  12.052 -0.3044 -0.0557 -0.0226
11102W        W28626   3.307  13.893   0.364 -0.0896 -0.2089 -0.1185
11103W        W28627   0.773  17.736  11.830 -0.1310 -0.1242 -0.4857
11104W        W28628  10.320   1.062   3.232 -0.1555  0.0981 -0.3071
11105W        W28629  10.328   8.045  13.509 -0.0435 -0.2246  0.1008
11106W        W28630  15.372   9.068  13.070 -0.2356 -0.0355  0.2901
11107W        W28631   3.907   6.245   3.206 -0.1900 -0.1674 -0.0610
11108W        W28632   7.571  12.733  12.075 -0.1602 -0.0175  0.2033
11109W        W28633  17.396   9.697  14.431 -0.1763 -0.4023 -0.1405
11110W        W28634  13.333  14.649  16.316  0.1538 -0.1575  0.0347
11111W        W28635  15.197   0.431   2.493  0.0346 -0.1526 -0.0569
11112W        W28636  15.325  14.961   4.814  0.0862  0.0255  0.1263
11113W        W28637   2.867   6.823  15.851  0.1843 -0.1374  0.0479
11114W        W28638   6.624  14.886   1.313  0.2764 -0.0201 -0.0817
11115W        W28639   3.751   9.075  11.962 -0.0694 -0.0363  0.1399
11116W        W28640   8.535   5.333  13.160  0.0959  0.2666 -0.2253
11117W        W28641   6.403  15.118   4.284 -0.1141 -0.2600 -0.0158
11118W        W28642   9.515  10.478  15.292  0.0213 -0.0306 -0.0881
11119W        W28643   5.706  16.637  11.923 -0.0529 -0.0131 -0.0147
11120W        W28644   8.816  12.883   3.664  0.0073  0.3769  0.4265
11121W        W28645   0.927  10.416  14.026 -0.1621  0.1720  0.0552
11122W        W28646  16.551   0.406   4.285  0.1171  0.2584 -0.0060
11123W        W28647  17.735  17.861  16.089 -0.2242 -0.1396 -0.2808
11124W        W28648  13.265  16.028  14.278 -0.1093 -0.0272 -0.3390
11125W        W28649   3.522  14.490  15.930  0.2257 -0.1296 -0.0920
11126W        W28650   2.346  16.865  13.981  0.1610 -0.2792  0.0792
11127W        W28651   2.921  14.163   4.006 -0.0529  0.0503 -0.1008
11128W        W28652   7.995  17.941   4.221 -0.1146  0.1112 -0.3334
11129W        W28653   7.202  15.838   2.772 -0.0886 -0.0896 -0.1961
11130W        W28654  16.558   0.265   5.227  0.2838  0.0557 -0.0450
11131W        W28655   6.013   5.732   2.201 -0.0309 -0.2500  0.2871
11132W        W28656  10.524   8.803  10.509  0.1495  0.1548 -0.1124
11133W        W28657   3.260  15.575  16.395 -0.1208  0.1273 -0.2015
11134W        W28658   8.653   1.000   5.029 -0.1625  0.0895 -0.1651
11135W        W28659  13.965   9.122   4.623  0.1761  0.0368  0.5403
11136W        W28660   7.737   8.564  14.541 -0.0457 -0.1711  0.2480
11137W        W28661  14.058  17.966   3.939 -0.2543  0.1493  0.1216
11138W        W28662  10.275   4.601   1.047 -0.3373  0.0482  0.0813
11139W        W28663  11.843   4.259  11.653  0.1390 -0.0711 -0.0863
11140W        W28664  10.957  13.916  15.467 -0.0353 -0.2452  0.0517
11141W        W28665  14.757   8.738   3.231 -0.3152 -0.0264 -0.2845
11142W        W28666   3.418   4.242  13.910  0.1212  0.1037  0.1816
11143W        W28667   5.328   0.647  11.398  0.1158 -0.0892  0.0493
11144W        W28668  14.850   3.818  15.298 -0.0182  0.3594 -0.0632
11145W        W28669   7.335   6.723   2.337  0.2652  0.0815 -0.0588
11146W        W28670   4.681   7.592  11.376 -0.1077 -0.1158  0.0956
11147W        W28671  12.094   5.503   0.927  0.2915  0.0111 -0.0064
11148W        W28672  15.315   5.926   1.580 -0.1668  0.1251  0.2883
11149W        W28673  13.782   8.907   4.202 -0.0822  0.1361 -0.1837
11150W        W28674  13.561   3.996  13.642  0.1074  0.1965 -0.0494
11151W        W28675   2.423   0.434   4.634  0.0955 -0.0527  0.4457
11152W        W28676   6.843  16.206  12.533 -0.2621 -0.2400 -0.1616
11153W        W28677  17.760   8.670   0.183  0.0697  0.0477  0.1456
11154W        W28678   3.973   4.365  12.062 -0.1079 -0.1161 -0.1306
11155W        W28679   3.358  10.577  12.951  0.2005  0.0271 -0.0616
11156W        W28680   7.895  15.488   2.407 -0.0200 -0.0214 -0.0450
11157W        W28681  14.993   5.548  15.859 -0.1527  0.1910  0.1123
11158W        W28682  16.678   8.853  15.840  0.2676 -0.0741 -0.0604
11159W        W28683   5.834   6.318   3.911 -0.3049  0.1344 -0.1663
11160W        W28684   4.260   2.578   4.474  0.0204 -0.1326 -0.3228
11161W        W28685   6.042   4.869   5.061 -0.0620  0.1178  0.1304
11162W        W28686  16.258   9.316  11.873 -0.0985  0.2030  0.0038
11163W        W28687   0.902  10.632   2.469  0.0663 -0.1861 -0.2370
11164W        W28688  12.025  16.007   4.051 -0.1928  0.1312  0.1073
11165W        W28689  16.684  15.544   2.983 -0.4368 -0.2124 -0.0321
11166W        W28690   9.205  11.134  11.977 -0.1617 -0.0770 -0.0494
11167W        W28691   1.094   7.166  11.298  0.0785  0.1979  0.4644
11168W        W28692   6.515  11.308  12.613  0.1272  0.1408  0.5171
11169W        W28693  13.773  13.576   2.190 -0.0668  0.2797 -0.0119
11170W        W28694   9.212   4.422  11.692 -0.1507  0.2335  0.2275
11171W        W28695  16.796  16.565   5.290  0.0558 -0.1415  0.2192
11172W        W28696   4.777   9.925  14.722 -0.4021  0.1776  0.2534
11173W        W28697   2.918  16.460  16.417  0.1697  0.0956 -0.1657
11174W        W28698  17.292   3.555  14.323  0.1109  0.1413  0.2939
11175W        W28699   4.100  13.285   1.359  0.2036  0.2540  0.0855
11176W        W28700   8.462  15.326  12.512  0.1744 -0.0396  0.0346
11177W        W28701  10.481  16.892   4.604  0.2451 -0.0929  0.1823
11178W        W28702   8.056  12.530  14.802  0.0630 -0.0444  0.2029
11179W        W28703   6.550  12.661   4.418  0.1406 -0.1586 -0.0053
11180W        W28704  10.584  10.147   2.071 -0.2083 -0.2498 -0.0869
11181W        W28705  16.066   0.072  13.946 -0.1696 -0.0562  0.1760
11182W        W28706   1.893   3.226   4.292  0.0533 -0.2662  0.1431
11183W        W28707   0.819   8.227   4.823 -0.0976  0.3307 -0.0910
11184W        W28708   2.850   7.157  12.383  0.0448  0.3728  0.1865
11185W        W28709   9.738  11.116   2.723 -0.0258 -0.0515 -0.1077
11186W        W28710   6.423  11.600   1.375 -0.0507  0.1601 -0.0654
11187W        W28711  14.928  12.913  13.348 -0.0774 -0.0522 -0.0174
11188W        W28712  10.258   1.600  14.312 -0.2844  0.1329  0.2300
11189W        W28713   8.725  11.099   3.944 -0.2256  0.0143  0.0722
11190W        W28714  17.594   0.391  12.026 -0.1844 -0.0753 -0.1686
11191W        W28715   8.294  16.416  15.758 -0.0970 -0.0254 -0.1785
11192W        W28716   7.876  15.053   4.138  0.1410  0.3129 -0.1307
11193W        W28717   4.266   2.484  10.775 -0.2959  0.0357  0.1208
11194W        W28718  13.293  17.761   2.484  0.1129 -0.2368 -0.1172
11195W        W28719  14.220  16.098   2.518  0.1122  0.2326  0.2363
11196W        W28720   3.259  13.059   1.815  0.0862 -0.0118  0.0113
11197W        W28721   1.253  17.646  14.649  0.0419 -0.3886 -0.0722
11198W        W28722  11.527  13.856   3.039 -0.0385  0.1788 -0.2602
11199W        W28723   3.437   0.020  12.047  0.2187  0.0537  0.0639
11200W        W28724   0.482   6.735   3.254  0.0011 -0.0940 -0.0448
11201W        W28725   8.484  11.026   3.451 -0.0541 -0.2625 -0.1113
11202W        W28726   4.328   7.917   0.488 -0.2336  0.0362 -0.1346
11203W        W28727  11.251  11.960  13.972 -0.1319  0.0294  0.0384
11204W        W28728   4.406   4.772   4.707  0.0800 -0.3277  0.0025
11205W        W28729  11.625  12.784   1.877  0.1382  0.2800  0.0213
11206W        W28730   5.873   0.665   2.517  0.2259  0.2874  0.0015
11207W        W28731   3.249  14.590  14.212  0.4812  0.0300 -0.1411
11208W        W28732   2.999   9.528  11.104  0.1097 -0.0067 -0.1374
11209W        W28733   8.963   4.530  12.936 -0.0946  0.0405  0.1570
11210W        W28734   5.745   8.355  13.826 -0.1840 -0.0427  0.3305
11211W        W28735   7.098   9.825   2.276 -0.1301  0.0151 -0.0524
11212W        W28736  10.496   1.685   5.463  0.1907 -0.1752  0.0184
11213W        W28737   8.613   3.705  14.696  0.0511 -0.2870  0.1528
11214W        W28738   4.603   7.336  12.696 -0.0314  0.0737  0.1044
11215W        W28739   9.283   3.792  14.694 -0.1451  0.1065  0.0363
11216W        W28740  17.869   3.919   1.384 -0.1646  0.2853 -0.1111
11217W        W28741   1.681   2.262   2.091  0.1595 -0.1641 -0.2575
11218W        W28742  16.331   9.107   1.639 -0.1346 -0.0636  0.1163
11219W        W28743  10.210  17.228  15.107 -0.0124  0.1572  0.0036
11220W        W28744   4.118   1.728  14.496  0.1177 -0.1401 -0.1794
11221W        W28745   1.466   8.477  12.727 -0.0899 -0.0393  0.1805
11222W        W28746  17.251  16.978   2.266  0.2658  0.0655  0.1889
11223W        W28747   1.328   4.026  14.919  0.1345  0.1719 -0.2359
11224W        W28748   4.343   8.377  13.050  0.1000  0.3231 -0.0734
11225W        W28749   7.153   9.594  11.432  0.0880 -0.0454  0.1823
11226W        W28750   4.630  15.153  15.912  0.0796 -0.1731 -0.0478
11227W        W28751   2.543  13.595  12.113  0.0809 -0.1292 -0.3203
11228W        W28752   1.141   5.613  11.558 -0.4129  0.1056  0.1997
11229W        W28753  13.067  11.188   2.349 -0.1325  0.1313 -0.2450
11230W        W28754   6.982   3.211   5.183 -0.1101 -0.2216 -0.2242
11231W        W28755   1.308  12.577  15.557 -0.1168  0.0216 -0.0342
11232W        W28756   1.574   5.858  13.022  0.2331  0.1116  0.1368
11233W        W28757  15.073   5.784   1.159 -0.1816  0.0439 -0.0290
11234W        W28758  17.088   0.101   2.426 -0.0701 -0.2148  0.1782
11235W        W28759   7.055   0.668   4.850  0.0064  0.0641  0.0653
11236W        W28760   2.241  16.345  14.179 -0.2220  0.1304 -0.0052
11237W        W28761  13.796  10.561  14.038  0.3251 -0.0824 -0.2103
11238W        W28762   1.978  15.708   4.494  0.0425 -0.3142 -0.0896
11239W        W28763   8.505  14.683   0.824 -0.1696 -0.0326  0.1763
11240W        W28764   5.838   8.001   4.962  0.0880  0.3675  0.2459
11241W        W28765   2.070  11.978   1.297  0.0249 -0.0635  0.1870
11242W        W28766  11.524   8.879  12.623 -0.1481 -0.1092  0.0448
11243W        W28767   2.268  13.494   3.436  0.0937 -0.1558  0.0443
11244W        W28768  14.047   9.230   5.195  0.2183 -0.2841  0.0145
11245W        W28769  16.176  13.606   0.984 -0.0078 -0.0925  0.1476
11246W        W28770   9.552  13.225   3.892  0.2981  0.2746 -0.4039
11247W        W28771   5.188  11.437   5.395  0.1193  0.0113  0.2365
11248W        W28772   4.011  16.222   2.306  0.1951  0.2578  0.3179
11249W        W28773  12.665  11.333   4.513 -0.0767 -0.0935  0.0261
11250W        W28774  16.330   4.478  15.313  0.0198  0.2562 -0.1041
11251W        W28775  13.018  13.799   0.943  0.0242 -0.2176 -0.0601
11252W        W28776  15.927  15.760   0.679 -0.0615 -0.2594 -0.0454
11253W        W28777   4.193  15.483   1.960 -0.3593  0.1073 -0.0585
11254W        W28778  15.526   7.351   1.078 -0.2046 -0.2211 -0.2460
11255W        W28779   9.648  14.378   3.909 -0.0077  0.0984  0.0242
11256W        W28780   9.879  13.389   1.732 -0.1328  0.2992 -0.0382
11257W        W28781   6.371  12.392   2.126 -0.3018 -0.1599  0.0952
11258W        W28782   9.619  16.799  14.066  0.3527 -0.1236 -0.0240
11259W        W28783   4.849   5.594  13.711 -0.3751  0.1574  0.2685
11260W        W28784  16.922   8.615  13.075 -0.1356 -0.0696 -0.0245
11261W        W28785  17.172  13.581   3.605  0.1261 -0.0785  0.3423
11262W        W28786  13.198  17.089  13.622  0.4388  0.0045  0.1136
11263W        W28787   6.806   0.180  13.506  0.1187 -0.1357  0.1585
11264W        W28788   6.361  16.108  11.764  0.0854  0.0817  0.2468
11265W        W28789  15.282  13.399   5.083  0.4500  0.3010  0.1060
11266W        W28790   0.237  16.410  15.979 -0.0493 -0.0475  0.0250
11267W        W28791  15.837   0.183  15.764 -0.0373  0.2222 -0.0165
11268W        W28792   5.039   6.241  15.603 -0.2179 -0.1862 -0.0557
11269W        W28793   3.213  10.729   4.234  0.0945 -0.1461 -0.2503
11270W        W28794   6.704  10.584  15.059  0.3583 -0.0959  0.4079
11271W        W28795  10.566  10.584  15.395  0.2458 -0.0738 -0.0829
11272W        W28796   1.894   7.556  13.646  0.2874 -0.1221 -0.2564
11273W        W28797   4.932   8.329  11.695 -0.0036 -0.2025 -0.2009
11274W        W28798   7.585   6.990  11.643 -0.2537  0.3856  0.2161
11275W        W28799  11.737   1.941   4.060 -0.1646 -0.0037 -0.2258
11276W        W28800  10.329   5.282  14.089  0.1741  0.3088 -0.1027
11277W        W28801  15.882   2.196   2.107 -0.3213 -0.3593 -0.1061
11278W        W28802   1.823  10.139  16.036  0.1937  0.1032  0.0979
11279W        W28803  16.224  13.899   0.569  0.1070  0.1239 -0.1144
11280W        W28804  10.362   9.987   2.550  0.0103 -0.4619  0.1476
11281W        W28805  10.774  14.159  16.351 -0.2720 -0.1040  0.1355
11282W        W28806  14.952   2.122   3.196 -0.1274 -0.0142  0.0298
11283W        W28807   7.747  12.849  14.250  0.2002 -0.0211 -0.0505
11284W        W28808   1.295   6.499   2.684  0.1403  0.2071  0.0544
11285W        W28809  11.859  14.961   1.152 -0.1450  0.0396  0.2009
11286W        W28810  17.123  16.100   0.615  0.0441 -0.0304  0.0070
11287W        W28811   5.445   1.896  15.064 -0.0838  0.1093  0.2129
11288W        W28812  11.366  13.275   0.372  0.0745  0.1483  0.1484
11289W        W28813  11.638   1.162  14.466 -0.0434 -0.1517  0.3266
11290W        W28814  11.687  10.224  16.144 -0.1307 -0.1542 -0.0216
11291W        W28815   8.693   9.003  13.865  0.1891  0.2761 -0.1798
11292W        W28816  12.056   6.277   4.263  0.0742  0.1089 -0.0658
11293W        W28817  11.886   4.944  14.197 -0.2341  0.1328  0.2275
11294W        W28818  15.355  11.998  15.490  0.0432 -0.1834  0.1731
11295W        W28819  10.020   0.968  13.574  0.0858 -0.0581 -0.1775
11296W        W28820   7.836   8.560  12.815 -0.0031  0.2543 -0.2522
11297W        W28821  16.129   7.429   4.009  0.1282 -0.0662 -0.0031
11298W        W28822  16.615   0.522   3.753  0.2007 -0.0878 -0.0807
11299W        W28823   5.074   7.368   5.043  0.1839 -0.1063 -0.0010
11300W        W28824  16.555   2.897   3.654  0.0436 -0.0182 -0.0205
11301W        W28825   7.548   1.424  13.706  0.0184  0.0909 -0.2192
11302W        W28826  14.446   6.349  11.693  0.0797  0.0713  0.1187
11303W        W28827   3.830   7.755   3.760  0.0223  0.2252 -0.1446
11304W        W28828  16.216  14.173  15.640 -0.1466 -0.0503 -0.1805
11305W        W28829   3.707   1.237  16.189 -0.1415  0.1692 -0.0438
11306W        W28830  10.206   1.156  14.595 -0.0692  0.1246  0.2119
11307W        W28831  12.886   7.966   0.124 -0.1891 -0.0047 -0.1211
11308W        W28832  13.368   0.129  12.707 -0.0136 -0.0435 -0.1243
11309W        W28833  16.813   3.996   2.786 -0.0896  0.4743  0.0237
11310W        W28834  15.353   2.930   3.028 -0.0907 -0.1530 -0.0173
11311W        W28835   9.212   4.029   2.174  0.1232 -0.3688  0.1205
11312W        W28836  14.264   6.703  13.077 -0.2708 -0.0485 -0.1281
11313W        W28837  14.847  10.938   1.548 -0.0005 -0.2034  0.1002
11314W        W28838   1.431  12.776   4.507 -0.0219  0.2254  0.1012
11315W        W28839   4.653  14.531   3.221 -0.4060 -0.2065 -0.1804
11316W        W28840   7.599  11.068  12.998  0.1282 -0.2510 -0.1132
11317W        W28841  11.629  14.577   1.447 -0.0105  0.0793 -0.0650
11318W        W28842   5.120  11.909   3.119 -0.0026 -0.1327  0.0996
11319W        W28843  14.806   6.801  14.290  0.0414  0.3222 -0.0098
11320W        W28844   4.150   0.880   2.065 -0.0901  0.0110 -0.1425
11321W        W28845   8.042  13.776   1.179  0.1388  0.5016  0.0100
11322W        W28846  10.213  17.883  11.594  0.2746 -0.0637  0.1378
11323W        W28847   8.596   4.800  15.535 -0.0013  0.0223  0.1675
11324W        W28848   0.486   9.371   1.373  0.0794 -0.0879  0.2890
11325W        W28849  13.061   6.493  14.351 -0.2258 -0.4453  0.0305
11326W        W28850   2.087   1.350  15.261  0.0390  0.0935 -0.0842
11327W        W28851   2.970   3.103  11.874  0.0184 -0.0060 -0.3698
11328W        W28852   7.890  11.173  15.311  0.0614 -0.0986  0.0541
11329W        W28853  15.112  17.511  16.023 -0.0108 -0.0866  0.0167
11330W        W28854  10.650  16.640  11.468  0.4697 -0.1308  0.2125
11331W        W28855   0.194  10.991   3.295 -0.2865  0.1695 -0.0089
11332W        W28856  13.559  13.263  10.911 -0.1897  0.0723  0.0874
11333W        W28857   8.169   2.247  14.819  0.2362  0.1779  0.0867
11334W        W28858  12.651   5.600  16.201  0.0536  0.2450 -0.0540
11335W        W28859   1.444  13.670   4.379  0.1273  0.2881 -0.1329
11336W        W28860   1.498  10.308  10.465  0.0510  0.0709 -0.2381
11337W        W28861  10.994  15.273  13.522  0.0614  0.1003  0.0906
11338W        W28862  10.652   3.317  16.326  0.2770  0.2916 -0.2291
11339W        W28863   6.034   9.242  10.749 -0.0697  0.1611  0.2750
11340W        W28864  12.336   8.409  12.981 -0.1295  0.0607  0.0301
11341W        W28865   3.010   2.298  15.258 -0.2325  0.1931 -0.1933
11342W        W28866  16.569   5.188  14.140  0.0477 -0.0122  0.1186
11343W        W28867   5.783   9.345   2.217  0.3568 -0.3489  0.1487
11344W        W28868   7.998   8.835   3.505 -0.0711 -0.3227  0.3374
11345W        W28869   3.287   7.742   1.813 -0.1335  0.0548  0.0206
11346W        W28870  16.008  11.224  15.456 -0.3762 -0.2520 -0.0006
11347W        W28871  12.210   4.145   0.349  0.2775  0.1314 -0.1102
11348W        W28872  10.863  11.249   1.369 -0.0881  0.2119  0.2271
11349W        W28873   5.877  17.075   4.008  0.1028 -0.1042  0.1334
11350W        W28874   4.808   4.098   0.037  0.0017  0.1995  0.1569
11351W        W28875   0.126   6.536   3.609  0.1325  0.0069 -0.0556
11352W        W28876  12.239  16.906  14.620 -0.3360 -0.2471  0.0850
11353W        W28877   5.963  17.347  14.975  0.2768 -0.0074 -0.1719
11354W        W28878   4.756   1.508  13.801  0.0313  0.1982  0.0453
11355W        W28879   1.807   2.338   3.883 -0.2061 -0.0668 -0.4480
11356W        W28880   2.580  10.344   1.964 -0.0660  0.2062  0.1563
11357W        W28881  16.593   6.325  15.007  0.1964  0.0782 -0.1345
11358W        W28882   5.943  15.842   3.261 -0.2070  0.1652  0.3595
11359W        W28883   9.156  13.413  11.999  0.2671 -0.1543  0.0903
11360W        W28884  15.736  11.899   1.987 -0.0931  0.0670  0.1555
11361W        W28885   9.915   3.090  12.842  0.0295  0.0186 -0.3824
11362W        W28886  17.361   1.852   2.705 -0.0579 -0.1182  0.2658
11363W        W28887  12.273   9.956   2.916  0.0820 -0.3037  0.0205
11364W        W28888   9.974   2.865   0.244  0.1005  0.1379  0.1801
11365W        W28889   9.204   3.258   2.857  0.0782 -0.4378  0.1786
11366W        W28890  12.548   5.105  16.138 -0.1529 -0.2912  0.2970
11367W        W28891   7.985   6.607  15.926 -0.0996  0.2366 -0.4861
11368W        W28892   8.438   4.328   4.247 -0.3151 -0.3063 -0.0949
11369W        W28893  16.068  11.628  14.070 -0.0820 -0.2003  0.1815
11370W        W28894   4.895  17.677  12.845  0.1987 -0.3187  0.1103
11371W        W28895  11.182   8.467   3.566 -0.0177 -0.1663  0.0454
11372W        W28896   5.781   4.141  16.058  0.2333  0.5345 -0.3450
11373W        W28897   1.972   7.412   0.607 -0.2236  0.1173 -0.3261
11374W        W28898  14.441  11.613  11.721 -0.1372  0.3426 -0.2241
11375W        W28899  10.066  14.740   3.188 -0.1778  0.1654  0.3244
11376W        W28900  15.036   9.349   1.606  0.1253  0.3137  0.1360
11377W        W28901  17.189   8.007  14.993  0.0471 -0.0703 -0.1093
11378W        W28902   2.823  16.687   1.862 -0.1343  0.0095  0.1173
11379W        W28903  16.822   3.365  14.803  0.0333  0.1643 -0.5128
11380W        W28904  12.926   9.615   4.525 -0.3925  0.3343 -0.0324
11381W        W28905  11.133  10.427  15.388  0.1314 -0.2504  0.2215
11382W        W28906   8.844   4.078  14.373 -0.1440 -0.1307  0.0314
11383W        W28907  13.635  16.653  15.183 -0.0133 -0.5071 -0.2639
11384W        W28908  16.662  10.530  11.552 -0.4362 -0.3643  0.1244
11385W        W28909   5.981  10.221  15.766  0.1445  0.0385  0.1847
11386W        W28910   6.046  12.450  16.422  0.1271 -0.1896 -0.0914
11387W        W28911  12.568   1.167   4.916 -0.4623 -0.1225 -0.0535
11388W        W28912  12.198   6.853  14.217  0.5013  0.0659  0.0774
11389W        W28913  12.636   9.394  13.203 -0.3855 -0.0916 -0.2163
11390W        W28914   7.848   7.579   5.085 -0.0158  0.0280 -0.0587
11391W        W28915   8.076  13.109  13.888 -0.3253  0.1430  0.1755
11392W        W28916   8.016  14.259   5.248  0.0147 -0.1866  0.0554
11393W        W28917   0.605  11.845   0.253  0.0393  0.1841 -0.0856
11394W        W28918   5.239   6.728  14.401 -0.2417 -0.1096  0.1168
11395W        W28919  14.338  12.275  12.652 -0.1114  0.1442  0.0524
11396W        W28920  10.414   1.579   3.437 -0.1607 -0.0036  0.1461
11397W        W28921   0.230   4.150   2.595  0.1223  0.0787  0.1368
11398W        W28922   1.738   3.932   2.877 -0.1592 -0.0135  0.2595
11399W        W28923  13.431   3.886   1.258  0.0952 -0.0956  0.4032
11400W        W28924   3.342   7.495   3.495  0.1881 -0.3622  0.1112
11401W        W28925   9.806   6.848   2.850 -0.0966  0.0015 -0.0038
11402W        W28926   8.977   7.047   5.055 -0.2132  0.0986  0.3379
11403W        W28927   2.371  15.634   4.775  0.0028  0.3329  0.1031
11404W        W28928  10.426  16.235  15.339  0.2711  0.1624  0.2862
11405W        W28929  10.374   1.731  11.995 -0.0708 -0.2454  0.0235
11406W        W28930  11.544   1.703   2.372  0.0807  0.1399 -0.0721
11407W        W28931   2.930  13.795   2.186 -0.2714 -0.0727  0.0452
11408W        W28932   3.066   0.922   3.966 -0.2144 -0.1125  0.1914
11409W        W28933  17.545  11.536   1.818  0.1710 -0.3089  0.0272
11410W        W28934  12.819  15.077   4.330 -0.1072  0.2548 -0.0246
11411W        W28935   8.818   5.633  11.976 -0.3063 -0.4206 -0.1092
11412W        W28936   2.667   9.724  14.139 -0.1500  0.0464 -0.2697
11413W        W28937   4.775   9.378   4.694 -0.1789  0.1481  0.1857
11414W        W28938   7.659  10.753   4.800  0.0628 -0.1021 -0.0394
11415W        W28939   0.114   4.738   3.158  0.2269  0.4728 -0.0305
11416W        W28940  10.624   4.363  15.901  0.1628 -0.3165 -0.1623
11417W        W28941  14.136   7.885   2.447 -0.2304 -0.0714  0.0441
11418W        W28942   4.731  16.637   4.081  0.1781 -0.2162  0.3075
11419W        W28943  16.656   7.508  16.429 -0.0402 -0.0963 -0.1320
11420W        W28944  14.345   2.438   1.479  0.0693 -0.1020 -0.0751
11421W        W28945   6.776  14.543  13.676  0.1788  0.1670  0.2579
11422W        W28946  10.923  13.398   4.166  0.0667 -0.0110 -0.0981
11423W        W28947  14.571  15.797  14.453 -0.2830  0.0452  0.2384
11424W        W28948   3.322   5.273  11.766 -0.1214  0.0215  0.5299
11425W        W28949  15.104   8.663  12.494 -0.0805  0.0265  0.0619
11426W        W28950  15.906  16.421  11.707 -0.3131  0.0890  0.1497
11427W        W28951   5.980   0.118   5.258 -0.0341  0.2930  0.0695
11428W        W28952   0.655   5.927   0.537  0.0622  0.4727 -0.1585
11429W        W28953  12.354   2.846   3.686  0.1060  0.2371 -0.1403
11430W        W28954   0.537   8.230   0.518 -0.0038 -0.0447 -0.2144
11431W        W28955   5.288   5.298  15.453  0.1993 -0.3167 -0.1361
11432W        W28956  10.872  11.434  15.058 -0.1877  0.1072  0.1176
11433W        W28957   6.177   5.195   0.155 -0.1538  0.1318 -0.1180
11434W        W28958   1.807  14.621  14.415  0.1555  0.2784 -0.0811
11435W        W28959   7.841  15.905   0.427 -0.1962  0.2647  0.2152
11436W        W28960   2.361  17.161  15.741 -0.1924  0.1008  0.0013
11437W        W28961   5.955  11.557   1.211  0.2232  0.1019  0.2637
11438W        W28962   1.444   7.852  15.376  0.0159  0.2193 -0.0169
11439W        W28963   8.706  13.505  11.468 -0.0052 -0.2494 -0.0964
11440W        W28964  12.706   1.031   4.429  0.1838 -0.3478 -0.1357
11441W        W28965   3.361  17.340  15.750 -0.0600 -0.0134  0.0497
11442W        W28966  17.866  14.621   0.128  0.2221 -0.3584  0.0109
11443W        W28967   3.278  12.506   5.791 -0.2693 -0.1699 -0.3786
11444W        W28968  11.345  12.338   4.351 -0.2002  0.0109 -0.1387
11445W        W28969   2.131   9.729  14.148  0.1476  0.1301 -0.0923
11446W        W28970  10.493  13.769   0.179 -0.2879  0.2299 -0.0432
11447W        W28971  10.594   7.446   3.320 -0.2388  0.0371  0.2377
11448W        W28972   7.700  12.789   1.228  0.3049 -0.1455 -0.0265
11449W        W28973  13.550   0.637  15.712 -0.1124  0.0703 -0.3796
11450W        W28974   7.548  17.701   4.388 -0.4548 -0.3130 -0.2287
11451W        W28975  10.422  12.368   3.207  0.1895  0.0691 -0.2603
11452W        W28976   0.009  16.999  13.092  0.1876 -0.4233 -0.2073
11453W        W28977  16.833   7.620  12.996 -0.2584  0.0650 -0.0624
11454W        W28978  17.155   9.565   3.643  0.0131 -0.2801  0.1555
11455W        W28979  17.769   9.917  13.286  0.0821 -0.0574 -0.1706
11456W        W28980   2.952   6.261   1.087  0.1156 -0.0191  0.0267
11457W        W28981   7.683   3.604   1.933  0.1824  0.1477 -0.0454
11458W        W28982   7.313   0.434  14.741  0.2027  0.2336 -0.1843
11459W        W28983  13.239   0.875  15.338  0.0866 -0.1409  0.2115
11460W        W28984   5.066   0.153  16.066 -0.1325 -0.0870  0.0275
11461W        W28985   9.125  10.007  13.595 -0.2612  0.2110  0.0291
11462W        W28986   9.927   8.382  15.107 -0.1453 -0.0150 -0.0372
11463W        W28987   6.017   1.773   4.941  0.1019 -0.1022 -0.3891
11464W        W28988  10.220   7.321   0.598  0.0824 -0.0606 -0.3362
11465W        W28989  10.929   1.653  11.468 -0.1030 -0.2745 -0.2148
11466W        W28990   6.255   6.080   1.914  0.1030  0.0129 -0.3012
11467W        W28991  12.585   6.708  12.588  0.2678  0.1861  0.1848
11468W        W28992   9.146  10.484   0.324 -0.0247  0.1742  0.1420
11469W        W28993   2.063   7.198  11.540 -0.0107  0.0528  0.1298
11470W        W28994  14.881  12.363   3.413  0.2669  0.1194  0.0921
11471W        W28995  16.788  10.451   5.064  0.2624 -0.1158  0.3024
11472W        W28996  16.010   3.085  13.163  0.0076  0.2174 -0.4083
11473W        W28997   5.922   0.796   0.999  0.1506  0.0571  0.0639
11474W        W28998  15.152   3.407  13.473  0.3504  0.3104 -0.0514
11475W        W28999  15.944  16.533  13.491  0.1514  0.3165  0.5421
11476W        W29000  15.823  16.243   2.541 -0.0045  0.1179 -0.0253
11477W        W29001  11.676  14.564   2.484 -0.3410 -0.1526  0.1514
11478W        W29002   2.568  14.281  16.433 -0.1310 -0.2331  0.1203
11479W        W29003  10.354   9.388   0.594 -0.1402  0.0539  0.2576
11480W        W29004   9.528   1.172   2.142 -0.0467 -0.1391 -0.2110
11481W        W29005   6.713   4.497   3.720  0.0494  0.0553  0.0662
11482W        W29006  14.034  13.582   6.046 -0.2402  0.0038 -0.2301
11483W        W29007  14.591   3.597   5.759 -0.1452 -0.1102 -0.1684
11484W        W29008  16.658   2.856   1.372  0.2739 -0.2171  0.0887
11485W        W29009   2.300   7.144   3.246  0.0482  0.1599 -0.1413
11486W        W29010  14.832   9.898  15.002 -0.2859  0.2667 -0.2722
11487W        W29011  12.503  13.583   3.609 -0.2135  0.1632 -0.2530
11488W        W29012   3.687   6.547   2.559  0.1581  0.3018 -0.4302
11489W        W29013  17.886  16.422   4.331 -0.0268  0.0045 -0.2539
11490W        W29014   9.083  14.967   4.015  0.1438  0.1642 -0.1204
11491W        W29015   1.572   2.525   4.348  0.1545 -0.0974  0.3498
11492W        W29016  12.512  10.051  13.051  0.1529 -0.4114 -0.2650
11493W        W29017   0.953   6.288  13.395  0.0275 -0.0256  0.1132
11494W        W29018  15.784  13.248   2.179 -0.1344  0.0135  0.0727
11495W        W29019   5.940   5.557  15.949 -0.2662 -0.1726 -0.0508
11496W        W29020   7.224  12.028   3.791 -0.2376  0.2003  0.0043
11497W        W29021   0.189  15.072   2.670 -0.5052  0.1511  0.4530
11498W        W29022   7.255   2.278   1.001 -0.0691  0.1359  0.0913
11499W        W29023  16.177   7.020  11.395 -0.2452  0.1180 -0.1174
11500W        W29024  12.106   2.411   2.304  0.0721  0.1545  0.0445
11501W        W29025  17.543  10.396  12.416 -0.3248 -0.1809 -0.0414
11502W        W29026  13.937   4.596  10.673 -0.1346 -0.1288  0.1430
11503W        W29027   6.269   5.960   2.891  0.0875  0.0208  0.1176
11504W        W29028  10.268  11.348  11.457 -0.1098 -0.1753 -0.0846
11505W        W29029  15.113  13.981  13.687 -0.1404  0.0603  0.0342
11506W        W29030   4.578   4.832  15.919 -0.0659  0.0008 -0.1952
11507W        W29031   0.062  10.627   4.771  0.0788  0.1035 -0.1198
11508W        W29032  16.615  13.290  15.351 -0.0493 -0.0268 -0.1164
11509W        W29033   7.723  15.310   4.511  0.1170  0.2053  0.0832
11510W        W29034   6.099  15.609  13.588 -0.0375 -0.0970  0.1086
11511W        W29035  16.706  12.140  16.099  0.0285 -0.1061  0.0722
11512W        W29036   0.044  12.979  13.573 -0.0408 -0.0060 -0.0720
11513W        W29037   8.080   3.082   3.365 -0.3220  0.4379 -0.3765
11514W        W29038   8.033   5.188  11.907  0.2437 -0.2132  0.5149
11515W        W29039  10.197  13.563  14.837  0.4894 -0.2442 -0.0281
11516W        W29040  12.809   8.474  16.360  0.2856  0.2668  0.1760
11517W        W29041   9.949  17.721   3.800  0.0853  0.2187 -0.3410
11518W        W29042  17.357  16.752   2.752  0.1291  0.1259 -0.0434
11519W        W29043   5.131   3.442  12.204  0.1431  0.1773 -0.1798
11520W        W29044  15.035   2.468   4.552 -0.1531 -0.2426  0.0259
11521W        W29045   4.197  13.745   3.489 -0.0708  0.0116  0.0474
11522W        W29046  10.693  14.990   0.184 -0.1319  0.2842  0.1611
11523W        W29047  15.882   1.326   2.984 -0.0195  0.2532 -0.0180
11524W        W29048   5.867   9.832  11.329 -0.0873 -0.1476  0.1083
11525W        W29049  15.946   8.562  15.962  0.2744  0.2408 -0.0673
11526W        W29050   0.484   0.452   3.877  0.1109 -0.1228  0.2998
11527W        W29051   4.230   9.617   0.283  0.2517  0.2065  0.1906
11528W        W29052  12.372  14.833   0.941 -0.2026  0.1668 -0.2248
11529W        W29053  12.116  15.700   2.343  0.0303 -0.4402 -0.2550
11530W        W29054  14.801   8.744   0.922  0.1519 -0.1020 -0.2170
11531W        W29055  12.510  14.221  11.437  0.0685  0.0580 -0.0320
11532W        W29056   2.604   1.395  13.816 -0.0962  0.4023  0.1235
11533W        W29057   9.025   9.459  15.761 -0.0519  0.1795  0.0363
11534W        W29058   2.736  17.084   0.592 -0.0821 -0.2055  0.1977
11535W        W29059   0.945  17.551  16.361 -0.1657 -0.2862 -0.0336
11536W        W29060  10.731   0.788   3.280  0.3149  0.1558 -0.0884
11537W        W29061  14.702  15.874   0.698 -0.1867  0.1585  0.0872
11538W        W29062   0.633   4.622   0.442 -0.2259 -0.1271  0.0344
11539W        W29063   3.165   9.702   3.173 -0.2374 -0.1818 -0.1745
11540W        W29064   6.523   1.739  14.468  0.3991  0.3292  0.1773
11541W        W29065   8.170  17.606   1.044  0.1524  0.0211 -0.3304
11542W        W29066   1.749   3.274   1.102  0.3810 -0.1859  0.1344
11543W        W29067  13.262  10.728   3.806  0.3643 -0.0823  0.1095
11544W        W29068   0.034   8.375   4.575 -0.2077  0.1027  0.1306
11545W        W29069  13.197  17.392   4.397  0.4358 -0.1314  0.1089
11546W        W29070  16.680  16.064  13.822  0.0515  0.2257 -0.3745
11547W        W29071  16.981   4.231   2.368  0.0389 -0.0287 -0.0728
11548W        W29072  15.567   1.593  11.544 -0.2202  0.0362 -0.2729
11549W        W29073   9.069   6.855  15.735  0.5235 -0.0005  0.2200
11550W        W29074   5.848   8.847   2.684 -0.1734 -0.2049  0.2791
11551W        W29075   1.470  12.629   4.038  0.0389  0.4351 -0.4143
11552W        W29076   9.542  17.509   2.068 -0.2579  0.0854  0.3069
11553W        W29077   1.875  17.371   5.368  0.1629  0.1995 -0.0430
11554W        W29078  11.375   9.396   3.421  0.0445 -0.1259  0.1945
11555W        W29079  15.111   1.310  15.413  0.1061  0.0729  0.4316
11556W        W29080  15.517  11.012  15.568 -0.2890 -0.0216  0.1689
11557W        W29081   1.733  15.240   4.570  0.2555 -0.0702  0.0166
11558W        W29082  11.402  17.756  11.485 -0.0208  0.2214  0.2498
11559W        W29083  16.204  14.734   0.197 -0.0600  0.0162  0.0670
11560W        W29084   7.602   7.805   0.796  0.1598 -0.2247  0.0624
11561W        W29085   2.352   5.401   1.108 -0.0894  0.0891 -0.1320
11562W        W29086   0.329  13.232  12.803 -0.1736 -0.1468  0.2534
11563W        W29087   8.682   1.179   0.386  0.1662  0.0294 -0.2866
11564W        W29088  13.383   7.246  13.377 -0.0047 -0.1396  0.2550
11565W        W29089   9.448   9.604  12.994  0.2942  0.0895  0.0417
11566W        W29090  14.842  11.642   0.965  0.2929  0.0854 -0.1435
11567W        W29091  16.222   8.369  10.864 -0.3654 -0.1173  0.0167
11568W        W29092  14.384   7.217   0.754  0.1675 -0.1088  0.0631
11569W        W29093   3.996   6.396  11.503 -0.0833 -0.1815  0.1065
11570W        W29094  11.168  16.046   2.573  0.0201  0.1117 -0.2319
11571W        W29095  10.964  15.207   2.941 -0.2496 -0.2467 -0.0695
11572W        W29096  16.280   2.806   4.693 -0.1063  0.2061 -0.1553
11573W        W29097   0.982  14.157   0.532 -0.3802 -0.0752  0.1175
11574W        W29098   9.298   8.068   4.823 -0.0802  0.3183  0.0812
11575W        W29099   7.903   9.778  15.467 -0.1127 -0.0970 -0.0634
11576W        W29100  15.890  11.005   1.632 -0.2322 -0.0186  0.0421
11577W        W29101   5.711  16.595   0.888 -0.1673 -0.1256  0.2450
11578W        W29102  13.368  12.139   1.539  0.2428 -0.1610  0.1505
11579W        W29103   7.975   6.199  14.436  0.2307 -0.5555 -0.1803
11580W        W29104   1.649  13.915   3.118  0.1572 -0.1181 -0.0428
11581W        W29105   4.009   2.226   4.774 -0.3314  0.0130 -0.0523
11582W        W29106   1.339  11.889  15.825  0.3073  0.0057 -0.2327
11583W        W29107  12.756   0.999   6.144 -0.0590 -0.1462  0.2130
11584W        W29108   8.789  16.356  16.197 -0.2754 -0.1716 -0.4191
11585W        W29109   7.119  11.171   2.663 -0.0095  0.3934  0.0447
11586W        W29110   6.176  10.269   3.295 -0.1587  0.1408  0.3440
11587W        W29111  17.471   2.152  12.631 -0.0723 -0.0760  0.1217
11588W        W29112  10.029   8.959  13.785  0.2136 -0.0770 -0.0997
11589W        W29113  17.181  14.704  13.640  0.1115  0.0529  0.1825
11590W        W29114  12.841  15.487   3.765 -0.3856  0.1651  0.1000
11591W        W29115   4.394   4.162  15.508  0.0436  0.1037  0.2399
11592W        W29116   1.188   4.393  13.746  0.1568 -0.1673 -0.0099
11593W        W29117   4.427  16.739   4.518  0.3145  0.4059  0.2584
11594W        W29118  16.865   1.698   2.083  0.4429  0.1275 -0.1030
11595W        W29119   4.790   3.012  14.773  0.1059 -0.1167  0.0410
11596W        W29120  17.917   3.174   2.496  0.1966 -0.1291 -0.0562
11597W        W29121   0.360  12.057   3.939  0.0004  0.0650 -0.1001
11598W        W29122   3.568   5.868   3.106 -0.0591 -0.0955 -0.1198
11599W        W29123  13.584  12.382   3.388 -0.0035 -0.0203  0.2583
11600W        W29124   4.703   9.348  12.087  0.1554  0.3584 -0.1157
11601W        W29125  14.945   9.020  16.098  0.0668 -0.0181  0.0428
11602W        W29126  15.539   4.439   3.819 -0.0240  0.4041 -0.3469
11603W        W29127  14.274   1.702  13.858  0.0680 -0.0993 -0.1296
11604W        W29128   6.804  10.880  12.750 -0.2480  0.0903 -0.0246
11605W        W29129   4.737  11.909  14.195  0.1557 -0.0034 -0.0340
11606W        W29130  12.734   3.891  15.933  0.0512 -0.1234 -0.2223
11607W        W29131   8.158   5.404   3.214 -0.2276  0.0230 -0.0999
11608W        W29132  13.777  17.092  15.663  0.2980 -0.0091  0.1027
11609W        W29133   6.102   6.416  11.335 -0.1271  0.0842 -0.2044
11610W        W29134   5.365  16.544  15.804  0.0540  0.0572  0.0357
11611W        W29135  17.460  16.826  15.817 -0.0775 -0.0797 -0.0804
11612W        W29136  13.879   3.172  16.104 -0.0633  0.2211  0.0211
11613W        W29137  17.726   7.595  12.628 -0.4134  0.4345 -0.1318
11614W        W29138   7.075  16.218  15.081 -0.1198  0.2424  0.0720
11615W        W29139  10.982   7.841   4.534  0.2100 -0.0115 -0.0836
11616W        W29140  13.577  14.418  11.653 -0.0034 -0.3508  0.0118
11617W        W29141   1.816   6.965  15.637 -0.0216  0.1899 -0.6472
11618W        W29142  10.810  12.641  12.415 -0.2093 -0.1999  0.1532
11619W        W29143  13.286  11.258  13.966  0.1402 -0.0101  0.0934
11620W        W29144   0.406   0.851   4.191  0.0131  0.1371  0.1840
11621W        W29145  14.299   7.281   3.343 -0.0860 -0.2006  0.0563
11622W        W29146   9.287   3.840   2.778  0.1726 -0.0015 -0.0613
11623W        W29147  16.523  16.948   0.648  0.0954  0.1421  0.0300
11624W        W29148   6.889   5.498  14.015  0.0360 -0.0019  0.5333
11625W        W29149  14.403   8.205   1.612  0.0623 -0.0862 -0.4342
11626W        W29150   5.913   4.572  13.251  0.2254 -0.2490 -0.1047
11627W        W29151   1.823   4.932  14.270 -0.0457  0.1112  0.0193
11628W        W29152   3.244   2.806   0.718  0.1306  0.3130 -0.1954
11629W        W29153   3.103   5.785  13.401  0.0914  0.2479 -0.0231
11630W        W29154   5.616  10.282   1.637 -0.2796 -0.2785 -0.2836
11631W        W29155   0.161  11.427   0.991  0.2232 -0.0716 -0.0744
11632W        W29156   0.180  12.459   1.854 -0.1043  0.1410 -0.2834
11633W        W29157   2.181  10.463   4.702 -0.0617  0.0512 -0.0428
11634W        W29158  13.893  16.891  14.363  0.1121  0.0434  0.1453
11635W        W29159  15.362   8.245  15.001 -0.2698  0.2329 -0.1706
11636W        W29160   2.531   9.730  13.440 -0.1611 -0.0468  0.2305
11637W        W29161   5.560  17.068  13.181  0.1610  0.2067 -0.0599
11638W        W29162  14.714  12.136   4.605 -0.0764 -0.1715 -0.3033
11639W        W29163  13.117   3.351   2.022 -0.0213  0.0163  0.2373
11640W        W29164  14.628   6.343   3.035 -0.1659 -0.2752  0.1646
11641W        W29165  13.077  10.905   4.243 -0.0819  0.2454  0.3719
11642W        W29166   9.327   6.169  13.940 -0.1846  0.0540  0.0935
11643W        W29167   2.105  13.052  16.091  0.0021 -0.2443 -0.1806
11644W        W29168   1.932   3.901   0.012 -0.1002  0.2696  0.0488
11645W        W29169  13.027  10.323  12.365 -0.0929 -0.0256 -0.0593
11646W        W29170   9.730   0.264  11.790  0.0720 -0.0917  0.0174
11647W        W29171  13.456  14.801   2.133  0.3998 -0.0002 -0.0235
11648W        W29172   8.472   6.884  16.119  0.1683  0.1810 -0.0362
11649W        W29173  14.946   2.976   0.857  0.0894 -0.2714  0.1167
11650W        W29174   8.758   8.391   4.238 -0.0276  0.1893 -0.2664
11651W        W29175  11.182   6.773  13.811  0.0473  0.2722  0.2260
11652W        W29176  11.723   1.684  12.387 -0.0214  0.1094 -0.1055
11653W        W29177   8.894   1.612  14.790  0.1631  0.1524  0.0405
11654W        W29178   3.089  12.947  11.885 -0.0741 -0.1167 -0.1926
11655W        W29179  14.248   6.272   2.743 -0.0370  0.0020  0.3168
11656W        W29180   9.235   9.378  14.293  0.2267 -0.0476 -0.0671
11657W        W29181  10.555   4.749   4.072  0.0229  0.0880  0.0558
11658W        W29182   8.296  10.011  14.540 -0.4773 -0.0380 -0.0469
11659W        W29183   5.151  12.901  11.995 -0.1635 -0.0942 -0.0250
11660W        W29184   5.274   8.019   1.772 -0.0118  0.1124  0.0055
11661W        W29185   1.874  10.095   3.621  0.0615 -0.3211  0.2847
11662W        W29186  17.345   9.078  16.153  0.2662  0.0634 -0.1474
11663W        W29187   9.982  16.983   1.557  0.1675 -0.0203 -0.2404
11664W        W29188   6.065  12.129  11.741 -0.1431 -0.0693  0.2968
11665W        W29189   9.508  13.179   1.059 -0.4353 -0.1086 -0.0788
11666W        W29190  13.418  16.607   0.405  0.0166  0.0159 -0.1338
11667W        W29191  13.813   5.538  14.665 -0.0968 -0.0903  0.0736
11668W        W29192  13.166   0.871  14.730  0.0876 -0.1117  0.0930
11669W        W29193   4.128   0.444   4.316  0.1423 -0.1724 -0.2027
11670W        W29194   5.984  16.699   3.691  0.1522  0.0380  0.2415
11671W        W29195  14.701  16.929   3.922 -0.2724  0.0847 -0.0886
11672W        W29196  10.549  15.331  13.721 -0.0216  0.0566 -0.1947
11673W        W29197  10.123  13.494   2.714  0.0423  0.2362  0.1152
11674W        W29198   3.054   8.222  15.979  0.1124  0.2066 -0.2131
11675W        W29199   2.899   0.154  15.257 -0.0827  0.0475  0.2177
11676W        W29200   8.084   5.460   2.174 -0.4875  0.1945 -0.0966
11677W        W29201  10.285   7.203  12.504  0.1028 -0.0019 -0.0724
11678W        W29202   6.867  12.504  13.640 -0.2202 -0.1025 -0.0521
11679W        W29203  12.688  17.895   1.796 -0.0286  0.1289 -0.0804
11680W        W29204   5.536  13.764  12.976  0.0691 -0.0189 -0.2549
11681W        W29205  12.729   7.925  11.719  0.0029 -0.0004  0.2123
11682W        W29206   3.121   8.991  16.375 -0.0019 -0.0071 -0.2382
11683W        W29207   5.137  10.258   3.544 -0.0582  0.1115  0.1076
11684W        W29208   4.223   7.477  12.108 -0.1229  0.0395 -0.1030
11685W        W29209   4.600   7.235   3.533 -0.0518  0.0851  0.4643
11686W        W29210   8.671   0.483  13.581 -0.0674  0.1585 -0.3415
11687W        W29211   5.817   9.104   3.540 -0.0788  0.1404  0.0951
11688W        W29212  10.632  16.668   2.486 -0.0510  0.1280 -0.0586
11689W        W29213   2.152   8.508  11.414 -0.3943 -0.3101  0.3367
11690W        W29214  12.227  14.743   3.801  0.1150  0.0650  0.0932
11691W        W29215  12.899   5.601   2.848  0.1826  0.2583 -0.1948
11692W        W29216  16.542   1.253   0.508 -0.1056 -0.0518  0.0253
11693W        W29217  14.810  15.642  10.715  0.0745 -0.0962  0.0397
11694W        W29218  12.036  13.031   0.598  0.3250 -0.2752 -0.0733
11695W        W29219  14.285   9.229  12.495 -0.0295 -0.0769 -0.1604
11696W        W29220   7.755  14.485   2.162  0.0179 -0.2833  0.0601
11697W        W29221   8.365   1.543  16.108 -0.0069 -0.1150 -0.0480
11698W        W29222  15.321   2.031   0.560 -0.3792  0.1218  0.0320
11699W        W29223   0.682  12.749  14.343 -0.0826 -0.1360  0.1413
11700W        W29224  17.481  10.213  10.920  0.1377 -0.3037  0.0446
11701W        W29225  12.815  17.374   2.033 -0.0606 -0.2251 -0.0808
11702W        W29226   2.774   4.002   2.698 -0.0380  0.1264  0.0777
11703W        W29227  13.768   9.894   2.333 -0.3129  0.0836 -0.1691
11704W        W29228  15.050   9.292   0.043  0.2717  0.1163 -0.1575
11705W        W29229  16.927  13.325  12.929  0.1741 -0.0581  0.1116
11706W        W29230  12.245  14.430  15.198 -0.0664  0.1766 -0.0187
11707W        W29231  13.715  12.192  11.703 -0.2380 -0.1320 -0.0720
11708W        W29232  13.476  16.831  13.968  0.2693  0.1754  0.1069
11709W        W29233   0.654   4.079   3.436  0.1252 -0.0507 -0.2455
11710W        W29234   5.044   0.355  12.200 -0.0746 -0.1591 -0.0754
11711W        W29235   3.468   6.986   3.625  0.0008 -0.0847 -0.0160
11712W        W29236   1.638   0.406  15.815  0.3389 -0.0958  0.1254
11713W        W29237  14.167  17.471  15.329  0.1054  0.2908 -0.0112
11714W        W29238   9.212  10.233   3.010  0.1240 -0.0154 -0.2216
11715W        W29239   9.188  15.445   3.892  0.0527 -0.0074 -0.1060
11716W        W29240   0.494   8.854   3.926  0.1680 -0.0762  0.2004
11717W        W29241   0.678  12.077  10.334  0.1625 -0.0591 -0.1129
11718W        W29242   7.650  13.492   3.520 -0.0239 -0.1070 -0.2249
11719W        W29243   8.313   9.616  14.141  0.0262 -0.4012  0.3693
11720W        W29244   6.708   2.523   2.973  0.2314 -0.0805  0.1559
11721W        W29245   2.892   1.399  15.082  0.2157  0.2300  0.0020
11722W        W29246  14.532   2.014   3.427 -0.2587  0.1841  0.2605
11723W        W29247   6.803  13.809  14.657  0.1547  0.0920 -0.0858
11724W        W29248   5.991  15.542  11.247 -0.1656 -0.0457 -0.2445
11725W        W29249  11.893   0.183   2.991  0.1430  0.1145 -0.1151
11726W        W29250   0.094  15.561   2.780  0.0521 -0.0728  0.0030
11727W        W29251   5.861   6.667  16.263 -0.0429  0.2708 -0.0365
11728W        W29252   5.906   5.763  16.427  0.0180  0.1129  0.2446
11729W        W29253   6.234   7.781  14.908 -0.1175 -0.0755 -0.0931
11730W        W29254   8.975   1.358   1.954 -0.0065 -0.0268  0.1143
11731W        W29255  15.176   7.144   4.180  0.1980 -0.0898 -0.0874
11732W        W29256   7.971   0.392   5.025 -0.0930  0.0177  0.2910
11733W        W29257   1.367  13.738  13.732 -0.0271  0.0802  0.3079
11734W        W29258   0.894   8.192   1.281 -0.1789  0.2908 -0.2759
11735W        W29259  17.850   1.664   2.864  0.0233  0.3080 -0.0040
11736W        W29260  11.297   8.921   2.273  0.0128  0.0515  0.0052
11737W        W29261  14.848  11.772  15.556  0.0508 -0.2275  0.3561
11738W        W29262  16.701   3.869   4.935  0.3005 -0.1911 -0.2095
11739W        W29263   9.886  15.261   1.979 -0.0927 -0.0930  0.1466
11740W        W29264  17.696   9.150   1.646  0.1376  0.2847 -0.0258
11741W        W29265  16.297  10.242  11.540  0.2052 -0.3067  0.0651
11742W        W29266   3.727   4.925  11.700 -0.0156 -0.0349 -0.0021
11743W        W29267  13.530  17.163  14.758 -0.1609  0.4523 -0.3911
11744W        W29268   8.408   5.947   1.426 -0.2156 -0.3690 -0.1727
11745W        W29269   6.270   7.409  15.284 -0.1774  0.2645 -0.1752
11746W        W29270   6.054   0.563   3.962 -0.1859 -0.3333 -0.0275
11747W        W29271  10.142  16.304  13.715  0.1829 -0.0516  0.0299
11748W        W29272   8.634  11.328   0.799  0.1113 -0.0560 -0.3260
11749W        W29273   9.957  15.268   3.963  0.0403  0.0439 -0.3321
11750W        W29274  17.111   2.937  11.615  0.0966 -0.2567 -0.0346
11751W        W29275   7.644   1.262   2.538  0.0415 -0.1096 -0.1585
11752W        W29276   1.653   8.319  13.771 -0.1302 -0.0653  0.0775
11753W        W29277   9.635  13.661   2.689  0.1164 -0.0770  0.0679
11754W        W29278   3.219   2.639  14.967 -0.1832 -0.1113  0.0995
11755W        W29279  14.830   2.638  11.603 -0.0981 -0.2193  0.1468
11756W        W29280  15.530  10.985  12.463 -0.0525 -0.2642  0.1604
11757W        W29281   1.046   9.203  12.263  0.0105  0.0728  0.0382
11758W        W29282  13.764   4.603   5.232 -0.0523  0.5707  0.1312
11759W        W29283  10.820  16.213  11.876  0.0311 -0.1020 -0.0017
11760W        W29284   4.699   7.448   5.348  0.3938  0.0451  0.2494
11761W        W29285   0.832  12.672   0.933  0.4873  0.1707 -0.0644
11762W        W29286   4.308  16.018  15.273 -0.1136 -0.0117 -0.0287
11763W        W29287  10.252   8.131   5.213  0.4604 -0.1148 -0.2412
11764W        W29288  12.932  14.706   1.976  0.1025 -0.0935 -0.0990
11765W        W29289   7.190   6.912  11.996  0.1024 -0.0392 -0.2441
11766W        W29290   4.622  17.628   1.042  0.2285  0.1387 -0.2600
11767W        W29291   9.145   9.698  12.564  0.0673 -0.1292 -0.4082
11768W        W29292  17.587   5.778  11.898  0.0660 -0.0222 -0.0180
11769W        W29293   0.372   0.853  15.739  0.0792 -0.0048 -0.0025
11770W        W29294   7.022   0.868  13.079 -0.1541 -0.2101 -0.1416
11771W        W29295   7.572  17.327   4.783  0.2552 -0.1516  0.1837
11772W        W29296   9.559  13.927   4.071  0.3558  0.0259 -0.1282
11773W        W29297   5.453   4.734   5.101 -0.1075  0.1460 -0.2961
11774W        W29298  14.773  15.346  13.725  0.1750 -0.0626 -0.0535
11775W        W29299  17.566   7.120  12.495 -0.1636  0.0175  0.4104
11776W        W29300  10.586   4.546   4.787 -0.2351 -0.0537  0.1599
11777W        W29301   3.042   1.298  12.224  0.0337  0.0605 -0.3015
11778W        W29302   4.329   8.971   3.126  0.4907 -0.0084 -0.0311
11779W        W29303  14.895   8.011   3.758  0.1303  0.1030  0.1593
11780W        W29304   8.646  17.122  13.218  0.2622 -0.0085  0.1877
11781W        W29305   6.742   9.563   4.503 -0.0046  0.0367 -0.0457
11782W        W29306   2.639   2.512  14.335  0.1657  0.0049 -0.1745
11783W        W29307   2.261  10.489  13.448 -0.0644  0.1302 -0.0296
11784W        W29308  11.157  14.633   2.909  0.0373  0.1826 -0.1198
11785W        W29309  16.565  12.891   0.694 -0.0391  0.0796 -0.1640
11786W        W29310  13.685  12.767  15.592 -0.0638  0.0206  0.3398
11787W        W29311   3.848   9.026   0.973 -0.3601 -0.1616 -0.0046
11788W        W29312   1.752  13.123   2.737  0.0259  0.0288  0.1524
11789W        W29313  14.109  13.484  12.214  0.1523  0.0687 -0.0828
11790W        W29314  15.771   7.629   3.160 -0.1250 -0.3171  0.0236
11791W        W29315   4.213   3.100  13.701 -0.0731  0.2778  0.2014
11792W        W29316  17.150  16.716  12.504  0.2709  0.2267 -0.2348
11793W        W29317   9.625   0.440   3.281  0.0109 -0.1012 -0.3532
11794W        W29318   0.603   1.070  13.525 -0.1124  0.4307 -0.1053
11795W        W29319  10.076   0.448  12.656  0.0683  0.0044 -0.0023
11796W        W29320   9.573  14.730  11.858 -0.0450  0.2921  0.0301
11797W        W29321   3.147  13.936  13.278 -0.4356  0.1291  0.1334
11798W        W29322   7.375  17.179  13.207 -0.1351 -0.1661 -0.0687
11799W        W29323  15.999  10.775  13.155 -0.2921  0.0552  0.1573
11800W        W29324  10.634  10.864  15.770 -0.2874 -0.2703 -0.3585
11801W        W29325   0.480   4.161  16.328 -0.0285 -0.2330 -0.0925
11802W        W29326   5.728  13.758  14.384 -0.1036 -0.2698 -0.2957
11803W        W29327   0.548  13.448   3.840  0.0326  0.0307 -0.2080
11804W        W29328   2.208  15.152   4.803 -0.0066 -0.0350 -0.1383
11805W        W29329  10.726   8.501  12.808 -0.4433 -0.0927 -0.0108
11806W        W29330  15.941  11.228   3.692 -0.2395 -0.1663 -0.3390
11807W        W29331  12.805  10.460   4.138 -0.1291  0.0748 -0.1105
11808W        W29332   9.567   0.068   3.584 -0.2249 -0.1171  0.0311
11809W        W29333   5.084   6.863   2.910  0.0013  0.1667  0.1278
11810W        W29334  10.570   6.515  11.972  0.4531  0.2303  0.2397
11811W        W29335   9.907   7.843   0.856 -0.1655  0.0027  0.1783
11812W        W29336   2.862   9.924   4.558 -0.1361 -0.1350 -0.3564
11813W        W29337   1.556   6.595   1.336  0.0152  0.1172  0.3457
11814W        W29338   2.719  16.717   3.079 -0.1434  0.1502 -0.3116
11815W        W29339  13.539  12.623  10.687 -0.1600 -0.0467 -0.2101
11816W        W29340  16.330  16.283  14.554 -0.1159 -0.1426 -0.3182
11817W        W29341   8.991   6.021  12.772 -0.3266 -0.0685  0.0377
11818W        W29342   4.610   1.605   4.686  0.0409 -0.0368 -0.1195
11819W        W29343   3.349   9.692   5.058  0.0998 -0.0950 -0.3144
11820W        W29344  14.178   7.096  12.806  0.0130 -0.1163 -0.1517
11821W        W29345  10.237   7.042   1.680  0.1669  0.2108 -0.1853
11822W        W29346  16.829   7.255  12.406  0.0187 -0.2417  0.0415
11823W        W29347   7.066  11.444  13.437  0.0724  0.0543 -0.1060
11824W        W29348   7.925  16.737   1.796 -0.1278  0.0928  0.1686
11825W        W29349  14.434   1.744   0.697  0.2213  0.1835 -0.1754
11826W        W29350   4.439  10.320  15.712  0.0003  0.0277 -0.2036
11827W        W29351   1.809   8.938   3.545 -0.2325 -0.0659  0.2099
11828W        W29352   4.670   1.923  12.934 -0.3153  0.1954  0.2027
11829W        W29353   1.700   3.079   2.307 -0.2137 -0.2210  0.2403
11830W        W29354   1.287  16.002   1.381  0.0016 -0.0347 -0.0357
11831W        W29355  13.715   2.611   0.579  0.3420  0.0229 -0.0303
11832W        W29356  14.053  17.217  14.774  0.1288 -0.1646 -0.2110
11833W        W29357   1.679  12.965   0.927 -0.2137 -0.0865 -0.1751
11834W        W29358   4.117   8.355   1.287  0.1552 -0.2584 -0.1770
11835W        W29359  16.857   4.566  12.636  0.0533 -0.0217 -0.0931
11836W        W29360   2.952   5.443  12.053 -0.0338  0.1462 -0.1192
11837W        W29361   3.689  11.446   0.223 -0.0304 -0.0965 -0.0506
11838W        W29362   9.823  17.347  11.663 -0.0734 -0.0823 -0.1103
11839W        W29363   5.388   8.981   2.302  0.0578 -0.0363 -0.0289
11840W        W29364  15.141   4.091  14.701  0.1243 -0.0841  0.0095
11841W        W29365  16.205  10.201  15.201  0.0413 -0.0584  0.0697
11842W        W29366   4.230   2.100  12.498  0.0207  0.1241  0.2433
11843W        W29367   4.404   0.536   3.847  0.2069  0.0374 -0.2848
11844W        W29368   5.569  17.562  13.210 -0.0297 -0.0052 -0.0384
11845W        W29369   4.957   6.583  11.448 -0.0448 -0.0780 -0.0602
11846W        W29370   7.730  14.291  14.411  0.1823  0.1960  0.0939
11847W        W29371   7.068  11.034  11.710  0.1267 -0.3530  0.2910
11848W        W29372   6.854   1.445   1.643  0.2739  0.0074  0.0500
11849W        W29373  16.192   8.549  16.408  0.3322  0.0918 -0.2256
11850W        W29374   9.016   8.584   3.406  0.1490  0.1223 -0.1824
11851W        W29375   8.581   5.952   0.405 -0.0007 -0.4623 -0.0869
11852W        W29376   0.162   2.555  15.536  0.2614  0.2736  0.3805
11853W        W29377   9.718   5.132  15.516  0.3353  0.0386 -0.1771
11854W        W29378  11.654  15.258   0.196  0.1719  0.0538 -0.1427
11855W        W29379  13.250   1.422   3.910 -0.2098 -0.0779 -0.0909
11856W        W29380   1.233   4.854   1.281  0.3016 -0.0605 -0.3087
11857W        W29381   1.435  17.240  14.370 -0.0982 -0.2273 -0.1411
11858W        W29382   8.376   6.486  15.124  0.3194 -0.1879 -0.2097
11859W        W29383   7.145  17.827   3.119  0.1633  0.2366  0.2391
11860W        W29384  17.815  15.467  12.628 -0.4330 -0.0271 -0.2526
11861W        W29385   9.524  17.835  14.822 -0.2511  0.1348 -0.0268
11862W        W29386  17.577   2.398   2.078  0.1951  0.1002 -0.0850
11863W        W29387  17.454   8.882   1.036  0.1802  0.0342  0.2201
11864W        W29388  14.160   7.200   4.512 -0.1646  0.0158  0.0053
11865W        W29389  14.733   1.382  12.255  0.1299 -0.2608  0.0360
11866W        W29390  17.266  11.118   3.682 -0.2397  0.1891 -0.0236
11867W        W29391   2.497   1.303   0.569 -0.2353 -0.0982 -0.1010
11868W        W29392   5.050  13.939  15.955  0.0397  0.1073 -0.0132
11869W        W29393  15.898  11.437   4.150 -0.2365  0.1515  0.2421
11870W        W29394  17.725  11.142   3.048 -0.4596  0.0354 -0.2291
11871W        W29395   8.541   1.843  11.456  0.0947  0.1745  0.0491
11872W        W29396  16.291  16.847   5.437 -0.2007  0.0815  0.0060
11873W        W29397  12.882   1.544   4.600 -0.0033 -0.1488  0.1938
11874W        W29398  12.361  13.623  12.134 -0.0386  0.3725 -0.0820
11875W        W29399  13.252   1.339  13.369 -0.0507  0.3099 -0.0011
11876W        W29400   4.377   7.044   5.336  0.1757  0.0489 -0.0195
11877W        W29401  14.197   7.264   0.079  0.0265  0.0143  0.1340
11878W        W29402   2.877   8.006   2.118 -0.0780 -0.1149 -0.2764
11879W        W29403   1.858   0.255   4.269 -0.0729 -0.1112  0.0617
11880W        W29404  15.277   7.437   0.386 -0.1838  0.1324  0.2074
11881W        W29405   8.270   7.088  15.660 -0.0288  0.3423  0.2864
11882W        W29406   0.138  16.092   2.850 -0.3193  0.0686 -0.2127
11883W        W29407   6.736   2.008  11.566 -0.2551 -0.1009 -0.3101
11884W        W29408   2.944  12.289  14.243 -0.3554  0.2186 -0.0791
11885W        W29409  13.754   0.795   3.391 -0.0840  0.2378  0.1372
11886W        W29410   2.289  15.234   4.183  0.2878  0.0140  0.0388
11887W        W29411   8.090   8.257  14.791  0.1470  0.0131  0.2280
11888W        W29412   9.046  14.101  14.970  0.2413 -0.0275  0.2374
11889W        W29413   2.337   8.238  15.119  0.1186  0.2165  0.1133
11890W        W29414   9.049   6.912   0.286  0.1435 -0.0263 -0.0240
11891W        W29415   7.656  11.268   4.642 -0.0876  0.1607 -0.2228
11892W        W29416   8.103  11.469   4.514  0.1730  0.0020  0.1420
11893W        W29417  14.688   0.868  13.845  0.0281  0.0029 -0.1634
11894W        W29418  16.669   3.939  13.654  0.0747 -0.2623  0.2820
11895W        W29419   1.698   7.104  14.840  0.0516 -0.2319 -0.1711
11896W        W29420   4.294   6.398   2.406  0.1372  0.1482 -0.2222
11897W        W29421   7.177  16.667  13.029 -0.2171  0.1238 -0.1973
11898W        W29422   1.439  10.620   4.227 -0.0767  0.1107  0.1392
11899W        W29423   6.203  17.940  15.963  0.5132  0.2291  0.0021
11900W        W29424   1.254  10.703  15.341  0.0939 -0.0841  0.2839
11901W        W29425   0.005   8.328  13.871  0.2769 -0.3839  0.1086
11902W        W29426  10.116   2.540   2.273  0.0772  0.2438 -0.0656
11903W        W29427  12.978   3.087  12.932 -0.0146 -0.2754  0.0175
11904W        W29428   1.679   5.515   3.503  0.3910  0.2598 -0.1835
11905W        W29429   9.897   5.746   2.944  0.0212 -0.1201 -0.3539
11906W        W29430  12.225   4.217   4.955  0.1904  0.0820  0.3047
11907W        W29431   9.602   7.266  16.389  0.1095  0.4246  0.1070
11908W        W29432  11.209   4.887   3.702  0.3575  0.0457 -0.0230
11909W        W29433  16.933   4.812  16.443  0.1676  0.0160  0.0842
11910W        W29434   2.623   9.727   0.493  0.0714  0.2380 -0.0188
11911W        W29435   6.867  17.129  13.562  0.1401  0.4449  0.0735
11912W        W29436  13.248  15.526  16.242 -0.0321  0.1461 -0.1241
11913W        W29437   1.824  13.172  14.401 -0.0719 -0.0692  0.2072
11914W        W29438  14.277   5.218  11.123  0.2683 -0.0341  0.0803
11915W        W29439  12.374  16.117  12.639  0.0091  0.0614 -0.3129
11916W        W29440  16.445   1.814  15.626 -0.2298  0.1933  0.0754
11917W        W29441   0.477   1.006   1.761  0.1398 -0.0322  0.0503
11918W        W29442   0.309   2.028  12.853  0.2186 -0.1118  0.0772
11919W        W29443  17.058  10.289  12.213  0.1317  0.1985 -0.2955
11920W        W29444   8.037  12.664  12.978 -0.1804 -0.1117 -0.1394
11921W        W29445  15.730  12.755   2.916  0.1817 -0.1643 -0.1469
11922W        W29446  11.654  15.911   4.424 -0.2053 -0.0978 -0.3569
11923W        W29447   6.536   1.557   3.958  0.0116  0.2251 -0.1244
11924W        W29448   8.608  17.271  16.296  0.0908 -0.2852 -0.1592
11925W        W29449   7.700   5.177   3.023 -0.2211  0.0150  0.4991
11926W        W29450   2.650   0.636   0.554 -0.2476 -0.2320 -0.1706
11927W        W29451  16.172   9.371  13.463  0.1012 -0.1933 -0.2285
11928W        W29452  16.075  12.697  12.238 -0.3702  0.0455  0.1020
11929W        W29453   3.313   2.857   0.036  0.3307 -0.0486 -0.2821
11930W        W29454  11.178   5.598   0.720 -0.1697  0.2597  0.1460
11931W        W29455  11.402  15.501  11.671 -0.1651  0.2288  0.0521
11932W        W29456  16.919  10.435   1.677  0.0004  0.0569  0.0887
11933W        W29457  16.809   9.893   1.701  0.1215 -0.1282  0.0677
11934W        W29458  16.705  14.216   3.132 -0.6293 -0.3970 -0.2097
11935W        W29459  11.341   4.645   1.961 -0.1717  0.2612  0.2140
11936W        W29460   5.761  12.670   1.448 -0.2449  0.2012 -0.0721
11937W        W29461   0.867  11.877  16.222 -0.1469  0.1756  0.0631
11938W        W29462   1.822   2.423   2.949  0.0234 -0.0373  0.0596
11939W        W29463   0.289   1.353   3.951 -0.1719 -0.2261 -0.1619
11940W        W29464   9.859   8.523  16.420  0.4422 -0.1312 -0.0867
11941W        W29465  11.101   9.489  15.314 -0.2486 -0.2273 -0.3157
11942W        W29466  16.772  10.777   3.018  0.1472 -0.0883 -0.2215
11943W        W29467   8.185   6.739  11.364  0.0276 -0.1560 -0.1502
11944W        W29468  10.838   5.522  13.470 -0.1425  0.1696 -0.1435
11945W        W29469   3.196  13.924  15.945  0.0400  0.1920 -0.2488
11946W        W29470  16.817   0.381   1.502 -0.1055 -0.2098  0.1005
11947W        W29471  14.880  10.436   4.232 -0.0189 -0.1474  0.2344
11948W        W29472   0.041   7.205  12.211  0.0907  0.1009 -0.2117
11949W        W29473   0.872   8.368   0.234  0.2456  0.1993  0.2669
11950W        W29474   1.110   2.803   3.540 -0.0124 -0.1806 -0.0229
11951W        W29475   2.825  16.616  12.206 -0.1218 -0.1307  0.1344
11952W        W29476   8.709   4.501   0.853  0.0728  0.1725 -0.1874
11953W        W29477  10.550  17.673  15.688 -0.3061  0.0806 -0.1309
11954W        W29478   4.976  12.406   4.168  0.1815  0.2150 -0.0443
11955W        W29479   6.725  17.045  15.672  0.0268 -0.0785 -0.0659
11956W        W29480  15.143  10.389   0.214 -0.3307 -0.0471 -0.0521
11957W        W29481   2.316  13.626   1.201  0.1770 -0.1415 -0.2240
11958W        W29482  11.171  12.462   0.121  0.1967  0.0018 -0.2382
11959W        W29483   3.105   5.746   3.230  0.4743 -0.0131  0.0851
11960W        W29484   8.106   3.591  15.077 -0.0666  0.2783 -0.1215
11961W        W29485   7.947  11.125   2.748  0.0395  0.2111 -0.2701
11962W        W29486  15.961   0.324   2.691 -0.3244  0.2953 -0.0747
11963W        W29487  12.917  10.137  11.874 -0.0477  0.2462  0.4768
11964W        W29488  10.235  13.769   5.941 -0.1127 -0.1741 -0.1511
11965W        W29489  11.971  17.102  12.032 -0.0560  0.0229  0.3208
11966W        W29490   3.378  12.649  13.900  0.2115  0.1044  0.0766
11967W        W29491   5.406  10.837   0.901  0.1782 -0.2180 -0.3629
11968W        W29492   7.668  14.380  13.573  0.2216 -0.3719  0.0579
11969W        W29493   2.769   0.086  13.753 -0.0731 -0.0608 -0.2606
11970W        W29494  12.765   5.252  12.743  0.1394  0.1196  0.0082
11971W        W29495   2.997  10.962   3.361  0.1232  0.1946  0.2096
11972W        W29496   8.321  11.958   4.597  0.1670 -0.0423  0.0588
11973W        W29497   3.716  17.038  13.509 -0.5398 -0.0003  0.0576
11974W        W29498   4.311  14.257   5.599 -0.2212 -0.1981 -0.0158
11975W        W29499   6.857  12.547  16.038 -0.1427  0.2250  0.1889
11976W        W29500  10.018  16.522   0.688  0.1475  0.1147 -0.0042
11977W        W29501   9.440  15.067  12.254 -0.1454 -0.3646  0.1250
11978W        W29502   0.078  12.808  15.116 -0.0831 -0.4368 -0.0484
11979W        W29503   8.723   1.165   0.922  0.1223 -0.0965  0.0427
11980W        W29504   2.354  13.655   3.936  0.1737  0.0672 -0.1676
11981W        W29505  15.129   8.437   2.133  0.1221 -0.2386  0.0632
11982W        W29506  15.705   7.981  13.591  0.0688  0.2373 -0.2041
11983W        W29507   1.551   8.199   1.982 -0.0214  0.1188 -0.0381
11984W        W29508  17.906   1.649  11.918 -0.2364 -0.1794  0.2485
11985W        W29509   2.901   9.742  12.485 -0.2253 -0.2146  0.1009
11986W        W29510  13.193  16.174  13.824 -0.3704 -0.1186  0.0556
11987W        W29511  11.882  17.244   3.785 -0.1121 -0.1157 -0.0650
11988W        W29512   1.941  16.256  12.693  0.0390 -0.0733  0.1226
11989W        W29513   6.635   6.408   3.571  0.1190  0.0018  0.0693
11990W        W29514  16.614  11.861  15.644  0.1472  0.2186  0.0170
11991W        W29515  17.067  10.388  11.202  0.0423 -0.0115  0.0587
11992W        W29516   5.442   7.666   3.278 -0.2124 -0.1690  0.0949
11993W        W29517  10.314   0.843   0.898  0.0320 -0.1106  0.1747
11994W        W29518   7.555  17.566   2.895 -0.2090  0.1612 -0.2895
11995W        W29519  17.636  17.393  13.055  0.0480  0.0769  0.1042
11996W        W29520  11.349   5.153   0.483  0.1635  0.4493 -0.0733
11997W        W29521   9.949  12.366  15.823  0.0997  0.0121 -0.1574
11998W        W29522   4.244  13.407  15.284  0.0125  0.0012  0.0554
11999W        W29523   2.781   0.510   2.872  0.0528  0.4162 -0.0085
12000W        W29524   6.198  16.744   4.168 -0.0504 -0.1836 -0.1186
12001W        W29525   2.175   0.119  11.438 -0.0707  0.3966  0.0594
12002W        W29526  17.195   5.607   2.691 -0.2313 -0.2271  0.2066
12003W        W29527  11.772   3.404  11.485 -0.2668  0.4349 -0.0305
12004W        W29528  16.374  17.041  14.267  0.1911 -0.0119  0.0428
12005W        W29529   7.316   3.390   1.605 -0.2084 -0.0481 -0.4151
12006W        W29530   6.119   9.620   0.550  0.0253  0.1659 -0.0193
12007W        W29531   6.299   3.014   4.657  0.0889 -0.1464  0.2365
12008W        W29532  14.790   3.733   4.049 -0.0159  0.0989  0.1984
12009W        W29533   4.814   7.085  11.426  0.1827 -0.0055  0.1289
12010W        W29534   4.936   7.860  11.731  0.0239  0.2161  0.0249
12011W        W29535  14.666   3.152   4.077  0.1944 -0.1098 -0.2531
12012W        W29536   6.733   9.871   2.672  0.1885 -0.0740 -0.2738
12013W        W29537   8.655   9.401   1.714  0.3298  0.3411  0.3422
12014W        W29538   5.737  10.547  14.639 -0.1163 -0.0579  0.1468
12015W        W29539  13.952   5.035  11.502  0.0348  0.0260 -0.0150
12016W        W29540  11.622   3.997  16.338 -0.1660 -0.1511  0.1775
12017W        W29541  14.892   6.084  12.023 -0.1595 -0.0317 -0.4048
12018W        W29542   8.978   7.092   1.139 -0.0775 -0.1082 -0.1308
12019W        W29543   6.233   4.664   3.131  0.1238 -0.3016  0.2740
12020W        W29544   5.328   9.617  14.696  0.0409 -0.1713 -0.1416
12021W        W29545  12.614  13.743  13.099  0.0001 -0.1559  0.0530
12022W        W29546   5.918   4.745   4.261 -0.3893 -0.1610 -0.5363
12023W        W29547  17.311   8.731   1.812  0.0803  0.1335 -0.2835
12024W        W29548   6.883  17.544   1.553  0.0173  0.0975  0.0564
12025W        W29549   4.652   6.065   2.585 -0.1384  0.0082  0.3983
12026W        W29550   7.820  15.177  16.426  0.0570 -0.4085  0.0002
12027W        W29551   2.406   9.254   1.156 -0.5250  0.0310 -0.0998
12028W        W29552   2.463   5.907   3.886  0.0250 -0.3666 -0.3107
12029W        W29553   1.190  13.050   0.953 -0.0671 -0.2345 -0.1085
12030W        W29554   0.934   9.574   1.522  0.2872 -0.0899 -0.1444
12031W        W29555   4.371  10.797   0.092  0.2130 -0.0739 -0.0992
12032W        W29556  14.508   2.902   4.495  0.1638 -0.2894  0.1013
12033W        W29557   3.904  14.404   5.927  0.0051  0.1844  0.0784
12034W        W29558   3.663   1.592   0.817  0.0527 -0.0001 -0.1340
12035W        W29559   6.261   9.947  12.922  0.2368 -0.0932  0.1758
12036W        W29560  16.383  14.951  11.408  0.0023 -0.0406  0.1500
12037W        W29561   2.606   9.411  14.570  0.0446  0.0735  0.1298
12038W        W29562  12.387   2.843   4.637  0.1089  0.2111 -0.1065
12039W        W29563  13.633   9.161  12.108 -0.0416  0.0897  0.1209
12040W        W29564   9.811  10.629   4.061 -0.0367  0.1706  0.0629
12041W        W29565   9.496   1.909   3.872 -0.0708 -0.2657 -0.0657
12042W        W29566  14.120  15.904   5.336 -0.1948  0.0412 -0.0575
12043W        W29567   4.048   8.381   4.446  0.1528  0.3764  0.0062
12044W        W29568   8.645  17.374   4.310 -0.3833  0.1518  0.0400
12045W        W29569   7.627   3.234   3.716  0.0353  0.0270  0.0226
12046W        W29570   1.692  12.807   0.402 -0.2384  0.0170  0.1197
12047W        W29571   2.375  13.322   2.009 -0.1744 -0.3843 -0.2842
12048W        W29572  13.571   0.423   1.295 -0.0145 -0.0453  0.2719
12049W        W29573   6.207  17.378  11.413  0.2550  0.1285  0.0239
12050W        W29574   0.818   0.552  12.359  0.0154  0.0298  0.2421
12051W        W29575  10.512   3.929  14.078  0.2214  0.2089  0.0349
12052W        W29576   9.024   7.928   2.677  0.0700  0.1498 -0.2439
12053W        W29577   6.958   8.635  16.387 -0.0271 -0.1295  0.0916
12054W        W29578   2.966   6.140   0.571 -0.0620 -0.0358 -0.1137
12055W        W29579   7.026   2.689   2.149  0.1919 -0.2658  0.0687
12056W        W29580   9.484  16.472   4.451  0.0604  0.0269 -0.0714
12057W        W29581  13.607   1.735   1.021 -0.0431 -0.2442 -0.1076
12058W        W29582   6.605   9.498   0.539  0.2936 -0.6187  0.0754
12059W        W29583  16.627  12.422  15.671 -0.0332  0.2504  0.4063
12060W        W29584  13.181  17.861   3.435  0.2765 -0.0272  0.0159
12061W        W29585  11.190   9.449  15.795  0.0781  0.3801 -0.1696
12062W        W29586  17.545   1.138   2.099 -0.0227  0.2648  0.1319
12063W        W29587  14.253   8.325  15.120  0.1453  0.1428  0.1430
12064W        W29588   9.104  17.965  14.438  0.1613  0.2166  0.1310
12065W        W29589   7.838  10.571  16.128 -0.0288  0.2295  0.0479
12066W        W29590   8.839   7.185  15.444 -0.3736 -0.1358 -0.0276
12067W        W29591   3.102  13.089   0.359 -0.0815  0.0774  0.0571
12068W        W29592   5.913   0.981   4.182 -0.0265 -0.1340 -0.1936
12069W        W29593   8.509  14.163   2.435 -0.0821  0.0031  0.0748
12070W        W29594   7.295  14.543  14.588 -0.1943 -0.1364 -0.2821
12071W        W29595   1.484  12.391  12.961  0.0167 -0.1808  0.0886
12072W        W29596  15.506  14.364  13.127  0.4657 -0.3539 -0.0082
12073W        W29597  17.960   2.550   1.837 -0.0145 -0.2117 -0.0143
12074W        W29598  17.620  13.564  14.200  0.0114  0.1594  0.0220
12075W        W29599   8.164  17.253  15.854  0.1157  0.4782 -0.0078
12076W        W29600  12.102   6.927   4.017 -0.0175  0.0787  0.0707
12077W        W29601   2.149  17.008  16.171 -0.0060  0.0001  0.0123
12078W        W29602   1.583  13.423   0.749 -0.0315 -0.1390  0.3629
12079W        W29603  15.471   9.950  13.950  0.0816  0.0536  0.0781
12080W        W29604   5.821   5.880   3.208  0.1495 -0.2521  0.1588
12081W        W29605   6.534  10.451   4.363 -0.2405  0.3120  0.3473
12082W        W29606  12.043  13.931   4.974 -0.1963 -0.1745 -0.0844
12083W        W29607  15.293  17.405  15.162 -0.2271 -0.0066 -0.2637
12084W        W29608   3.577  14.559   2.068  0.0291  0.3264 -0.1669
12085W        W29609  16.373  15.157  15.785 -0.5036  0.0556  0.3774
12086W        W29610   2.262  10.608   2.242  0.1847 -0.1088  0.0175
12087W        W29611   7.281  16.521  16.228  0.2987 -0.2185  0.0373
12088W        W29612   9.734  13.707   5.146 -0.0868  0.2777 -0.0261
12089W        W29613  15.297   2.479   1.432 -0.1821 -0.2600  0.1203
12090W        W29614   5.280  10.196  14.619 -0.1090 -0.1623  0.1139
12091W        W29615   8.286   4.769   0.733 -0.0187  0.3997 -0.5177
12092W        W29616  14.552   6.067   1.029  0.1863 -0.0858 -0.0642
12093W        W29617  10.206   0.481   1.253  0.2574  0.0223  0.1363
12094W        W29618  14.225   9.629  16.064 -0.0194  0.1847 -0.0578
12095W        W29619  12.427   8.987  13.400 -0.1546  0.0248 -0.0381
12096W        W29620   2.714  13.729  13.138 -0.3246  0.0117 -0.0546
12097W        W29621  16.926  11.422  14.362  0.1001 -0.2951 -0.1763
12098W        W29622  14.562  17.383   4.348  0.0168 -0.3039  0.0577
12099W        W29623  10.202  16.695  14.950 -0.0806  0.3299 -0.0845
12100W        W29624   7.363  17.433  16.059  0.1475 -0.4528  0.0273
12101W        W29625  16.409  16.201  15.725  0.1798 -0.0749 -0.2158
12102W        W29626   4.012   6.968   4.182 -0.4429  0.1979 -0.0821
12103W        W29627  14.990   4.923   1.851  0.0911  0.2018  0.1568
12104W        W29628  17.656   2.674  14.191 -0.0122 -0.2334 -0.0389
12105W        W29629  14.115   8.140  13.631 -0.3017  0.1681  0.3388
12106W        W29630  17.397   2.952  16.130  0.2096 -0.0005  0.2142
12107W        W29631  11.823   6.219  12.138  0.0204  0.1052  0.2326
12108W        W29632   9.914  15.824   3.031 -0.0490  0.1545 -0.0625
12109W        W29633  13.098  17.714  16.043 -0.0803 -0.0188  0.0678
12110W        W29634   3.974  12.376   0.943  0.2640 -0.2081  0.4608
12111W        W29635  15.250  12.492  13.486 -0.1186  0.0308  0.0842
12112W        W29636   1.696  16.718  12.827  0.1906  0.2507 -0.1834
12113W        W29637  13.606   6.232   1.299 -0.0586  0.2800  0.2379
12114W        W29638   1.433   0.609   3.150 -0.1525  0.0807  0.1174
12115W        W29639   0.783   7.214   5.089 -0.0996 -0.1253  0.1638
12116W        W29640   9.201   0.226  13.078 -0.2606  0.0628  0.1312
12117W        W29641  13.290  17.416  12.680  0.0215  0.3232  0.1881
12118W        W29642   6.139  12.874   1.136  0.0678 -0.1566  0.0476
12119W        W29643   6.685   7.800  13.024 -0.1378  0.3661 -0.2286
12120W        W29644   7.022  15.443   1.984 -0.1265 -0.3112 -0.0134
12121W        W29645  17.232   3.588   3.283 -0.4118  0.1631  0.1235
12122W        W29646  12.644  12.544  15.040  0.1839 -0.0808  0.0473
12123W        W29647   3.891  13.849  14.078 -0.1716 -0.2226  0.1905
12124W        W29648   8.885   4.979   4.282 -0.3820 -0.0678 -0.0915
12125W        W29649  15.101  10.463  11.882 -0.1703  0.0871  0.1191
12126W        W29650   4.267  14.953   2.158  0.2561  0.2947 -0.0358
12127W        W29651   6.047  15.054  11.998  0.3213 -0.2627  0.0728
12128W        W29652   1.153  16.178  14.463  0.1493  0.0142 -0.1597
12129W        W29653  10.467  13.137  14.976 -0.0529 -0.1109  0.0841
12130W        W29654  15.875  12.842   2.455 -0.0412 -0.0495  0.1293
12131W        W29655   1.813  15.644  15.153  0.1692  0.1302 -0.0545
12132W        W29656   3.135   3.052   2.834  0.0480  0.0190 -0.0469
12133W        W29657   0.317  17.739   2.483 -0.1245 -0.0999  0.2076
12134W        W29658  10.939  13.351  13.636  0.3239 -0.0779 -0.0191
12135W        W29659   1.510  13.877  15.504 -0.2266  0.2372 -0.0832
12136W        W29660  15.453  17.502  14.655  0.0294  0.0384 -0.0277
12137W        W29661   1.911  14.799   0.988  0.6514  0.0885 -0.4573
12138W        W29662  10.397  11.471  12.474 -0.1013 -0.1659  0.2806
12139W        W29663  10.294   6.484  11.128 -0.1614  0.2077 -0.0877
12140W        W29664   0.845  15.686  11.526  0.2698 -0.2668  0.0437
12141W        W29665   4.832   1.489  12.691  0.0132 -0.2043  0.1590
12142W        W29666   3.994  17.872   2.351 -0.1039  0.0182 -0.1286
12143W        W29667   0.936   7.038  14.857 -0.0079 -0.0275 -0.1968
12144W        W29668   1.538   1.565   0.933  0.1180 -0.1623 -0.3547
12145W        W29669  11.028   7.070  16.348 -0.0144 -0.3473  0.0987
12146W        W29670   2.320  15.314  11.678  0.0620  0.0870  0.4594
12147W        W29671  14.626   5.796  13.340  0.0088 -0.0882 -0.0499
12148W        W29672  17.380   0.009  14.103 -0.0305  0.0714 -0.2519
12149W        W29673   5.917   7.495  13.645 -0.1225 -0.0851 -0.0994
12150W        W29674  14.930   1.369   2.052  0.3236  0.1740  0.0445
12151W        W29675  14.757  12.230   4.080 -0.1848 -0.2685  0.0535
12152W        W29676   3.483   7.282   0.507  0.1846  0.0799 -0.1725
12153W        W29677  13.681   3.368   1.082  0.1017 -0.1361  0.2374
12154W        W29678   7.230   7.883   5.011  0.2164 -0.2599 -0.1010
12155W        W29679  13.857   5.793  12.225  0.3070  0.2441 -0.0305
12156W        W29680  16.410  10.917  12.297 -0.1466 -0.0128  0.0401
12157W        W29681  13.942  17.183   6.420  0.0482 -0.0509 -0.2983
12158W        W29682  13.500  12.448  16.343 -0.1422 -0.2338 -0.0037
12159W        W29683  10.363   3.550  14.406 -0.2172 -0.0672 -0.1853
12160W        W29684   9.981   8.015   1.440  0.0984 -0.0421 -0.1642
12161W        W29685   5.839   0.342  15.625  0.0592  0.2991 -0.1893
12162W        W29686   0.862  16.333  16.085 -0.0653  0.1741 -0.0463
12163W        W29687   3.376   0.306  15.128  0.2943  0.4099  0.5555
12164W        W29688   5.923  10.987   2.451  0.0767  0.2977 -0.2217
12165W        W29689  14.361   9.307  14.777 -0.3873 -0.3182 -0.2403
12166W        W29690  10.662   2.542  14.039  0.0436 -0.1492 -0.0554
12167W        W29691   4.482  13.983  15.332  0.0816 -0.2267  0.2889
12168W        W29692  17.367   0.836  11.882 -0.0250 -0.4733  0.0354
12169W        W29693   4.090   7.297   3.620 -0.1784  0.0537 -0.2845
12170W        W29694  16.874  11.020  16.288  0.0476 -0.3959  0.1269
12171W        W29695  13.191  14.915  11.494 -0.3573 -0.0498 -0.1682
12172W        W29696   8.275  12.046  12.451 -0.2017  0.0901  0.1031
12173W        W29697  14.738   2.070  13.422 -0.2230  0.0907 -0.3303
12174W        W29698  12.440  12.750  16.386  0.1912  0.1388  0.1232
12175W        W29699   9.862   5.119   3.244  0.1974  0.1979  0.2959
12176W        W29700   2.331   6.836   4.258  0.2560 -0.1806  0.0366
12177W        W29701  17.482   5.204  15.575 -0.2611 -0.1737 -0.0797
12178W        W29702   1.482  10.942   2.358 -0.0442 -0.1312 -0.1192
12179W        W29703   8.446   4.830   1.259  0.2436  0.2942 -0.2917
12180W        W29704  12.303   7.077  14.713  0.0056 -0.1325 -0.0069
12181W        W29705  16.452  15.107   6.052  0.0051  0.1009 -0.1921
12182W        W29706   0.179   7.073  13.213  0.1596 -0.0371 -0.0596
12183W        W29707  17.427  15.320   2.107  0.2517  0.0796 -0.0235
12184W        W29708   5.790  15.220  13.751  0.0929 -0.4052  0.0543
12185W        W29709  14.959  13.477  12.479  0.0386 -0.0866  0.1542
12186W        W29710  16.211   3.784   4.670  0.3140  0.4138  0.1244
12187W        W29711   3.222   7.483   4.324 -0.1473  0.2553 -0.1191
12188W        W29712  10.292  10.145   4.265  0.2889  0.1708 -0.2523
12189W        W29713   1.038   7.007  11.813  0.3397 -0.0496 -0.1831
12190W        W29714   2.731  15.541   5.636  0.0481 -0.1854  0.0451
12191W        W29715  10.424   3.518   2.559 -0.1365  0.2166  0.3595
12192W        W29716   9.384  13.475   1.858  0.2093 -0.0526  0.2188
12193W        W29717   5.097   3.332  15.931  0.1922 -0.1774  0.2421
12194W        W29718  12.079   1.608  13.676  0.0114  0.2682 -0.0022
12195W        W29719  13.527   2.983   3.106 -0.0638  0.0965 -0.0856
12196W        W29720   9.781  12.379   0.033 -0.1519  0.2212 -0.3411
12197W        W29721  13.051  10.857  12.815 -0.1017  0.1361  0.0818
12198W        W29722   4.675   3.790  13.089  0.2250 -0.1677 -0.0493
12199W        W29723   0.829   2.026  15.108 -0.0132  0.1147  0.3555
12200W        W29724   9.064   7.681   0.920 -0.1336  0.2150  0.1822
12201W        W29725  10.400   5.634   5.590 -0.2371 -0.2743 -0.0845
12202W        W29726   5.361  15.151   1.044 -0.0461 -0.0945  0.1689
12203W        W29727  17.265  17.897  12.471 -0.0191 -0.2793  0.1315
12204W        W29728   4.775  13.031  13.545 -0.1297 -0.3043  0.0832
12205W        W29729  13.925   2.041  12.309 -0.0112  0.0430 -0.0540
12206W        W29730  13.744   7.961   0.866 -0.0696  0.2543 -0.1318
12207W        W29731   2.655   2.312  12.457  0.2038  0.3152 -0.1507
12208W        W29732  12.659   4.325  10.452  0.0234  0.2525  0.2420
12209W        W29733  17.128  12.384  14.438 -0.0671 -0.1339  0.1584
12210W        W29734   3.457  12.134   4.498  0.1852 -0.1039 -0.1560
12211W        W29735  14.763   7.264   2.478  0.0104  0.1014 -0.0691
12212W        W29736  10.180   3.134   4.433 -0.2676 -0.1599 -0.0482
12213W        W29737  15.217   2.677  14.020  0.0991 -0.1026 -0.0388
12214W        W29738  14.207  10.646  13.122  0.2780 -0.4018  0.0810
12215W        W29739   8.219   9.176  13.988 -0.2468  0.2455 -0.4748
12216W        W29740   7.700  16.468   5.377 -0.2284 -0.0785  0.1166
12217W        W29741  11.339   8.873   3.270  0.0943  0.0149 -0.1357
12218W        W29742  13.557  15.757   4.527 -0.2793  0.0879 -0.0377
12219W        W29743  16.284   0.051  13.399 -0.2216  0.0585 -0.2048
12220W        W29744   1.542   9.471  14.730 -0.0267 -0.3670 -0.0581
12221W        W29745   2.961   0.287  11.856 -0.3238 -0.2035 -0.3540
12222W        W29746  11.047  10.419  14.461  0.1099  0.0852 -0.1766
12223W        W29747  12.643   3.677  13.822  0.1777  0.0049 -0.1643
12224W        W29748  10.646   4.487  12.858 -0.1443 -0.3055 -0.1880
12225W        W29749   8.125  12.548  10.792  0.3652  0.1148  0.1860
12226W        W29750   3.415   2.919   3.344 -0.1497 -0.2611  0.1357
12227W        W29751   4.537   7.417  14.425  0.0739  0.0403 -0.4255
12228W        W29752   0.395   1.645   3.018 -0.2550  0.0349 -0.0336
12229W        W29753   5.882  11.546  11.791  0.0474  0.1157  0.0477
12230W        W29754   9.257   8.923   1.624 -0.2246  0.2432  0.0563
12231W        W29755   0.910  14.852  12.822  0.1118  0.1211  0.1362
12232W        W29756   1.598   2.731   3.641  0.3085 -0.3571 -0.2029
12233W        W29757  14.862   8.328   1.230 -0.0989  0.0899  0.0387
12234W        W29758   4.567   5.009   4.267 -0.1236 -0.2386 -0.1201
12235W        W29759  10.642   2.593   2.048 -0.0997 -0.0826  0.0127
12236W        W29760   9.323  17.712   3.145 -0.0068  0.2720  0.1847
12237W        W29761   9.390   7.514  14.751  0.2513  0.1630  0.1599
12238W        W29762  16.051   4.278  16.220  0.1447  0.2904 -0.2538
12239W        W29763   8.096  13.924  14.573  0.0334  0.2278 -0.0130
12240W        W29764   8.690  13.509  15.194 -0.0637 -0.3402 -0.0576
12241W        W29765   9.737  16.178   1.471  0.1464  0.3305 -0.0341
12242W        W29766   5.834  15.995   0.576  0.0794 -0.0417  0.0801
12243W        W29767  10.737  14.588   4.326 -0.1089  0.1050  0.3510
12244W        W29768  13.902   8.855  12.480 -0.5872 -0.0329  0.2102
12245W        W29769   2.997  12.768  15.773 -0.2993 -0.0839  0.0582
12246W        W29770  13.210  14.264   3.897 -0.0842  0.3959  0.1204
12247W        W29771   3.894  11.970  14.965  0.0793  0.1070  0.1229
12248W        W29772   6.455  16.443   3.849  0.3123 -0.2078  0.1988
12249W        W29773   9.655   2.285  15.987  0.0541  0.2914 -0.0220
12250W        W29774   2.345   7.394   0.323  0.4110  0.0383  0.2847
12251W        W29775  10.828  17.284  11.582 -0.1603 -0.0579 -0.0888
12252W        W29776   9.138  11.878   5.141  0.0511 -0.1739 -0.0178
12253W        W29777  17.002  15.961  12.442  0.1117 -0.2618  0.2130
12254W        W29778  16.304   8.786  11.894  0.0110  0.2079 -0.1377
12255W        W29779   1.909  11.391   3.920 -0.3595  0.0793  0.0588
12256W        W29780  10.380   4.401  14.876  0.1115 -0.1243 -0.0702
12257W        W29781   3.707   4.287   4.404  0.0706 -0.0662  0.0533
12258W        W29782   0.157   4.987  12.121  0.1579  0.1981 -0.3296
12259W        W29783   7.320   5.691  11.480 -0.1670 -0.1309 -0.0305
12260W        W29784   7.111  16.995  16.030 -0.0043 -0.0675  0.0427
12261W        W29785  14.049   0.538  15.536  0.0066  0.1724 -0.0524
12262W        W29786   5.999   3.885   2.655 -0.0971  0.2090 -0.1466
12263W        W29787   1.884  13.060  13.699  0.0599  0.1754  0.1261
12264W        W29788   7.317   2.039  10.257 -0.3309 -0.2384 -0.0115
12265W        W29789  17.663  13.955   0.631 -0.1893 -0.1667  0.1122
12266W        W29790   5.628   5.841  11.832  0.3871 -0.3439 -0.1362
12267W        W29791   8.283   7.505  15.400  0.3345  0.1214 -0.2514
12268W        W29792  10.803  14.943   1.849 -0.1948 -0.0308 -0.0043
12269W        W29793   8.787   5.076   2.650 -0.0568  0.1986 -0.0709
12270W        W29794   8.135  12.700   0.789  0.1002 -0.2228 -0.1211
12271W        W29795  13.708   2.634   3.437  0.0985 -0.0020  0.0960
12272W        W29796   7.801  12.139   2.376 -0.1942  0.0749 -0.1298
12273W        W29797   7.865   5.344  14.086  0.0874 -0.2004  0.0308
12274W        W29798   4.685   3.080   3.508 -0.0135  0.1702  0.1305
12275W        W29799   0.389   4.934   0.209  0.2261  0.0591  0.2240
12276W        W29800   2.005   2.041   0.345 -0.1584 -0.0141  0.3090
12277W        W29801   2.183   5.282   3.380  0.3309  0.0661 -0.0288
12278W        W29802   8.204  16.475  12.053  0.2733  0.1798  0.2476
12279W        W29803   7.452   8.109   2.161 -0.1245 -0.1308  0.2969
12280W        W29804  10.796  12.426   1.827 -0.0723 -0.2303  0.0297
12281W        W29805  13.534  13.587  15.855  0.1987  0.2265 -0.1092
12282W        W29806  17.593   0.259  12.627 -0.0053  0.1212  0.3091
12283W        W29807  13.406   6.591   4.181  0.1377 -0.0799 -0.0406
12284W        W29808   0.223   3.720  12.618 -0.0213 -0.2157 -0.0753
12285W        W29809   0.822  13.011  12.151 -0.1136  0.0219  0.0804
12286W        W29810  13.333   9.286  11.643 -0.0588 -0.1767 -0.2342
12287W        W29811   8.322   3.392  11.761  0.1731 -0.0765 -0.1470
12288W        W29812   8.610  11.133  14.238  0.1457 -0.0666  0.1233
12289W        W29813  13.812   2.594   1.552  0.0741  0.0452 -0.2331
12290W        W29814  12.382   4.635   5.270  0.1816  0.0805 -0.1204
12291W        W29815   8.558  17.097  13.963 -0.1754 -0.0091 -0.1727
12292W        W29816   9.311  12.406  12.432 -0.2868 -0.2440  0.0735
12293W        W29817   5.136   3.454   0.521  0.2359  0.0965 -0.2911
12294W        W29818   2.713   6.328   3.656  0.1714 -0.2545  0.1324
12295W        W29819   6.515   1.666   5.525 -0.1429  0.0100  0.0329
12296W        W29820  15.717  13.381   0.721 -0.0541 -0.0586  0.1237
12297W        W29821   0.255   3.821  14.710  0.1368  0.0746  0.1524
12298W        W29822   8.165  10.535  11.805 -0.3356  0.0734  0.3798
12299W        W29823   0.432  15.955   1.621 -0.1580  0.3734 -0.4246
12300W        W29824   3.246   7.879  10.294 -0.0500 -0.2661  0.1172
12301W        W29825  12.714   7.655  12.328 -0.2146  0.0921 -0.1323
12302W        W29826   2.345   0.189  13.487  0.0624  0.0747  0.2159
12303W        W29827   7.830  13.150  15.552 -0.1976  0.0698 -0.1321
12304W        W29828  14.328  14.589  14.606  0.2572 -0.1459 -0.0729
12305W        W29829  15.218   7.131  12.857  0.0827  0.1970 -0.2232
12306W        W29830  11.994  10.740   5.009 -0.0336  0.2362 -0.0551
12307W        W29831   9.686   4.642  15.682 -0.0252  0.1146  0.0664
12308W        W29832   4.004   6.283   5.052  0.2049 -0.1283 -0.0363
12309W        W29833   8.184  12.086  14.810 -0.0308  0.0999 -0.0670
12310W        W29834  10.303   4.027   5.011  0.1618 -0.0489 -0.1805
12311W        W29835   9.637   1.854   3.370  0.0761  0.1097 -0.2652
12312W        W29836   9.230   0.527   4.387  0.2673  0.2000  0.1264
12313W        W29837  17.706  13.124  13.979 -0.1024 -0.0078 -0.2870
12314W        W29838   2.763  17.371  16.064 -0.1031 -0.0488  0.1176
12315W        W29839   6.010  15.327   3.934  0.3668  0.0190 -0.1740
12316W        W29840  10.265   8.592  11.936  0.0794 -0.0199  0.0771
12317W        W29841   2.874  17.964   1.117  0.0027 -0.1820  0.0472
12318W        W29842   1.413   6.748  16.014  0.0787 -0.4278  0.2612
12319W        W29843  12.107  11.210  11.627 -0.0771 -0.1529  0.0784
12320W        W29844   0.885   4.655   0.857 -0.1001  0.1122  0.0355
12321W        W29845   4.396   8.781   3.754  0.2614 -0.1794  0.0223
12322W        W29846   6.427  15.958  13.329 -0.1190  0.0860 -0.0048
12323W        W29847   2.279  13.784  15.774  0.2427  0.0358  0.1079
12324W        W29848   2.482   6.829   3.608  0.0839 -0.0732 -0.2729
12325W        W29849   0.911  15.471   3.784  0.1999 -0.0171 -0.1224
12326W        W29850   4.490   8.751  15.075  0.1419  0.1331  0.2340
12327W        W29851   1.066  16.026  12.355  0.2131 -0.0250 -0.0506
12328W        W29852  12.855  12.178   2.909 -0.3032 -0.1626  0.1576
12329W        W29853   2.059  10.842  11.406 -0.0332  0.1277  0.0193
12330W        W29854   9.332   6.047   3.588  0.5023 -0.0616  0.1663
12331W        W29855  17.136  14.931  13.059 -0.0419  0.0474 -0.3005
12332W        W29856  14.371  14.285   2.004  0.2092  0.0932  0.1336
12333W        W29857  10.864  15.827   5.966 -0.0424  0.0402 -0.1548
12334W        W29858   0.312  12.906   4.579  0.0768 -0.0452  0.1743
12335W        W29859   6.225  17.024   5.672 -0.0120 -0.2538  0.0650
12336W        W29860   6.536  17.822  13.298 -0.1031 -0.2634 -0.0423
12337W        W29861  12.235   0.679  16.300  0.2459  0.0356  0.2965
12338W        W29862  15.645   8.852   1.305 -0.0881 -0.1264  0.2305
12339W        W29863   4.920  15.247   4.417 -0.1006 -0.1776 -0.1978
12340W        W29864   1.681  15.160  15.491  0.0135  0.2030 -0.1073
12341W        W29865   6.017   1.165  13.130 -0.0322  0.1185  0.0392
12342W        W29866   2.531   8.521  14.225 -0.0219 -0.1801  0.1625
12343W        W29867   5.461  17.585   2.716 -0.1330  0.1035 -0.2403
12344W        W29868   5.561   3.218  11.422 -0.1369 -0.0640  0.0290
12345W        W29869   2.821  11.379   0.059  0.4278  0.0514 -0.2819
12346W        W29870  16.137  11.990   2.632 -0.0941  0.0242 -0.0338
12347W        W29871   3.740  15.868   2.587  0.2212  0.0908 -0.1287
12348W        W29872  10.432   2.018  15.333  0.1712  0.0881 -0.4846
12349W        W29873  13.917  13.672  14.620 -0.0466 -0.0741 -0.1484
12350W        W29874   6.453  17.731   5.199 -0.1734  0.1015  0.3179
12351W        W29875   7.581   5.741  14.941  0.0733  0.1799  0.0164
12352W        W29876   4.926   7.575  16.247  0.0902 -0.0327  0.0696
12353W        W29877  11.479  17.263  16.101 -0.0236  0.2435  0.3141
12354W        W29878  11.467   9.393   2.247 -0.1580  0.2031  0.1340
12355W        W29879  11.348   3.012   2.508  0.2642  0.3053  0.0429
12356W        W29880  17.511   9.229   3.589 -0.0847  0.2012  0.1410
12357W        W29881   4.268   1.809   1.419 -0.2893 -0.1398  0.0050
12358W        W29882  10.678   1.336  14.620  0.1507 -0.0790 -0.0570
12359W        W29883  10.929   0.645   4.335  0.0411  0.0279  0.3069
12360W        W29884  13.789  10.780  14.778 -0.2599 -0.0790 -0.1982
12361W        W29885  14.645   5.353   3.135  0.2000  0.0746 -0.2811
12362W        W29886   2.742  11.622   2.359  0.0380 -0.1882  0.2412
12363W        W29887   3.699   2.558   4.537  0.2484 -0.1513  0.2755
12364W        W29888   8.258  10.396   0.472 -0.2377  0.2041  0.0831
12365W        W29889   1.097  10.165   4.202  0.1569  0.3353  0.0067
12366W        W29890  10.688   3.666  16.021 -0.3928  0.0884 -0.0336
12367W        W29891   6.908  11.391  14.454 -0.1590 -0.1606 -0.2102
12368W        W29892   9.669   3.095   3.168 -0.0818 -0.1880 -0.1652
12369W        W29893   0.951  12.661  11.781 -0.2443  0.1336  0.1321
12370W        W29894  15.496  10.653  14.648 -0.0422  0.1798 -0.1169
12371W        W29895  13.527   6.111   4.018 -0.2593  0.0281  0.3430
12372W        W29896  10.530   4.572   2.419 -0.2042  0.0109  0.1816
12373W        W29897  13.940   6.267  12.519 -0.0027 -0.1663  0.0396
12374W        W29898  17.276  13.432  13.298 -0.0146  0.0147 -0.1767
12375W        W29899   3.729   4.212   1.716  0.1282 -0.1793 -0.2738
12376W        W29900   3.314  10.627  15.221 -0.1305  0.0980  0.1399
12377W        W29901  10.465   6.184   0.082 -0.0655 -0.1297  0.0393
12378W        W29902  16.280  16.993  16.148 -0.2223 -0.0252 -0.0479
12379W        W29903   6.711  14.966  13.413 -0.1888 -0.2744 -0.0690
12380W        W29904  17.379   3.467  16.287 -0.3283  0.2465  0.1434
12381W        W29905   3.348  16.758   4.412 -0.0450 -0.0262 -0.0532
12382W        W29906  10.254  16.275   2.396 -0.4984 -0.3504  0.3858
12383W        W29907   4.316   9.425   3.465 -0.0376  0.3788 -0.3095
12384W        W29908  12.163   4.023  14.338  0.2171  0.0130 -0.1756
12385W        W29909  15.007  16.663  14.316 -0.2585 -0.1100 -0.1323
12386W        W29910  11.285  16.641   3.896 -0.2220 -0.0161 -0.1460
12387W        W29911   8.677   2.600   2.881 -0.1044  0.0718  0.3154
12388W        W29912  10.688   1.836  12.607 -0.1236  0.1739  0.0201
12389W        W29913  11.344  11.438  14.673  0.4744  0.0409 -0.2803
12390W        W29914  14.776   1.174  12.758 -0.1827  0.0884  0.1576
12391W        W29915   8.433   8.332   1.102  0.0902 -0.1074  0.0394
12392W        W29916  10.830   1.483   2.333 -0.6462 -0.2022 -0.1617
12393W        W29917   7.256  17.964   0.775  0.1255 -0.1181  0.0919
12394W        W29918  13.944   8.366   3.398 -0.0850 -0.0106  0.0437
12395W        W29919  11.607  11.970   2.075  0.2645 -0.0682  0.2593
12396W        W29920   1.397   4.440  12.815  0.1763  0.4636  0.3579
12397W        W29921  17.381   8.233   1.561  0.0949  0.2083  0.0444
12398W        W29922   2.221  10.476   0.338  0.1514  0.0826 -0.2648
12399W        W29923   9.909  12.650   2.411  0.4193 -0.1287  0.0696
12400W        W29924  15.486   5.330   3.900 -0.1115 -0.0546 -0.1698
12401W        W29925   6.241   9.332   0.071  0.0268 -0.3033 -0.4022
12402W        W29926   4.553  13.866   5.195 -0.1633  0.1417 -0.0799
12403W        W29927  17.475   5.901  12.432 -0.0089  0.1116 -0.1279
12404W        W29928   6.106   9.717   2.263 -0.4041 -0.1151 -0.2545
12405W        W29929  12.215  15.262   0.126 -0.0007 -0.1842  0.2983
12406W        W29930   8.625  12.949   4.483 -0.1959  0.2386  0.1795
12407W        W29931   7.937   1.325   2.090  0.2594 -0.0291  0.3306
12408W        W29932   3.664   5.733  15.571  0.2614 -0.1077 -0.0265
12409W        W29933   3.997   9.924  13.360 -0.0236  0.3584  0.0008
12410W        W29934  11.500  10.550   1.133  0.2087  0.1190  0.2709
12411W        W29935  17.497  17.867   5.589  0.1814  0.0938  0.0954
12412W        W29936   1.479   2.025   0.242  0.0071  0.1155 -0.0370
12413W        W29937   2.430   2.116   3.700 -0.0965  0.1013  0.2347
12414W        W29938   4.178   7.786  11.332 -0.1893  0.0330 -0.0288
12415W        W29939   0.279  11.631   2.380 -0.1354  0.3009 -0.0170
12416W        W29940  14.204  12.744   3.111  0.0460 -0.3153 -0.1597
12417W        W29941  10.739   8.963  12.621  0.0564  0.0758  0.0959
12418W        W29942   8.509   5.248   4.368  0.0035 -0.0597  0.0969
12419W        W29943   6.808   8.198  12.661 -0.1120  0.1740  0.2201
12420W        W29944  12.442   7.463   1.718 -0.0285 -0.0145  0.2324
12421W        W29945  11.133   4.001   2.683  0.0212 -0.4264  0.0034
12422W        W29946  10.795   1.095  15.501  0.1151 -0.2151  0.3738
12423W        W29947   7.664  16.069  16.335  0.0304  0.0898 -0.0186
12424W        W29948  11.299   4.995  15.755 -0.0284 -0.0450 -0.1342
12425W        W29949   8.692   0.116  11.585 -0.0619 -0.3121  0.0777
12426W        W29950  13.227   6.994   5.330 -0.1563 -0.4625 -0.0403
12427W        W29951   8.530   2.764  14.342 -0.0906  0.1648 -0.1762
12428W        W29952   1.300  12.974  14.710  0.4392  0.2341  0.0724
12429W        W29953  16.492   2.182   0.012 -0.1740 -0.0268 -0.0065
12430W        W29954   6.500  11.301  14.703  0.0818 -0.1396 -0.1095
12431W        W29955   1.123  16.119  13.316 -0.1016  0.1074  0.0220
12432W        W29956   3.883  14.023  13.200  0.4315 -0.1577  0.2447
12433W        W29957  16.711  15.741  11.980 -0.2861  0.1844 -0.0590
12434W        W29958   9.553  11.708   0.495  0.0873  0.2851  0.0109
12435W        W29959  16.974   9.779  13.880 -0.1714 -0.0497  0.0487
12436W        W29960   8.678  16.859   5.405 -0.0875 -0.3253  0.2980
12437W        W29961  15.822  13.255  15.090 -0.0770 -0.1808  0.0118
12438W        W29962   7.613  14.077  14.002 -0.1173 -0.0145 -0.0758
12439W        W29963  16.630  13.923  13.632  0.2190 -0.0542  0.2780
12440W        W29964   2.637   5.859  12.069 -0.2254 -0.2869  0.0249
12441W        W29965   8.164  14.236  15.483  0.2053  0.0196 -0.4733
12442W        W29966  14.890  17.447   3.943  0.2854 -0.0734  0.3132
12443W        W29967  10.921  11.475   5.301  0.1278 -0.4096  0.1735
12444W        W29968  11.790   8.335  11.811  0.5328  0.0953  0.0099
12445W        W29969   5.214   6.698   1.637  0.1377 -0.0858 -0.0377
12446W        W29970   6.178   6.265   4.832  0.0823 -0.1436 -0.0572
12447W        W29971  11.091   2.566  12.840  0.2782 -0.1599  0.0401
12448W        W29972  12.234   0.274  12.230 -0.3646  0.1776  0.0689
12449W        W29973  16.934   8.556  11.605 -0.2829  0.1482 -0.0818
12450W        W29974   7.684   1.267  11.390 -0.0426 -0.1784 -0.2029
12451W        W29975   4.329   3.628   2.262 -0.0031 -0.0453 -0.0309
12452W        W29976   7.166   4.873   2.007  0.0812 -0.0827  0.3278
12453W        W29977  14.380   1.598   4.567  0.2309  0.3827 -0.0042
12454W        W29978   5.657  15.189  12.479 -0.0874 -0.0558 -0.6389
12455W        W29979  14.709  11.875   3.253  0.0525 -0.1185  0.0645
12456W        W29980   8.767   3.849   4.443 -0.1156 -0.1790  0.0651
12457W        W29981   5.686   8.322  15.904 -0.0371 -0.0520  0.0305
12458W        W29982   6.862   9.381  11.082  0.0228 -0.2529  0.2277
12459W        W29983  14.956   3.273  12.831  0.1487  0.0502  0.2085
12460W        W29984   5.647  14.325  12.212 -0.0317  0.0108 -0.0016
12461W        W29985   3.564   3.213   0.498  0.1682 -0.1945 -0.0191
12462W        W29986  10.981  11.041   1.827 -0.0461  0.1450  0.2011
12463W        W29987   6.169  17.461  16.398 -0.0857 -0.0602 -0.1340
12464W        W29988  17.197   7.410  12.079  0.0661  0.1303  0.0471
12465W        W29989  13.962   9.176   1.941  0.0561  0.1532 -0.2842
12466W        W29990   3.141   4.244   1.826  0.0008 -0.3908  0.0463
12467W        W29991  12.133  10.976   1.267  0.0439 -0.3990 -0.1065
12468W        W29992   5.091   4.154   4.323  0.1263  0.2150 -0.1100
12469W        W29993  10.438   9.834  11.429 -0.0440 -0.2105  0.0767
12470W        W29994  17.239   0.056  11.879 -0.2779  0.1744  0.0674
12471W        W29995  14.418   3.299   1.533  0.1598  0.2080 -0.0215
12472W        W29996   9.146  15.318  13.593  0.1366  0.4629  0.1298
12473W        W29997  12.031   0.182  10.540 -0.0125  0.1167  0.0001
12474W        W29998  13.583  13.394   3.371 -0.4063 -0.2259  0.1404
12475W        W29999  17.190  10.961  14.386 -0.0107 -0.0909  0.3380
12476W        W30000   5.950   8.331  12.635 -0.1915 -0.2117 -0.3493
12477W        W30001   1.156   8.825  11.470 -0.1377 -0.3247 -0.2777
12478W        W30002  17.964   8.880   2.440 -0.1641 -0.1876 -0.2561
12479W        W30003   9.280   3.888  15.751  0.0322  0.0936  0.2608
12480W        W30004   5.158  12.327  11.850  0.3233  0.2035  0.0423
12481W        W30005   8.196   9.130   2.582  0.0651 -0.3932 -0.2627
12482W        W30006   1.739  16.453   5.883  0.0786  0.0696 -0.3498
12483W        W30007   1.523  11.722   1.311 -0.0371  0.1194  0.2906
12484W        W30008   3.182   5.443  15.347  0.2035  0.0410  0.2256
12485W        W30009  13.121  13.026  12.675  0.1765 -0.1901 -0.2781
12486W        W30010   7.068  10.144   0.633  0.0963  0.0753  0.1335
12487W        W30011  17.690   0.817  12.384 -0.1242 -0.0397 -0.0840
12488W        W30012   0.186   3.624   2.360  0.0303  0.2921 -0.2312
12489W        W30013   2.991   8.846   0.977 -0.0216 -0.2742  0.1206
12490W        W30014   1.616   9.876   2.410  0.1150 -0.0835 -0.1028
12491W        W30015   5.851  17.071   0.851  0.1434  0.1358 -0.0037
12492W        W30016   1.873   0.357   3.788 -0.1087  0.7211  0.0323
12493W        W30017  10.052  11.625  15.547 -0.0344 -0.2260  0.0021
12494W        W30018   4.510   4.701  12.068  0.4142 -0.0110 -0.1006
12495W        W30019  11.625   6.290  16.362 -0.0452  0.3518  0.0798
12496W        W30020   2.801  17.486   0.913  0.2772  0.0471 -0.2237
12497W        W30021  17.423  16.602   3.715  0.0716  0.0732  0.2119
12498W        W30022   7.936  13.232   4.643 -0.2767 -0.0258 -0.2272
12499W        W30023  11.646   3.483  13.572  0.3773 -0.0512 -0.0066
12500W        W30024  11.444  14.641  11.996  0.0303  0.0107 -0.0089
12501W        W30025   9.769  11.667   3.915  0.2293  0.1010 -0.0371
12502W        W30026  12.133   3.364  11.064 -0.0483 -0.1358 -0.2053
12503W        W30027  14.285  10.523  13.994  0.2161 -0.0274  0.1270
12504W        W30028   5.697  17.716  13.741 -0.3083 -0.0059 -0.2710
12505W        W30029   9.172  14.713  11.451  0.2368 -0.1270  0.1705
12506W        W30030   3.231  15.904  12.685  0.0493 -0.1067 -0.2421
12507W        W30031   8.095  15.284   3.584 -0.0440 -0.3641  0.1780
12508W        W30032   2.319  13.266  10.711  0.1197 -0.3660 -0.4330
12509W        W30033  16.951  17.006   1.421 -0.1792  0.1131 -0.0477
12510W        W30034   6.671   4.504   1.134  0.0372 -0.4041  0.3621
12511W        W30035   0.933  11.348   0.591 -0.0747  0.2922 -0.1185
12512W        W30036   1.092   9.785   5.637 -0.0487 -0.2425 -0.1371
12513W        W30037   7.171   8.152  12.346 -0.0690  0.0192 -0.2340
12514W        W30038  15.636  11.627  13.734  0.1595 -0.2024  0.1504
12515W        W30039  12.489   8.180  13.892 -0.2403 -0.1816  0.1285
12516W        W30040  10.430  11.047  13.269  0.0815  0.1454 -0.4453
12517W        W30041   7.578  16.603  11.704 -0.1393  0.0501 -0.1084
12518W        W30042   2.315  15.603  13.847  0.0472  0.1655  0.2256
12519W        W30043   5.116  15.749   3.676 -0.0724  0.1654 -0.0330
12520W        W30044  14.395   4.991   4.200 -0.1821  0.1121  0.1685
12521W        W30045  13.673   5.030   3.603 -0.2564  0.0181 -0.1136
12522W        W30046   2.803   9.567   1.554 -0.0178  0.1062  0.0367
12523W        W30047   6.157   9.230   2.507  0.0148  0.0148 -0.1015
12524W        W30048   6.933   3.701  16.008 -0.1537 -0.3580  0.1795
12525W        W30049   2.734   8.661  16.164  0.0394  0.3090 -0.2859
12526W        W30050   0.695   5.025   4.303  0.0694  0.1665  0.3654
12527W        W30051   5.229   6.408  15.018  0.1908 -0.0138 -0.0243
12528W        W30052   6.650   6.006   0.876 -0.1608 -0.1350 -0.1475
12529W        W30053   1.596  16.038   5.681 -0.0350 -0.0157 -0.0399
12530W        W30054  15.800  16.037   0.312  0.0850 -0.0476  0.0993
12531W        W30055   6.575  10.413   3.030 -0.3100 -0.3214  0.0015
12532W        W30056  10.463  16.429   1.812  0.2098  0.1957  0.4712
12533W        W30057  12.132   2.951  15.985  0.1406  0.0709 -0.1400
12534W        W30058   8.142   8.038  16.040 -0.1723 -0.1004  0.1841
12535W        W30059  11.373  11.536   2.882  0.4443 -0.0051  0.0570
12536W        W30060   7.531   4.966   1.644 -0.1559  0.4690  0.0863
12537W        W30061   4.504  11.825   1.112 -0.3957  0.1488  0.0295
12538W        W30062   6.243  10.316   0.722 -0.0452 -0.1462  0.3150
12539W        W30063  14.558  10.951   0.817 -0.0191  0.2157 -0.0129
12540W        W30064   0.736   7.111   2.533  0.1800 -0.1874 -0.1372
12541W        W30065  11.825  13.359   0.184  0.1955 -0.0978 -0.0247
12542W        W30066   5.497   9.638  12.197 -0.1485 -0.1073  0.2912
12543W        W30067  14.614   5.950  12.887  0.1296  0.1271 -0.0631
12544W        W30068   6.017  16.294   3.409  0.1618  0.3616 -0.2159
12545W        W30069   5.272   7.943  15.959 -0.2309 -0.5106  0.1694
12546W        W30070   8.694  11.814   0.747  0.1996 -0.3142 -0.2931
12547W        W30071   6.916   3.449  13.770  0.1477 -0.1900  0.3576
12548W        W30072  16.055   9.533  15.513 -0.0674  0.0951  0.2175
12549W        W30073   4.306  16.917   3.934 -0.1490  0.1152  0.0474
12550W        W30074   2.360  15.717  12.828 -0.1143  0.1374 -0.2922
12551W        W30075   1.150   0.179   3.334 -0.0924  0.1633 -0.0678
12552W        W30076  12.142   9.974  15.298 -0.2793  0.0029 -0.2537
12553W        W30077   5.107   0.850   2.030  0.3376 -0.0002  0.1703
12554W        W30078   2.808  13.568  16.155  0.2900  0.0578 -0.1476
12555W        W30079   7.925   9.180   3.140  0.1574 -0.2020 -0.2247
12556W        W30080  11.434   9.848   3.209  0.1268  0.1047  0.2432
12557W        W30081  12.465  15.656  14.577  0.0848  0.0087  0.0734
12558W        W30082  16.338   0.408  11.843  0.2486 -0.0288  0.1099
12559W        W30083  16.682  13.058   1.802 -0.0108  0.1617 -0.4037
12560W        W30084   1.776   8.883  13.458  0.0644  0.0764 -0.2362
12561W        W30085   4.948  13.109  10.848 -0.1342 -0.0155 -0.2857
12562W        W30086   4.821  16.227   1.526  0.0797  0.0750  0.0967
12563W        W30087   0.709   1.970  11.890  0.2675  0.3900 -0.0070
12564W        W30088  17.571  11.612   0.111  0.0373 -0.0673 -0.1282
12565W        W30089   9.743  16.644   0.245 -0.1119  0.2622 -0.4086
12566W        W30090  14.765   9.004   4.731 -0.1298  0.2538  0.1096
12567W        W30091   2.502   9.885  12.747 -0.3568  0.1571  0.0845
12568W        W30092   4.789  13.797  14.164 -0.1182 -0.1343 -0.1117
12569W        W30093  15.059  15.954   3.088 -0.3015  0.0196  0.0701
12570W        W30094  17.601  14.607  12.814  0.0879  0.2133 -0.0569
12571W        W30095   7.238   3.201   0.573  0.0984  0.2000 -0.2962
12572W        W30096  12.923   8.803   3.340 -0.0934 -0.1393  0.2276
12573W        W30097  11.136   2.001  13.613  0.0621  0.0483  0.1183
12574W        W30098  16.758   7.524  14.718  0.1257 -0.0869  0.2290
12575W        W30099   7.188   0.398   0.488  0.0219  0.1638  0.0169
12576W        W30100  11.946  14.833   0.292  0.2311 -0.0070  0.0918
12577W        W30101   7.897   3.778  11.058 -0.1552 -0.0020 -0.1274
12578W        W30102   9.255   5.256   1.851  0.1875  0.5238 -0.2018
12579W        W30103  11.216   9.520  11.573  0.0643 -0.1942 -0.0518
12580W        W30104  15.545   7.535  13.340  0.0305 -0.1329 -0.1396
12581W        W30105   6.740   0.731   0.966  0.1827 -0.0835 -0.4941
12582W        W30106  15.497  17.952  14.909  0.2179  0.0579 -0.1520
12583W        W30107   6.896   6.721   2.058 -0.0679 -0.0057 -0.0859
12584W        W30108   8.844   1.096  11.829 -0.0468  0.1374 -0.1453
12585W        W30109   3.133  14.648  12.728  0.1653 -0.2236 -0.1897
12586W        W30110   3.417  14.642  12.188 -0.0354 -0.2251 -0.3483
12587W        W30111   1.627   7.523  14.486  0.1137  0.0059 -0.2638
12588W        W30112   9.046   0.402   0.346  0.0943 -0.1089 -0.2411
12589W        W30113  13.150  10.505   4.566  0.2373 -0.2255  0.1188
12590W        W30114  10.559   2.021   3.113  0.2090 -0.4228 -0.0156
12591W        W30115  17.839   5.529  10.144 -0.0687  0.0625 -0.0369
12592W        W30116  15.347   5.120  14.341  0.2742  0.1593  0.2150
12593W        W30117   0.167  15.227  12.284  0.0105 -0.1503  0.3208
12594W        W30118   9.590   4.419  13.212 -0.2954 -0.0795 -0.1499
12595W        W30119   1.033   9.946   5.045 -0.0923 -0.1491  0.0079
12596W        W30120  14.041   7.684   1.156 -0.0454 -0.0796  0.3307
12597W        W30121   8.903  17.538  12.683 -0.0493  0.0677  0.0088
12598W        W30122   5.693  10.652   4.701  0.5698 -0.0558  0.1463
12599W        W30123  11.832  14.038  14.343  0.1631 -0.1272  0.1330
12600W        W30124   6.378   6.859  11.452  0.3878 -0.0188  0.2871
12601W        W30125   7.492  14.120  12.705 -0.2279  0.2060  0.0796
12602W        W30126   2.071   3.216   1.944  0.0240 -0.2469  0.0503
12603W        W30127   6.660  14.007   1.618  0.1289 -0.0935 -0.0512
12604W        W30128   4.313   5.349  12.688  0.4928  0.3106 -0.2610
12605W        W30129   5.432   4.950  14.151 -0.1338 -0.1105  0.1361
12606W        W30130  15.925   4.044   0.185 -0.2947  0.0419 -0.1584
12607W        W30131   8.934   7.849  11.877  0.1531  0.0261 -0.0981
12608W        W30132  12.994  16.542  12.030 -0.3873  0.1455  0.2086
12609W        W30133  11.919  10.981   0.091 -0.1569 -0.1606 -0.0402
12610W        W30134  17.158   2.492  14.140  0.0185  0.1714 -0.0731
12611W        W30135  15.057   9.149  15.193 -0.1123  0.3637 -0.0348
12612W        W30136   3.599   3.567  11.506 -0.1560 -0.0321  0.0590
12613W        W30137  12.444  17.697  13.807 -0.0766  0.1164 -0.0133
12614W        W30138  17.950   3.500  11.662 -0.0568 -0.1718 -0.4244
12615W        W30139  14.037  16.976   4.940 -0.1348  0.2110 -0.2288
12616W        W30140   5.079  11.106   2.147 -0.1191  0.3246  0.1101
12617W        W30141   1.721  11.479   2.484 -0.1301 -0.2808 -0.3661
12618W        W30142   2.606  14.803  15.074  0.3627 -0.3049  0.1274
12619W        W30143   9.477   9.300   5.990 -0.1297  0.2538  0.2116
12620W        W30144  14.543  13.737  13.918  0.1333  0.0025 -0.0883
12621W        W30145  13.118  16.896   4.190 -0.0767 -0.2474 -0.0643
12622W        W30146   2.163  11.593   3.067  0.4021  0.0387  0.0139
12623W        W30147  16.547   3.222  11.654  0.2706 -0.1286 -0.1994
12624W        W30148   7.422   5.677  15.372 -0.0556  0.0796 -0.4067
12625W        W30149   0.392   4.743   4.503  0.1441 -0.0968  0.1052
12626W        W30150   7.207   1.818   1.372  0.0512  0.1543  0.0554
12627W        W30151  10.699   1.606  13.676 -0.0501 -0.1490 -0.0464
12628W        W30152   7.666   7.972  15.695  0.3144 -0.2096  0.1415
12629W        W30153  16.372  14.505  12.280 -0.1316  0.2600  0.0540
12630W        W30154   6.036   0.165  11.864 -0.0197  0.0398 -0.4265
12631W        W30155  11.861  12.319   3.954  0.1168  0.1897 -0.1702
12632W        W30156  10.699   9.858   5.399  0.0924  0.0968  0.0535
12633W        W30157  12.401  14.762  14.336 -0.1665 -0.0251  0.2641
12634W        W30158  12.134   2.999  15.369 -0.0281  0.1451  0.3469
12635W        W30159   6.893  15.389  15.368  0.1445  0.0067  0.3700
12636W        W30160  14.661  13.585  10.608 -0.0813  0.3214  0.0303
12637W        W30161   8.025   3.574   3.570  0.3629 -0.1682 -0.0085
12638W        W30162   3.305   4.253  12.683  0.0195  0.1076 -0.2091
12639W        W30163   7.332   6.758   1.812  0.0564 -0.1976  0.1704
12640W        W30164   0.591  13.383  15.221  0.2274  0.0077 -0.3456
12641W        W30165  14.849   4.894  15.075  0.3265  0.0588 -0.1540
12642W        W30166  14.469  12.299  12.123 -0.3050  0.1127  0.0404
12643W        W30167  17.703   2.322  15.095 -0.0908  0.2145 -0.3136
12644W        W30168  14.776   1.635  15.239  0.1454  0.1973 -0.1374
12645W        W30169  16.185   7.619   2.739 -0.1301 -0.4415  0.2849
12646W        W30170  10.990   9.375  16.271  0.2757  0.0926 -0.3424
12647W        W30171   8.712   3.989   6.147  0.1991  0.3575  0.3252
12648W        W30172  12.101   0.463   0.672 -0.0212 -0.1715  0.0205
12649W        W30173  15.206   3.254  15.947 -0.1265 -0.0039 -0.0679
12650W        W30174  11.456   4.756  13.112  0.2343  0.0637 -0.0097
12651W        W30175   7.278   7.409   2.926  0.2011 -0.0287 -0.0195
12652W        W30176   9.329  11.325   3.882  0.0376 -0.0458 -0.0446
12653W        W30177   4.757  13.701   4.593  0.0339  0.1379 -0.0832
12654W        W30178   1.665   7.843   1.271 -0.1383  0.0574  0.0058
12655W        W30179   3.825   2.835   1.604  0.2137  0.1910 -0.0535
12656W        W30180  12.597  14.661   5.112 -0.0001 -0.2340  0.0862
12657W        W30181   1.406   1.494  15.009  0.0359 -0.1971 -0.1788
12658W        W30182   6.245   7.637  15.764  0.1696 -0.2329  0.1385
12659W        W30183  17.572  14.174  11.614  0.2267  0.0242  0.0200
12660W        W30184  16.214   6.559   1.415 -0.1304  0.1633  0.1466
12661W        W30185   7.945  16.288  11.695 -0.0447 -0.0659  0.1836
12662W        W30186   1.897  16.363   3.332  0.0182 -0.0555  0.1145
12663W        W30187  17.414   4.077   4.210 -0.0812 -0.0133 -0.0317
12664W        W30188   1.007   2.036  12.257  0.1351 -0.1089  0.0960
12665W        W30189   6.909   1.349  15.033 -0.2537  0.0744  0.0248
12666W        W30190  11.404   5.954   1.604 -0.2970 -0.0673 -0.3208
12667W        W30191  10.820  14.266   0.402  0.2812 -0.1132 -0.2243
12668W        W30192   4.477  12.770   0.886 -0.3071 -0.0580 -0.1426
12669W        W30193   2.767  11.004  12.200 -0.0147 -0.0082 -0.3505
12670W        W30194   3.045   4.433   4.766 -0.1872  0.0422  0.0201
12671W        W30195   4.255   6.896   3.346 -0.0166 -0.0338 -0.2562
12672W        W30196  10.588   3.350   4.137 -0.0289  0.0446  0.1760
12673W        W30197   2.667   1.446  13.290 -0.2506 -0.1682 -0.1054
12674W        W30198   0.305   4.439  15.492 -0.1384  0.0936  0.0181
12675W        W30199   3.730  13.741  11.718 -0.1963  0.2488 -0.2971
12676W        W30200   4.506   4.474   4.139 -0.0630 -0.0611 -0.0295
12677W        W30201   1.244   8.482   2.903  0.0550  0.0769  0.5148
12678W        W30202  17.431   5.429  15.145 -0.3007  0.1324  0.2060
12679W        W30203   7.803   8.255  11.625 -0.0232  0.2796 -0.1231
12680W        W30204  13.911  16.331   0.618 -0.2035  0.1118 -0.0585
12681W        W30205  15.468  14.185   3.751  0.2499 -0.1359 -0.2209
12682W        W30206   6.855  14.193  15.440 -0.2773 -0.1893  0.1140
12683W        W30207   7.292  13.184   1.052 -0.2764 -0.1071  0.2022
12684W        W30208   4.824  11.892  15.258  0.1695 -0.1733 -0.2793
12685W        W30209  11.268  12.613   3.153 -0.2329  0.2782  0.1318
12686W        W30210   2.854   5.267   3.290  0.0852  0.0870 -0.0219
12687W        W30211   3.244  13.712  12.854 -0.2715 -0.0919 -0.1544
12688W        W30212  15.070   6.296  15.501  0.1035  0.0451  0.1367
12689W        W30213   1.263   5.879  13.415  0.0309 -0.1539  0.0594
12690W        W30214   2.362  11.461  15.415 -0.0242  0.1453 -0.1364
12691W        W30215   7.735  15.217   1.028  0.2854  0.1116 -0.1319
12692W        W30216  14.426   6.282  13.373 -0.1299 -0.1800 -0.0930
12693W        W30217  17.867  12.986  12.025 -0.1784  0.0983  0.2143
12694W        W30218   4.462   6.199  11.480  0.0755  0.1920 -0.0699
12695W        W30219  13.838  17.114  12.417 -0.3533 -0.0810  0.1142
12696W        W30220  14.325   7.089  13.363  0.0359 -0.0951  0.0477
12697W        W30221   0.117  10.362   0.423 -0.2244  0.0171 -0.1575
12698W        W30222  13.053   9.646  15.977  0.2997 -0.1440  0.1490
12699W        W30223  10.441  14.673   1.659 -0.0371 -0.0666 -0.2029
12700W        W30224   3.825  14.022   0.252 -0.1080  0.0299  0.0619
12701W        W30225   7.713  11.562  12.858  0.0977  0.2207 -0.5239
12702W        W30226  12.185  17.074   5.225  0.0301 -0.3223  0.0755
12703W        W30227  16.402  17.681   1.236 -0.3784  0.5337  0.1649
12704W        W30228  10.336   5.596  13.692  0.2670 -0.0504 -0.2554
12705W        W30229   3.795  14.998   2.124 -0.0165 -0.3860 -0.3657
12706W        W30230  13.064   2.118  14.799 -0.4763  0.0826 -0.2282
12707W        W30231   4.925  14.944  13.215  0.0854  0.0135 -0.0020
12708W        W30232  13.439   4.141   4.544 -0.2109 -0.0218  0.2960
12709W        W30233   3.929   8.861   5.320  0.3113 -0.0866 -0.4349
12710W        W30234  11.996   3.741  11.812  0.1475 -0.0823  0.3426
12711W        W30235   8.140  16.881  15.199 -0.1418 -0.5921 -0.0227
12712W        W30236   2.097  14.494   1.380 -0.3859  0.1805  0.0538
12713W        W30237  12.225  15.685   4.376 -0.0835  0.2238 -0.3753
12714W        W30238  11.682   0.648   0.398  0.2060  0.3718 -0.2942
12715W        W30239  16.918  12.885  15.498  0.1208  0.0101 -0.0255
12716W        W30240   5.705   3.706   5.131  0.0960 -0.0818 -0.0331
12717W        W30241   9.561  12.826  14.006  0.1947 -0.2182 -0.0310
12718W        W30242   1.682  16.399   2.489  0.1203  0.0839 -0.1845
12719W        W30243   2.090  16.644   2.398 -0.0417  0.0525 -0.4403
12720W        W30244   8.810   1.850  15.297  0.3036 -0.4420  0.2159
12721W        W30245  15.299  12.513  16.363 -0.3628  0.0952 -0.0781
12722W        W30246   7.297   1.303   0.877  0.0540 -0.0574 -0.0427
12723W        W30247   0.701  13.917   2.600  0.1462  0.1001  0.1321
12724W        W30248  11.303   5.600  12.162 -0.0886 -0.2814 -0.0133
12725W        W30249   8.734  12.124   2.991 -0.3709 -0.1248  0.0410
12726W        W30250  11.085   5.402  13.038 -0.1974  0.2784  0.1824
12727W        W30251   3.771   9.605  16.066 -0.0867 -0.1269 -0.1320
12728W        W30252   0.154  15.658   4.162  0.1635  0.3372 -0.1701
12729W        W30253  17.802  16.530   2.684 -0.2735  0.0023  0.3684
12730W        W30254   5.553   3.824  11.504  0.1359 -0.0775  0.1536
12731W        W30255   1.817   9.220   4.470  0.1492  0.2612  0.0116
12732W        W30256  16.516   9.822  12.280  0.0321 -0.0130 -0.2315
12733W        W30257   2.342   3.426   4.578  0.3020  0.0533 -0.0050
12734W        W30258  14.903  17.235  14.741 -0.0651 -0.2499 -0.0785
12735W        W30259  17.488  15.082   0.181  0.3134  0.1658 -0.4024
12736W        W30260   8.262  12.130   2.552  0.2148 -0.1776 -0.2544
12737W        W30261  10.299  17.013  11.487 -0.0869  0.1109  0.1654
12738W        W30262  15.156  16.512  15.944  0.0861 -0.3082  0.0490
12739W        W30263   7.754   3.606  15.946 -0.0009 -0.0214 -0.2910
12740W        W30264  17.793   8.036  12.896 -0.1184 -0.2298 -0.0130
12741W        W30265  17.698  12.456  14.884  0.0221 -0.1248  0.0261
12742W        W30266   7.506   4.408  11.673 -0.2539 -0.0637 -0.1940
12743W        W30267  17.702   3.185  14.146  0.2159  0.0695  0.2725
12744W        W30268  17.926   4.366  11.489 -0.0635 -0.4321  0.2403
12745W        W30269  15.983   9.819   0.889  0.0963 -0.4425 -0.1309
12746W        W30270  12.931  14.977   4.849  0.3668 -0.0559 -0.1825
12747W        W30271  10.588   8.540  12.274 -0.0957 -0.1936 -0.3264
12748W        W30272  12.188  15.802  11.791 -0.1642  0.0642 -0.2056
12749W        W30273   2.983   5.412  14.354  0.0034  0.0946  0.0561
12750W        W30274  12.160   0.842   0.348  0.2469  0.2986 -0.1756
12751W        W30275   2.479  10.716  15.810  0.0914  0.3729  0.1788
12752W        W30276   8.036   7.448  11.714 -0.2294  0.0155 -0.2355
12753W        W30277   5.803  10.712  12.394 -0.0503  0.1092 -0.2043
12754W        W30278   3.359   4.006   4.667  0.1651 -0.0940  0.1175
12755W        W30279   4.689  12.746  15.752  0.1940 -0.0960  0.0999
12756W        W30280  15.947   4.364   2.019 -0.0197 -0.2066 -0.0802
12757W        W30281   9.658   1.097   5.712 -0.0925  0.1110 -0.3175
12758W        W30282   8.185   8.616  12.395 -0.0289  0.3066 -0.2267
12759W        W30283  14.672  13.902  15.091  0.2828 -0.2440  0.2508
12760W        W30284   6.463   1.010  15.792  0.1165 -0.0590 -0.0090
12761W        W30285   1.273  16.490   0.524 -0.0879  0.2673 -0.2075
12762W        W30286  15.618   3.235  12.929 -0.1633  0.2916  0.4065
12763W        W30287  16.512  16.527  16.173 -0.0238  0.1441 -0.0478
12764W        W30288  14.001  14.241  14.524  0.4163 -0.1870  0.1251
12765W        W30289  12.456  14.374   1.330  0.0812 -0.2808 -0.0383
12766W        W30290   2.614  14.126   0.940 -0.2129 -0.0700  0.0002
12767W        W30291  16.181   9.736   2.178 -0.2561  0.0510 -0.0674
12768W        W30292  11.872   9.325  13.303  0.0088 -0.0033  0.1317
12769W        W30293   9.842   9.949  12.086  0.1152  0.1163  0.1237
12770W        W30294   6.851  15.312  14.794 -0.1977  0.2851  0.1847
12771W        W30295   4.677   8.608   4.750 -0.4038 -0.1856 -0.1632
12772W        W30296   1.179   3.365  12.759 -0.4135 -0.0095  0.0995
12773W        W30297   0.225  15.913   2.373 -0.1509 -0.0353  0.0366
12774W        W30298  10.042   1.778   3.783  0.1982 -0.1092 -0.1417
12775W        W30299  14.562  17.623  15.796 -0.1956  0.1568 -0.2332
12776W        W30300  15.987  16.955  11.795  0.0906  0.2791  0.0555
12777W        W30301  12.592  16.873  16.336 -0.0632 -0.0339  0.0287
12778W        W30302  16.190   5.243   2.396 -0.1543 -0.1178  0.4963
12779W        W30303   3.216   0.127  12.975  0.1825  0.2034 -0.0714
12780W        W30304  12.728   9.697   3.664  0.3088  0.0116  0.1979
12781W        W30305   9.566  13.674   1.363 -0.2120  0.2268  0.0828
12782W        W30306  17.505   4.166   1.549 -0.1241  0.0167 -0.2085
12783W        W30307   0.165  15.549   1.961 -0.1205 -0.3309 -0.0426
12784W        W30308  15.507   1.020  15.338  0.1932  0.1573 -0.0449
12785W        W30309  14.212   9.026  12.072  0.0533 -0.0381  0.1712
12786W        W30310  15.289   6.002   0.179 -0.0254  0.0206  0.2782
12787W        W30311   6.192   9.076   1.390 -0.1633 -0.0384  0.2165
12788W        W30312   9.712  15.557   4.849  0.3836  0.0436  0.1584
12789W        W30313  15.974  10.105  15.706 -0.1271 -0.3315  0.2735
12790W        W30314  16.461  11.163  12.774 -0.0711  0.1029 -0.1599
12791W        W30315  14.227  17.625  12.524  0.0461 -0.1790 -0.1460
12792W        W30316  11.414   4.579  10.843 -0.0952 -0.1024  0.3805
12793W        W30317  16.977  13.197  12.399 -0.0190 -0.2156 -0.0770
12794W        W30318   4.012   8.964  14.270  0.0511 -0.2794  0.4011
12795W        W30319  12.425  16.728  12.052 -0.1183 -0.0743 -0.0420
12796W        W30320   2.602  17.463   6.097 -0.0817 -0.1341  0.1413
12797W        W30321   6.310   9.593   2.838  0.0102  0.0629 -0.1067
12798W        W30322  14.052   0.675  16.038  0.0385  0.1570 -0.1510
12799W        W30323  14.452   1.182   2.208 -0.0305  0.0616  0.2108
12800W        W30324  16.540   5.209   3.741 -0.3008 -0.0480  0.0717
12801W        W30325   2.721  10.405  13.599 -0.2631 -0.1924 -0.4190
12802W        W30326   5.900  14.864   4.344 -0.0878 -0.0503 -0.2261
12803W        W30327   4.060   1.926  11.439 -0.1494 -0.0112  0.0576
12804W        W30328   5.962  14.624   2.649  0.1962 -0.1644  0.0495
12805W        W30329  14.001  10.809  16.024  0.0382  0.1196  0.0650
12806W        W30330   4.979   3.407   1.448  0.1081 -0.0672  0.2439
12807W        W30331  13.144  11.748   2.987 -0.2451  0.0506  0.0348
12808W        W30332  14.002   1.473   5.060  0.1790  0.1229 -0.2346
12809W        W30333   8.559  10.084   4.564  0.3934 -0.1576 -0.0103
12810W        W30334   9.698  10.062   5.373  0.2716  0.1268 -0.1562
12811W        W30335  17.781   5.681  15.586 -0.0327  0.0513  0.1336
12812W        W30336   2.064   7.070  15.223 -0.0755 -0.1141 -0.1214
12813W        W30337  17.548  17.130  11.848 -0.2178  0.1087 -0.0509
12814W        W30338   1.308  12.633   1.777 -0.0458 -0.0409 -0.0524
12815W        W30339  17.244   9.905  10.044  0.1682 -0.3464  0.0545
12816W        W30340   4.172   2.577   2.492 -0.2787  0.0529 -0.0374
12817W        W30341   2.073   2.375  15.396  0.0232  0.1481  0.0430
12818W        W30342  17.900  17.435  14.607 -0.0419 -0.3435  0.1724
12819W        W30343   3.949   2.192  13.372 -0.1606  0.2505 -0.1849
12820W        W30344  14.343   6.676  16.434  0.0204 -0.1581  0.1969
12821W        W30345   9.126  12.326   2.735 -0.1551 -0.0519 -0.1185
12822W        W30346  15.722  13.419   2.682  0.3722  0.2199  0.0515
12823W        W30347   6.744   0.137   3.761 -0.2312  0.1386  0.1233
12824W        W30348  16.534  11.163   0.826 -0.3147 -0.3009 -0.1991
12825W        W30349  10.383   7.095  15.241 -0.0837  0.1241  0.1052
12826W        W30350  17.471   2.654  14.761  0.0405 -0.1087 -0.0659
12827W        W30351   2.308  13.158  15.050  0.1807 -0.0663  0.1011
12828W        W30352  11.303   8.353   0.607  0.1850 -0.0179 -0.0862
12829W        W30353  12.848   4.434  16.202 -0.1805  0.1741  0.1033
12830W        W30354   7.290   4.840   4.996  0.1497  0.0002  0.0217
12831W        W30355   2.068   7.764   4.556 -0.1386 -0.2310  0.0705
12832W        W30356   6.811  15.653   4.126  0.1015 -0.0916 -0.1708
12833W        W30357   5.504   8.804   1.089 -0.1899  0.0542 -0.2536
12834W        W30358  11.415   6.271  13.297 -0.0490  0.0119 -0.2733
12835W        W30359  16.256   5.578  13.914  0.1074 -0.0040 -0.3036
12836W        W30360   3.835   8.383  13.239 -0.0142  0.0734  0.3658
12837W        W30361   0.758   6.558  13.812 -0.1488 -0.1431 -0.0179
12838W        W30362   8.936  13.783   3.560  0.1797 -0.2442  0.2241
12839W        W30363  15.645  15.196   2.817  0.1259 -0.3762 -0.2253
12840W        W30364   8.832  13.252  11.034 -0.0012 -0.2134  0.0360
12841W        W30365   8.915   2.472  13.435  0.1852 -0.1103 -0.0209
12842W        W30366  12.338   1.019  11.472 -0.0144  0.2433  0.1746
12843W        W30367   3.404   8.247  14.546 -0.2411  0.0952 -0.1299
12844W        W30368   7.183  13.817  16.251 -0.3094  0.2769 -0.2061
12845W        W30369  16.830   5.958  14.771 -0.0609 -0.0334 -0.1683
12846W        W30370   0.572   7.912   3.980 -0.2544 -0.1451 -0.1006
12847W        W30371   4.961   3.437  15.390  0.2062 -0.1548  0.3936
12848W        W30372  13.515  12.764   0.298  0.1912  0.1123  0.1535
12849W        W30373   9.645  13.331  14.124  0.2078  0.2360  0.0783
12850W        W30374   6.652   0.671  11.876 -0.0358 -0.0695 -0.0329
12851W        W30375   4.186   1.010  14.141  0.0542  0.0120 -0.0170
12852W        W30376   1.601   4.818  16.084 -0.1565  0.0034  0.0818
12853W        W30377   3.599   0.504   3.283 -0.3425  0.1583 -0.2178
12854W        W30378   2.931   2.460   1.272  0.0042  0.1887  0.1041
12855W        W30379   5.950   3.703   4.423  0.1431 -0.1627  0.0742
12856W        W30380  16.172  11.465   2.233  0.1147  0.1218  0.0255
12857W        W30381  17.011   8.066   0.128 -0.2959 -0.1313  0.1119
12858W        W30382  12.384  17.955   3.043 -0.0515  0.2512 -0.4440
12859W        W30383  16.351   0.686   1.404 -0.1004  0.1021  0.0035
12860W        W30384   1.953  17.245  15.275  0.3606  0.2456 -0.1366
12861W        W30385   1.552  17.872  15.662 -0.0182  0.0959 -0.1008
12862W        W30386   2.420   4.724  14.601  0.1708  0.2058 -0.2701
12863W        W30387   1.970   0.709   0.715 -0.0743  0.1381 -0.1059
12864W        W30388  11.289  11.568   2.175  0.3438  0.1798  0.1152
12865W        W30389  10.739  15.648   0.586  0.1667 -0.0420  0.3770
12866W        W30390  17.280   6.949  14.084 -0.4492  0.2827  0.2011
12867W        W30391  12.956   4.138  11.731 -0.0564 -0.2540  0.2749
12868W        W30392   2.164   3.315  14.947 -0.2890 -0.0916 -0.0802
12869W        W30393  17.476  17.206  14.774  0.1599 -0.3154 -0.2266
12870W        W30394  15.223   3.667  16.278 -0.1820  0.1019  0.1289
12871W        W30395   1.630   2.524  15.059  0.0920 -0.3773  0.2375
12872W        W30396  11.700   0.266  11.416 -0.2736 -0.1540 -0.0998
12873W        W30397   1.050   3.688  16.322 -0.0115  0.0708 -0.1864
12874W        W30398   2.895   8.941  13.550 -0.1158  0.3203 -0.3318
12875W        W30399  12.923  11.323   4.039  0.1077  0.0607 -0.0986
12876W        W30400   8.310   1.399   4.051  0.0298  0.0374 -0.0145
12877W        W30401   4.845  10.139  11.395 -0.1051  0.4600  0.0448
12878W        W30402   7.942  12.470   4.610  0.1854 -0.0554 -0.0229
12879W        W30403   1.282   6.595  14.305  0.0092 -0.0626 -0.0303
12880W        W30404  10.312  16.023   4.344  0.1285  0.1359 -0.1299
12881W        W30405  10.791  15.942   4.627  0.0604 -0.1002  0.3905
12882W        W30406  14.352  15.511   5.100 -0.1026 -0.0798  0.0533
12883W        W30407  11.502   2.777  13.103  0.5216  0.1900 -0.1613
12884W        W30408  13.515  10.179  14.197  0.2945 -0.1401  0.1084
12885W        W30409   2.594  12.754  12.790  0.2359  0.1309  0.1882
12886W        W30410  15.327   8.268  14.305  0.0174  0.1953 -0.4056
12887W        W30411   8.116   0.975  14.725  0.0484  0.2214  0.1682
12888W        W30412  14.027   2.635  14.696  0.1145 -0.0981  0.0840
12889W        W30413   5.548  14.738   1.299 -0.1622 -0.0934 -0.2937
12890W        W30414  15.797   4.209  12.523  0.2446  0.1183  0.3216
12891W        W30415   7.273   9.587  13.830  0.2028 -0.2578  0.1586
12892W        W30416  16.559  10.289  12.067 -0.2196 -0.2575 -0.4222
12893W        W30417  11.180  17.217   1.040  0.0430 -0.1164 -0.1933
12894W        W30418  17.945   1.636  15.925  0.1827  0.0212  0.0133
12895W        W30419   0.579  15.724  15.294 -0.1526  0.2885  0.2054
12896W        W30420   2.936   5.795  12.567  0.1323  0.1725 -0.1245
12897W        W30421   1.425  10.518   3.042 -0.1152  0.0740 -0.2427
12898W        W30422  17.188   4.576   2.780  0.0696 -0.4237 -0.0819
12899W        W30423  10.108   7.616   3.380 -0.2907  0.3807  0.1162
12900W        W30424   0.558   0.604   0.649  0.2207  0.3629  0.4010
12901W        W30425   2.085   9.940   2.633 -0.3055  0.0895  0.1173
12902W        W30426  15.165   6.458  14.045  0.4633 -0.1784  0.0552
12903W        W30427   4.259  17.753  15.543 -0.1070  0.0464  0.2361
12904W        W30428   2.633  16.608   0.363 -0.1593 -0.0430 -0.0905
12905W        W30429  10.423   2.527  15.695 -0.2310 -0.1235 -0.0367
12906W        W30430  10.814   8.587  15.221 -0.2512 -0.0844  0.0025
12907W        W30431  13.456  12.607   2.958  0.1990 -0.0934  0.0599
12908W        W30432  15.408   8.454   2.553  0.0844  0.2980  0.0432
12909W        W30433  16.376   8.532  13.965 -0.0446  0.0238  0.0446
12910W        W30434  17.656   3.389   3.061 -0.1278 -0.1731  0.1562
12911W        W30435  12.419  16.696   3.441  0.0805  0.2204  0.1032
12912W        W30436  16.078  13.135   2.907  0.0284 -0.1061 -0.2841
12913W        W30437  16.518   2.883  14.988  0.2130 -0.1712  0.2277
12914W        W30438   1.800   6.740  12.676  0.0368  0.2736 -0.0493
12915W        W30439  16.094   2.713  13.514  0.3192  0.1775  0.0084
12916W        W30440  15.125  11.985   1.204  0.2471  0.3090 -0.1882
12917W        W30441  17.725   7.653  16.116 -0.0902 -0.2082  0.0025
12918W        W30442   2.930  10.679  11.798  0.0337 -0.1098 -0.3511
12919W        W30443   8.356  17.492  11.014  0.1195  0.4746  0.2446
12920W        W30444  16.342  12.378  12.483  0.1329 -0.2082  0.1053
12921W        W30445   9.336  13.961  12.888  0.1073 -0.1556  0.3473
12922W        W30446   5.305   7.385   2.889  0.0584 -0.0817 -0.1337
12923W        W30447   3.225  10.000  11.060 -0.0829 -0.0241 -0.4877
12924W        W30448   3.139   3.368  12.323 -0.0102  0.0593 -0.0016
12925W        W30449  11.822  17.133   0.643 -0.1343 -0.0479  0.0370
12926W        W30450   5.306  11.730   2.677  0.0642  0.0173 -0.2528
12927W        W30451  13.786  10.023   3.305 -0.1790  0.3664  0.0284
12928W        W30452   0.485   8.195  14.597 -0.1042 -0.4899 -0.1519
12929W        W30453   3.797   0.696   0.574  0.0330 -0.3290 -0.1429
12930W        W30454   6.312   8.868  12.192  0.0011 -0.3158 -0.0972
12931W        W30455  16.836   8.416   2.975  0.2929 -0.1136 -0.1607
12932W        W30456   4.618  10.242  15.274  0.2926  0.2146 -0.0973
12933W        W30457  17.530   2.119   1.149  0.1153 -0.0361 -0.2337
12934W        W30458  13.691  12.398   0.564 -0.1332 -0.3259 -0.0422
12935W        W30459   0.902   1.488  15.106  0.0805  0.2300 -0.1572
12936W        W30460   6.525  14.452   2.736 -0.0079 -0.0323  0.3627
12937W        W30461  10.473   8.254  16.069 -0.0098 -0.1817  0.2629
12938W        W30462   6.630  12.153   1.360  0.4269  0.1405  0.2019
12939W        W30463  14.534   2.130  15.466 -0.0118 -0.0447 -0.0789
12940W        W30464   9.235   4.089  13.151  0.2440 -0.3115 -0.1266
12941W        W30465   1.440  17.452  13.053  0.1975  0.1864  0.2332
12942W        W30466  10.496  16.722  16.236 -0.0297 -0.1410 -0.0130
12943W        W30467  15.945   7.156  16.039  0.3354 -0.0569 -0.1758
12944W        W30468  11.957  16.955  16.121 -0.1273  0.1784  0.1491
12945W        W30469   1.904  13.950   1.242 -0.0752 -0.1321 -0.3426
12946W        W30470   0.391   4.264  14.865  0.1493 -0.0909  0.1259
12947W        W30471   8.595   9.611   4.746  0.0252 -0.0695 -0.1278
12948W        W30472   3.901  11.979  13.995 -0.1014  0.1630  0.2793
12949W        W30473   9.761  10.472   3.576  0.0497 -0.0093 -0.0066
12950W        W30474   0.424   2.924  14.835  0.1459  0.2710 -0.2646
12951W        W30475   2.882   8.584   2.260  0.0655  0.0951 -0.1112
12952W        W30476  15.510  15.889   2.366 -0.3058 -0.0617 -0.0147
12953W        W30477   1.628  14.144  13.738  0.3556 -0.1087 -0.0006
12954W        W30478   2.017   8.650  15.022 -0.0210  0.3857  0.1413
12955W        W30479  12.179   7.880   2.635  0.0194  0.1379 -0.0561
12956W        W30480   1.094   1.199  16.355 -0.2818  0.3574 -0.1716
12957W        W30481   0.862  12.712  15.602 -0.2917 -0.3166  0.1434
12958W        W30482   4.911  13.661   0.999 -0.4017  0.1637  0.2184
12959W        W30483  11.444  13.733   0.337 -0.0677 -0.1767 -0.0754
12960W        W30484  11.504   1.971   0.856  0.1873  0.3794  0.0424
12961W        W30485   7.412   1.983   3.511  0.2945  0.0688  0.1996
12962W        W30486   8.511  14.076  11.811 -0.0107 -0.1465  0.1515
12963W        W30487  10.218  14.922  13.751 -0.1862 -0.0293 -0.0203
12964W        W30488  17.615  15.374   4.712  0.2242 -0.2287  0.1827
12965W        W30489   2.933   3.119  13.369 -0.1564 -0.1417  0.1036
12966W        W30490   8.618  17.946  14.447  0.1458  0.0249  0.1082
12967W        W30491   8.232   2.473   4.109 -0.2720  0.0640 -0.1104
12968W        W30492  10.122   9.860  14.588  0.0659  0.1191 -0.1180
12969W        W30493   4.003   8.173   3.607  0.1593  0.0134  0.0278
12970W        W30494   2.654   3.979   1.722  0.0601  0.0014  0.0303
12971W        W30495   7.491  14.779   0.866 -0.2617  0.0348 -0.0773
12972W        W30496  10.408  14.802   4.590 -0.1190  0.0754 -0.1752
12973W        W30497   0.664   0.389   3.011 -0.0471  0.3538 -0.1583
12974W        W30498   6.090   5.097   0.647 -0.4191  0.0432  0.1174
12975W        W30499   9.023  11.875   0.355 -0.1230  0.0565 -0.0551
12976W        W30500   6.645   8.198   1.082  0.0105 -0.0386 -0.1598
12977W        W30501   1.971  16.093  11.282  0.2408  0.2029  0.2330
12978W        W30502   4.366  14.900  12.063  0.1138 -0.3582  0.0416
12979W        W30503   5.782   2.265  13.265 -0.0651  0.0482  0.0197
12980W        W30504  10.530  17.849   1.211  0.3053  0.3368 -0.0254
12981W        W30505   3.088  14.378  16.145  0.3899  0.2511  0.1219
12982W        W30506   4.862  15.240  16.361  0.4212  0.0007 -0.2313
12983W        W30507   9.652   4.174   0.481  0.0611 -0.1534 -0.0844
12984W        W30508   4.633  17.363  14.546 -0.1054 -0.3644 -0.0739
12985W        W30509   1.130  10.059  11.746 -0.1421  0.1594 -0.1536
12986W        W30510  13.310  15.617  15.114 -0.2730  0.0880  0.2217
12987W        W30511   7.956  11.532  11.529  0.0271 -0.2320 -0.3781
12988W        W30512   8.637   2.377  15.881 -0.3216  0.0706  0.2056
12989W        W30513   2.351   3.811  15.624  0.0276 -0.1170 -0.1361
12990W        W30514   5.912  14.991   1.667  0.2440  0.0479  0.4636
12991W        W30515   3.460  15.690   1.372 -0.1651 -0.1090  0.3134
12992W        W30516   0.253  13.862   2.000 -0.2240 -0.2464 -0.0836
12993W        W30517   4.276  12.974  11.714  0.0606  0.1748 -0.0590
12994W        W30518  17.468  11.218   2.642  0.0790 -0.0680 -0.2954
12995W        W30519   8.455   9.970  16.292  0.0391 -0.2146 -0.0854
12996W        W30520   4.919  11.659   2.350  0.0384 -0.0845 -0.0105
12997W        W30521  14.684  17.548  14.040 -0.0763  0.4084  0.0822
12998W        W30522  15.425  13.886   4.183  0.1418  0.0332 -0.0498
12999W        W30523  14.984   2.215   3.695  0.0561  0.0199 -0.2144
13000W        W30524  17.842   6.567   0.995  0.1992  0.3232 -0.2317
13001W        W30525  12.787   1.434   0.915  0.1763 -0.2139 -0.3408
13002W        W30526  17.448  13.917  13.436 -0.4869  0.2055  0.1007
13003W        W30527  14.762  16.628   3.501 -0.0122  0.1580  0.0037
13004W        W30528  17.706  15.646  13.123 -0.1447 -0.2252  0.1106
13005W        W30529   2.184  17.552   4.494 -0.0283  0.4040 -0.1098
13006W        W30530   7.458  12.104  16.460 -0.0929  0.0075 -0.0165
13007W        W30531   3.549  10.274   1.385  0.1520 -0.1262 -0.0250
13008W        W30532   1.241  12.980   2.651  0.1351  0.0536 -0.2871
13009W        W30533   2.841   5.909  11.611 -0.1919 -0.5249 -0.2289
13010W        W30534   2.119   6.782  14.788  0.1212  0.1181  0.0794
13011W        W30535  16.474  17.524   0.284  0.0990  0.0046 -0.3357
13012W        W30536  11.825   1.539   1.035  0.0328  0.2657  0.1164
13013W        W30537   5.913   3.520   1.793  0.0313 -0.1486 -0.0655
13014W        W30538   1.112  11.349  11.640  0.1539 -0.0438 -0.1125
13015W        W30539  17.707  16.536   3.162  0.2347 -0.1347  0.0356
13016W        W30540  17.402  12.095   5.779  0.0779 -0.0029 -0.1746
13017W        W30541   3.079  17.128   3.443 -0.3658  0.1878 -0.3970
13018W        W30542   6.005  13.366   1.034 -0.1927 -0.1710  0.1436
13019W        W30543   0.406   5.487  13.365  0.0678 -0.0931 -0.2121
13020W        W30544   4.602  15.834  12.522 -0.0219 -0.0382 -0.0770
13021W        W30545   3.910   8.260   0.636  0.3197  0.0924 -0.4151
13022W        W30546  13.751   2.409   2.247  0.0524  0.0484 -0.3320
13023W        W30547   6.812  13.337   3.899 -0.2827 -0.1688 -0.3527
13024W        W30548  11.142  16.341  14.683 -0.0060 -0.1929 -0.0531
13025W        W30549  17.774  16.242   3.591  0.1531 -0.3228 -0.0705
13026W        W30550  15.371   4.701  11.910 -0.2317  0.0380 -0.0424
13027W        W30551  15.955   6.356  15.618  0.1916  0.2548 -0.0351
13028W        W30552   2.797  10.848   3.960  0.0675  0.0873 -0.0853
13029W        W30553  10.379   1.517   1.523  0.1983  0.1313 -0.0567
13030W        W30554   1.260  12.134   4.007  0.1898  0.0888 -0.1972
13031W        W30555   8.861  10.060  14.506 -0.2505 -0.2555  0.0929
13032W        W30556  13.620   3.427  15.124  0.0993  0.2027  0.2707
13033W        W30557   6.667  15.451  13.586 -0.0694 -0.0555  0.2101
13034W        W30558   3.722   1.290   4.654  0.3876 -0.2607  0.1544
13035W        W30559  17.730   0.782   3.158  0.0629  0.1612  0.1079
13036W        W30560  11.481   8.929   4.144  0.2482 -0.1981 -0.0281
13037W        W30561  11.549   1.020   1.215  0.1045 -0.0214 -0.1715
13038W        W30562   3.220   2.392   0.267 -0.2293  0.2284 -0.1881
13039W        W30563  13.750  15.584  15.475 -0.3103 -0.0034  0.0938
13040W        W30564   9.322   7.960  14.884 -0.2289  0.2251 -0.0618
13041W        W30565   9.359   2.542  11.415  0.1883  0.0719 -0.0465
13042W        W30566  17.224  14.360  13.164 -0.0172 -0.1060  0.1888
13043W        W30567  14.319  11.610  14.783 -0.3232  0.0410 -0.0356
13044W        W30568  13.221   3.485  13.025 -0.1061 -0.1312  0.0268
13045W        W30569   3.694   5.811  11.973 -0.0833 -0.0811 -0.1660
13046W        W30570  11.662   1.091   2.709  0.0602 -0.1305  0.1296
13047W        W30571   2.129   7.749  14.581  0.4734  0.2309 -0.1632
13048W        W30572  11.707   9.424  13.751  0.1349 -0.0026 -0.0537
13049W        W30573  15.369   8.972  11.691 -0.1839  0.1712 -0.2389
13050W        W30574   3.856   1.579  11.665 -0.0773  0.2921 -0.0664
13051W        W30575  14.632  17.813   2.189 -0.0360  0.2686  0.1568
13052W        W30576   7.455   8.115  13.376 -0.0687  0.1375  0.1084
13053W        W30577   2.946  13.378   4.805 -0.2651  0.2001 -0.2927
13054W        W30578   2.553   6.072   3.148 -0.1554  0.0695  0.2157
13055W        W30579  11.835  10.403  13.618 -0.0985 -0.1413 -0.0031
13056W        W30580  15.547  13.979  13.536 -0.3301  0.1751  0.4547
13057W        W30581  15.598   7.141   5.454  0.0021 -0.1051  0.0544
13058W        W30582   8.553   2.343   3.715  0.3501 -0.2570  0.0247
13059W        W30583   2.606  11.819   2.835  0.0759  0.0962 -0.0033
13060W        W30584   1.972   6.962   2.389 -0.0910  0.0248 -0.0271
13061W        W30585   8.962  16.566   2.790  0.0226  0.0626 -0.0591
13062W        W30586   4.706   7.055  13.677  0.0983 -0.1402 -0.0436
13063W        W30587   8.410  16.979  14.757 -0.1520  0.2019 -0.0082
13064W        W30588   0.230  13.782  15.031  0.0257  0.1009 -0.1959
13065W        W30589  15.461  10.816  11.382 -0.0035  0.0642 -0.0749
13066W        W30590   1.503  17.946   3.892  0.1843 -0.0747  0.1375
13067W        W30591  13.740   8.445  15.609 -0.1133 -0.5061 -0.0295
13068W        W30592  16.153   7.947  14.808  0.3907 -0.1478  0.0673
13069W        W30593   2.113   4.891  13.616 -0.2107 -0.0272  0.0555
13070W        W30594   5.854  17.597   1.668 -0.0449 -0.0372  0.2156
13071W        W30595   7.338   5.378   5.130  0.0212 -0.2468  0.1849
13072W        W30596  13.120  14.604  11.966 -0.0399 -0.2664  0.0826
13073W        W30597   1.747  16.349   0.107  0.0078 -0.0389  0.0217
13074W        W30598  14.275   0.418   0.891 -0.3652  0.1373 -0.2852
13075W        W30599   6.137   7.243  13.161  0.2104  0.4523 -0.1161
13076W        W30600   9.571   5.032   0.469  0.1429  0.2716  0.2552
13077W        W30601  13.399  10.403   0.837 -0.0861  0.2365  0.2090
13078W        W30602   4.617  15.850  12.032 -0.1817  0.1794 -0.2317
13079W        W30603  13.111  10.693   1.647  0.1046 -0.1231 -0.1307
13080W        W30604  16.459  13.539  11.511  0.0636  0.3257 -0.1681
13081W        W30605  14.909  12.897   3.936  0.1351  0.2418  0.0370
13082W        W30606  14.581   7.370  12.536  0.1991 -0.0632  0.0141
13083W        W30607   7.036   0.008   4.137 -0.1389  0.2743  0.3336
13084W        W30608  11.709   8.343  13.612  0.4135 -0.0314 -0.1746
13085W        W30609   1.817  12.251  14.908 -0.1922  0.0856 -0.2586
13086W        W30610   9.854   2.779   1.930  0.4257 -0.1561  0.0454
13087W        W30611  15.978   3.649   3.104 -0.1380 -0.2268 -0.0932
13088W        W30612   1.120   1.920   3.633  0.3694 -0.1594  0.2791
13089W        W30613   0.442   0.186  16.350 -0.0431 -0.4100 -0.1101
13090W        W30614  13.317  14.705   1.415 -0.2223 -0.3749  0.0127
13091W        W30615  17.404  12.864  12.331 -0.1175 -0.0252  0.2068
13092W        W30616   0.912   0.339  13.725 -0.3081  0.0824 -0.2874
13093W        W30617  12.478  14.881  12.063  0.2058 -0.0665 -0.2274
13094W        W30618   8.827   3.822   1.903  0.0600 -0.3043  0.1135
13095W        W30619   8.442   3.587   0.755 -0.2779 -0.0183  0.1273
13096W        W30620   6.744   0.105  12.940 -0.0900  0.0445 -0.1736
13097W        W30621  10.816  17.636   5.739 -0.1736 -0.0093  0.0129
13098W        W30622   1.881  11.293   1.283  0.1177 -0.1228 -0.1185
13099W        W30623   1.090   5.188  15.829  0.1688 -0.2125  0.1132
13100W        W30624   5.570   0.139   0.192 -0.0049 -0.1446  0.2373
13101W        W30625  14.271  11.745  12.383  0.0571 -0.1122 -0.1886
13102W        W30626  10.077  15.558   4.457 -0.2038  0.0214  0.2011
13103W        W30627  13.607   1.642   3.259  0.1109 -0.0066  0.1406
13104W        W30628   1.424  13.941  13.214 -0.0896 -0.1670 -0.0765
13105W        W30629  13.400   6.054  15.332  0.0782 -0.2853 -0.1394
13106W        W30630  10.050  15.620  11.950  0.0102  0.2850 -0.1016
13107W        W30631   9.565   6.703   4.094  0.2286 -0.0264  0.1120
13108W        W30632  12.697   1.447   4.031  0.0081 -0.1440 -0.1978
13109W        W30633   1.868   3.954   3.925 -0.1381 -0.1609 -0.2139
13110W        W30634   7.531   9.432   2.338  0.4001 -0.1037 -0.0791
13111W        W30635  10.870   9.315  12.035 -0.1604 -0.2437 -0.2192
13112W        W30636   8.747  13.012  16.023  0.0946  0.0697 -0.0013
13113W        W30637  10.751   3.366  13.095 -0.3484  0.0204  0.0167
13114W        W30638  12.262   4.042  13.707 -0.0699  0.0386  0.1368
13115W        W30639  14.265   4.394   5.294  0.1342 -0.0042  0.1165
13116W        W30640   8.210   2.368   4.645  0.1130 -0.0477  0.2463
13117W        W30641  17.375   7.701  13.188  0.0193  0.2208 -0.0253
13118W        W30642   4.572   8.442   2.841 -0.0097  0.1218  0.1619
13119W        W30643   2.711  15.608  14.153  0.1087 -0.0571  0.0317
13120W        W30644  10.599   5.730   4.557 -0.3182  0.1083 -0.1148
13121W        W30645  11.382   1.429  13.635 -0.0850 -0.1059 -0.1685
13122W        W30646   7.788   1.774   2.174  0.1606 -0.0807  0.0614
13123W        W30647   2.673   9.440   4.425  0.2172  0.0473 -0.0582
13124W        W30648   4.870   5.514   0.298 -0.0990 -0.3813  0.1359
13125W        W30649   6.739   2.440  13.312 -0.0756 -0.2554  0.2380
13126W        W30650   1.644   8.158   4.540 -0.2509 -0.2892  0.0579
13127W        W30651  12.793  13.868   3.159  0.2692  0.1332 -0.1419
13128W        W30652   2.220   6.216   3.592  0.0287 -0.4866  0.1226
13129W        W30653  16.457   0.057  15.373 -0.4729 -0.1694 -0.1128
13130W        W30654  12.904   3.290   3.616  0.1669 -0.1166 -0.0353
13131W        W30655  11.209  13.087  15.964 -0.0196 -0.2185  0.1955
13132W        W30656   2.545  10.216   0.629 -0.1380 -0.0864  0.1736
13133W        W30657  17.064   9.101   3.810  0.3127 -0.1359 -0.1179
13134W        W30658   7.231   6.012  15.745 -0.0455  0.0324 -0.3398
13135W        W30659   4.996  15.980   0.785  0.1945 -0.1148  0.1870
13136W        W30660   7.940  15.525  13.004  0.0883  0.4634  0.2179
13137W        W30661   9.114  16.826  13.209  0.0739  0.0063  0.0326
13138W        W30662   6.502   5.579   1.034 -0.1031  0.1362 -0.1076
13139W        W30663   4.387   8.610  14.533  0.0425  0.0998  0.2044
13140W        W30664  16.541  14.719  14.429 -0.1406 -0.0146 -0.0184
13141W        W30665  13.964  17.851   2.855  0.2949 -0.0442 -0.1221
13142W        W30666  17.681   4.085   0.394 -0.3588  0.1460 -0.2335
13143W        W30667  15.618   8.451   0.011  0.0361  0.2072 -0.0530
13144W        W30668   6.631   4.317  14.276 -0.2013 -0.1335  0.0292
13145W        W30669  13.898   2.053   1.324 -0.0481  0.1041 -0.1396
13146W        W30670  10.426  14.220  11.903  0.1140 -0.0089 -0.3012
13147W        W30671  14.713   0.983   3.271 -0.3185  0.1614 -0.0593
13148W        W30672  10.973  17.859   4.870 -0.0461 -0.3837 -0.0326
13149W        W30673   6.604  17.548  12.315  0.0670 -0.0434 -0.0795
13150W        W30674  15.267   3.620  15.456 -0.3167  0.2113 -0.1119
13151W        W30675   1.793   4.784  11.469  0.1098  0.1830 -0.0047
13152W        W30676   8.029  17.403   2.759 -0.1953 -0.0913 -0.1064
13153W        W30677   3.242   5.281   1.300 -0.4727 -0.2174 -0.1638
13154W        W30678   2.208   5.461  14.788  0.1979  0.1339 -0.0920
13155W        W30679   6.911  16.211  11.326  0.4237  0.1507 -0.2793
13156W        W30680   3.915  12.859   1.066  0.0673 -0.4205  0.2666
13157W        W30681   0.888   7.091  15.983  0.0486 -0.0479 -0.0152
13158W        W30682   6.782  15.239   0.998  0.1484 -0.0265  0.0713
13159W        W30683   7.775  11.730  12.338 -0.0826  0.0664 -0.1909
13160W        W30684  15.737   7.543  14.766  0.0510  0.1005 -0.2054
13161W        W30685   8.411   3.928   4.911  0.1640 -0.0856  0.1395
13162W        W30686  14.239   0.301  13.536 -0.2275  0.0165  0.0239
13163W        W30687   0.357   6.808   2.520 -0.2463  0.0273 -0.0941
13164W        W30688   4.703   1.626   2.192 -0.1612 -0.3281  0.2218
13165W        W30689   1.447   6.754  12.146  0.2265  0.0068  0.1526
13166W        W30690   0.122  15.047  14.764  0.1403  0.1864 -0.3624
13167W        W30691  14.616   0.553  12.752 -0.0038 -0.1458  0.2147
13168W        W30692   3.403  16.588   4.963  0.0055 -0.0282 -0.0237
13169W        W30693   1.618   6.888   4.172 -0.3818  0.3791  0.1165
13170W        W30694  11.058  12.045   2.918 -0.0458  0.0953 -0.2198
13171W        W30695  11.903   3.718   3.701  0.0298  0.0121 -0.2103
13172W        W30696   3.756   4.553  16.186  0.2787  0.1918  0.0615
13173W        W30697   8.468   8.146  13.122 -0.3261  0.0554  0.0471
13174W        W30698  16.666   4.696  11.399  0.3618  0.0423 -0.1665
13175W        W30699   0.910   5.880   3.812  0.0344 -0.0180  0.1543
13176W        W30700  15.564   0.594  13.697  0.0307  0.1466 -0.0703
13177W        W30701   5.416  11.385   3.029  0.1825 -0.1361  0.3660
13178W        W30702  15.703  10.050   0.515 -0.2399 -0.0761  0.1207
13179W        W30703   7.175   7.558   0.749  0.1797 -0.0492  0.0646
13180W        W30704  12.460  16.046   1.454 -0.0086 -0.1665  0.1545
13181W        W30705  14.337  15.829  12.608 -0.0263  0.1659  0.1801
13182W        W30706   0.416  14.889   4.394  0.0290 -0.3712 -0.0935
13183W        W30707   1.728   0.772  11.877  0.1967  0.3241  0.2559
13184W        W30708   7.861   2.575   1.456 -0.3174  0.1883  0.1244
13185W        W30709   4.915   2.820  13.874  0.0886 -0.3410 -0.4167
13186W        W30710   8.237   0.106   4.657 -0.0734 -0.0689 -0.1611
13187W        W30711  17.842   9.753  15.281  0.1722  0.1033 -0.1375
13188W        W30712  13.079  15.660  13.637  0.4118 -0.1486 -0.1472
13189W        W30713  11.304   3.341  14.054  0.1260 -0.1511 -0.2525
13190W        W30714   9.894  16.169   5.880  0.2270  0.0666 -0.1404
13191W        W30715   8.634   2.949   3.296 -0.1156  0.0679  0.0409
13192W        W30716  15.416  17.371  15.679 -0.1499 -0.2359  0.1073
13193W        W30717  10.823  12.031   0.943  0.0015  0.2426 -0.1139
13194W        W30718   9.743   7.451   3.720  0.1388 -0.1818  0.0032
13195W        W30719   8.043   4.605   4.194  0.0927  0.1909 -0.1522
13196W        W30720  17.165   6.059  11.358  0.0302 -0.2315 -0.3993
13197W        W30721  13.558   0.434   3.677  0.2595  0.1342 -0.2863
13198W        W30722  17.878   6.754  12.683 -0.0050 -0.0910  0.0703
13199W        W30723  17.767   7.604   4.082  0.2164  0.2386 -0.0714
13200W        W30724   5.428   6.978   1.976  0.0355 -0.1365  0.1513
13201W        W30725   2.799   9.907  10.839  0.4974 -0.0174 -0.1089
13202W        W30726   2.668  16.236   1.124 -0.0711 -0.1285  0.2724
13203W        W30727   7.450   4.871  14.757 -0.3282 -0.0510 -0.2999
13204W        W30728   0.809  10.304   1.646 -0.1825  0.2160 -0.0356
13205W        W30729  13.719  17.179  12.919 -0.3038  0.1247  0.2905
13206W        W30730   6.900   7.359  12.833  0.2421 -0.1312 -0.1414
13207W        W30731  15.804  11.753  15.137  0.0941 -0.0169 -0.0798
13208W        W30732   4.877  14.057  12.131 -0.3993  0.0252 -0.2640
13209W        W30733  17.427   1.279   4.952 -0.0896 -0.0800 -0.0741
13210W        W30734  13.962   5.269  12.879  0.1086 -0.0448  0.1440
13211W        W30735  16.840   0.009  13.366 -0.4182  0.1003 -0.2269
13212W        W30736  17.757   2.006  16.301 -0.1154 -0.0786  0.0522
13213W        W30737  17.533   8.119   0.224 -0.3708 -0.1063 -0.3046
13214W        W30738  12.408  12.120   4.494  0.1267  0.0042  0.1067
13215W        W30739   0.872  13.462  14.396 -0.3124  0.2301 -0.1205
13216W        W30740   9.595   1.785  13.450  0.1165 -0.0625 -0.0252
13217W        W30741   3.535  15.170  14.656  0.4315  0.2154  0.2925
13218W        W30742  13.879   3.019   0.245 -0.0174  0.1609  0.0248
13219W        W30743   5.814  13.328   2.944  0.3323 -0.0441  0.0232
13220W        W30744  17.563   0.706   5.102  0.5675  0.0002  0.0730
13221W        W30745   9.057  17.231   3.940 -0.2987 -0.1918  0.3564
13222W        W30746   0.645  11.310   1.288  0.1319 -0.0871 -0.0981
13223W        W30747  15.218  13.429   2.431 -0.1067  0.1671 -0.3639
13224W        W30748   8.566  14.184  14.377 -0.0271 -0.0187  0.3062
13225W        W30749   4.052   0.389   2.016  0.1966  0.0673  0.1815
13226W        W30750  16.146  16.706   0.428  0.1100 -0.0185 -0.0935
13227W        W30751   0.029  12.782  14.242  0.2829 -0.0852  0.1406
13228W        W30752   9.778   0.685  11.420  0.0860  0.4177  0.1631
13229W        W30753   0.743   0.051   0.648  0.1189  0.0833 -0.1485
13230W        W30754  12.248  15.993  13.736 -0.3920 -0.1753 -0.1594
13231W        W30755   1.483   4.677  12.372 -0.1167  0.0073 -0.3496
13232W        W30756   0.436   1.767  12.236  0.3440  0.1423  0.0013
13233W        W30757   5.504  14.579   4.495 -0.0499 -0.2638 -0.0640
13234W        W30758   2.307  13.076  14.572 -0.6260 -0.0321  0.1475
13235W        W30759  12.211   7.394  12.100 -0.2178  0.4010 -0.0126
13236W        W30760  13.303  17.531   3.921  0.0485  0.1372  0.2726
13237W        W30761  15.429   5.486   1.353  0.0309 -0.0879  0.2019
13238W        W30762   2.391  11.840  12.767  0.1614 -0.3679 -0.0447
13239W        W30763   4.146  14.243   3.398 -0.0516 -0.2555 -0.2469
13240W        W30764   8.453   6.317  14.658  0.0357  0.0695  0.0771
13241W        W30765   5.559   6.777  15.816  0.2489 -0.3754  0.0898
13242W        W30766  12.930   8.530   4.077  0.3971  0.2618 -0.0882
13243W        W30767  10.650   9.747   0.680 -0.0900 -0.0549 -0.3756
13244W        W30768   9.761   8.335  12.197 -0.2574  0.1071  0.1816
13245W        W30769  12.674   4.429   4.881 -0.3242  0.0654 -0.1736
13246W        W30770  13.448  10.361  15.599 -0.1292  0.4140  0.1094
13247W        W30771   7.893   4.723  13.387 -0.2653 -0.0908 -0.3098
13248W        W30772   5.742   2.083   3.980  0.2682 -0.0370  0.0115
13249W        W30773  16.273   6.608   2.231  0.1458  0.1188  0.0139
13250W        W30774   4.920  11.666  16.257 -0.0021 -0.0263  0.1922
13251W        W30775  15.627   9.402   2.729  0.0707  0.2714 -0.0503
13252W        W30776   4.429  12.109  15.062  0.1038 -0.0458  0.0749
13253W        W30777   1.282   9.030  15.485 -0.2221  0.3082 -0.0340
13254W        W30778   0.385   5.182   1.524 -0.1766  0.0787  0.2890
13255W        W30779   3.341  11.387  16.365 -0.0711  0.0713 -0.3278
13256W        W30780  14.406   3.891  15.090 -0.0976 -0.3196  0.1536
13257W        W30781   6.017  16.930   2.028  0.0014 -0.0031 -0.2234
13258W        W30782   2.677  16.949  16.447  0.0172  0.2266 -0.1474
13259W        W30783   0.819   1.324   1.595 -0.0962 -0.2107 -0.3909
13260W        W30784  13.534  11.527  14.726  0.3852 -0.2080 -0.1780
13261W        W30785   2.146   3.741   4.889  0.2358 -0.1984 -0.1179
13262W        W30786   0.212   5.537  16.302  0.1200  0.2635  0.0530
13263W        W30787  12.458   8.743   3.168  0.1769  0.0433 -0.0342
13264W        W30788   6.629   5.303   4.404 -0.0969  0.1231  0.1984
13265W        W30789  11.837  11.577   4.491  0.2053 -0.0615 -0.1486
13266W        W30790  15.889   8.980   1.830 -0.2605 -0.1591  0.2846
13267W        W30791   4.567  17.668  13.769  0.1640  0.0138  0.6177
13268W        W30792  12.617   0.789  11.875  0.0663  0.0690 -0.1153
13269W        W30793  12.003   6.235   3.090  0.0754  0.2384  0.3033
13270W        W30794  15.027  13.655   2.065 -0.1998  0.1436 -0.2614
13271W        W30795  16.333  16.590  11.968  0.1786  0.3019 -0.0148
13272W        W30796  14.499  14.659   3.689 -0.0054 -0.1288  0.0915
13273W        W30797  12.149   2.803   3.133 -0.0016  0.0264  0.0873
13274W        W30798   5.745  16.881   4.990 -0.1727 -0.0986  0.0491
13275W        W30799   6.906   8.918  14.361 -0.0005 -0.0774  0.0638
13276W        W30800   3.107   4.926  12.090  0.2520 -0.0511  0.2359
13277W        W30801  10.182  13.471  12.909  0.0626 -0.5090 -0.0362
13278W        W30802  11.472   4.550  15.494  0.1367  0.1798 -0.2717
13279W        W30803   6.335   9.232   1.970  0.1358 -0.0172  0.0848
13280W        W30804   2.919  16.636   5.117  0.0523 -0.0173  0.2364
13281W        W30805   4.482   8.533   2.297  0.0531 -0.1579 -0.2139
13282W        W30806  12.067   5.772   3.313  0.1388 -0.0346 -0.2227
13283W        W30807   0.369  15.374   0.946 -0.0560 -0.0608  0.3185
13284W        W30808  13.019  10.258  14.231 -0.3412  0.4468  0.0607
13285W        W30809   4.902   5.932   4.685  0.0483  0.1125 -0.0602
13286W        W30810   2.254   8.710   2.532 -0.1417  0.1606  0.2178
13287W        W30811   2.692   5.365   0.289 -0.0572  0.0420 -0.1386
13288W        W30812  15.586   3.770  12.222  0.0393 -0.1728  0.0785
13289W        W30813  10.207  12.121   5.641  0.2800  0.2792 -0.1677
13290W        W30814   7.679  11.730   3.777  0.0809  0.0213 -0.3588
13291W        W30815  14.633  10.826   2.515  0.3507 -0.0727 -0.0313
13292W        W30816  13.890   1.243  11.359  0.3807 -0.2972  0.1304
13293W        W30817  17.533   7.937   4.926 -0.4248 -0.1246  0.2649
13294W        W30818  14.483  14.233  13.661  0.1537  0.0950 -0.3312
13295W        W30819  10.538   5.590  14.637  0.1958 -0.0186 -0.0236
13296W        W30820  15.792   9.152  11.211 -0.1779  0.1080  0.0883
13297W        W30821   3.370   5.080   4.071 -0.1688 -0.0432 -0.0089
13298W        W30822   7.013  10.134  15.904  0.1944  0.1220 -0.2265
13299W        W30823   0.422  15.434   0.403  0.1005 -0.3233 -0.0096
13300W        W30824  12.123   7.750  15.942  0.1393  0.0915 -0.0775
13301W        W30825   6.287   7.124  14.175  0.3167  0.0300 -0.2237
13302W        W30826   5.077   4.204   1.071 -0.0834 -0.3742  0.2256
13303W        W30827  17.714  16.356  12.732  0.3116  0.0859 -0.2262
13304W        W30828   8.841   4.434   1.433 -0.0663  0.1158 -0.1447
13305W        W30829  10.344   1.120  16.205 -0.2566  0.0094 -0.1178
13306W        W30830  10.656  11.627   2.096 -0.0373 -0.3625  0.0732
13307W        W30831   1.491   1.185   0.171 -0.2113  0.0209  0.0455
13308W        W30832   0.595  14.696  13.546 -0.0469 -0.1418  0.2799
13309W        W30833   3.629  17.511   2.238 -0.1618  0.0640  0.1797
13310W        W30834  15.849   9.453   0.472  0.0002 -0.2301 -0.1540
13311W        W30835   3.330   6.940   4.157 -0.1149  0.3252 -0.1310
13312W        W30836  17.076   9.016  14.625  0.0540 -0.1860 -0.0287
13313W        W30837  13.038  12.530   2.112  0.0762 -0.1988 -0.0661
13314W        W30838  16.911   2.307  11.812 -0.1055  0.3475 -0.0044
13315W        W30839  12.625  16.789  10.850 -0.1801 -0.2383  0.4835
13316W        W30840  11.376  14.217  11.691 -0.0776  0.2985  0.1415
13317W        W30841   7.853  10.833  12.066 -0.0563 -0.0192  0.0578
13318W        W30842  17.497  13.686   2.828 -0.1413 -0.0159  0.0982
13319W        W30843   3.605   9.120  13.018  0.1943 -0.2242 -0.1453
13320W        W30844   7.492  14.865   2.471  0.0668  0.1854 -0.1337
13321W        W30845   9.708   7.365   0.994  0.0385 -0.0900 -0.0943
13322W        W30846   4.326  15.025   2.619  0.0043 -0.0922  0.4031
13323W        W30847  15.076  14.570   3.715 -0.0823  0.3228  0.2302
13324W        W30848   3.285  11.157  13.578 -0.0388  0.1885  0.0991
13325W        W30849   1.415  10.242   3.464  0.2509 -0.2152  0.0479
13326W        W30850  12.322  15.956   0.078  0.3575  0.0491 -0.2882
13327W        W30851  17.396  10.289   4.248 -0.1946  0.3078  0.0580
13328W        W30852   8.842   4.191   3.947 -0.1039  0.0531 -0.1466
13329W        W30853   1.934   0.824  13.940  0.0861  0.1295 -0.3003
13330W        W30854   8.888   0.480  14.501 -0.4020  0.1368  0.1837
13331W        W30855  12.672   4.079   4.087  0.1552 -0.0783 -0.1331
13332W        W30856  16.943   0.486  13.434 -0.2848 -0.3492 -0.0464
13333W        W30857   8.054   0.716  15.936  0.1145 -0.2183  0.0653
13334W        W30858   5.457   9.629   4.308 -0.0511 -0.2934  0.0716
13335W        W30859  10.039   9.701   3.482  0.0728 -0.1179  0.0112
13336W        W30860  14.157   3.811   1.875  0.1071  0.0182  0.0834
13337W        W30861  11.726  14.004   1.975 -0.2743 -0.0267  0.0667
13338W        W30862   1.293  16.851   3.065 -0.1850  0.2008  0.0096
13339W        W30863   7.190   6.107   0.860 -0.1308  0.3175  0.6008
13340W        W30864   8.009   2.891  13.138  0.0560  0.2363 -0.0542
13341W        W30865   4.892   8.849  16.410 -0.3844 -0.1581  0.0452
13342W        W30866  13.539   3.924  12.656 -0.3257  0.2240 -0.1858
13343W        W30867   0.579  14.482  15.360 -0.2347 -0.0081  0.1374
13344W        W30868  10.719  17.459   3.389 -0.0577 -0.0577  0.1727
13345W        W30869  13.643  17.654   4.273  0.1191  0.1564 -0.0188
13346W        W30870   9.169  14.542   3.080 -0.1959 -0.1734 -0.3738
13347W        W30871  13.810   1.462  13.679 -0.3402  0.1247 -0.1896
13348W        W30872   1.044  15.818  15.593 -0.1797  0.0029 -0.1331
13349W        W30873  12.803   0.607   2.979 -0.1137  0.1177  0.0550
13350W        W30874   8.734  16.044   0.810 -0.0464 -0.3137  0.3485
13351W        W30875   3.855  16.321  12.473  0.0136 -0.0010 -0.0452
13352W        W30876  11.703   5.011  11.459 -0.1929 -0.0270 -0.1031
13353W        W30877   6.607  17.964   3.304  0.2267 -0.1018  0.1195
13354W        W30878   0.561  10.153   2.109  0.3158 -0.1334  0.1162
13355W        W30879   1.320   5.271   2.246  0.1365  0.0590  0.0107
13356W        W30880   9.221   5.300  15.643  0.0225  0.1630 -0.0984
13357W        W30881   5.484   0.462   1.124  0.0866 -0.3082 -0.0213
13358W        W30882   8.783  11.096  13.161 -0.5529 -0.0639 -0.2024
13359W        W30883   7.283  13.257   2.459  0.0669  0.2596  0.2559
13360W        W30884   7.000  11.563   3.842  0.0248 -0.3186  0.3001
13361W        W30885   8.345  13.037  12.789  0.2360 -0.3618  0.1531
13362W        W30886   6.238  16.533  12.954 -0.0108  0.1607 -0.1424
13363W        W30887   7.991  12.581   2.561 -0.1493  0.2537  0.0080
13364W        W30888  15.427  10.663   0.634  0.0898  0.2155  0.1408
13365W        W30889  11.420  13.954   1.005 -0.0322 -0.4824  0.1122
13366W        W30890   7.231   6.009  12.433  0.0693  0.1683  0.1906
13367W        W30891  12.790   0.961  15.476  0.2172 -0.0725  0.1325
13368W        W30892   6.615   2.733  12.303  0.0643  0.3025 -0.0441
13369W        W30893  17.148  17.412  14.420 -0.1686 -0.1749 -0.0315
13370W        W30894   0.104  11.337  11.611 -0.0709  0.0234 -0.2083
13371W        W30895   1.810   9.420   3.368  0.2247 -0.1426  0.1109
13372W        W30896  17.900  15.911  14.602 -0.1871 -0.2864  0.3326
13373W        W30897   6.080   4.739   1.950 -0.2315  0.3542  0.1179
13374W        W30898  12.569  14.966  15.684  0.1792  0.1193 -0.1008
13375W        W30899  14.046  13.939   1.202  0.1190 -0.1105  0.2250
13376W        W30900  13.386  16.170   3.449  0.3508 -0.1300 -0.0468
13377W        W30901   7.917   7.825   3.760 -0.1108 -0.2197 -0.2415
13378W        W30902   6.702   7.656  14.710  0.1483 -0.0373 -0.0274
13379W        W30903   7.315  17.807   4.858 -0.2165  0.2044  0.0077
13380W        W30904  12.171  12.543  16.020  0.2035  0.1613  0.0693
13381W        W30905   3.585  12.637   3.151 -0.1437  0.3904 -0.0083
13382W        W30906   9.676   3.057  15.330  0.1962  0.0631 -0.1941
13383W        W30907   0.458   7.712   1.756  0.2225  0.2455 -0.1685
13384W        W30908   2.908   3.059   0.281 -0.1571 -0.1059 -0.0764
13385W        W30909   2.522  11.530  13.146  0.1387 -0.2330 -0.0348
13386W        W30910  13.902  12.131  12.365  0.0688 -0.1558  0.2807
13387W        W30911  12.951   2.720   5.595  0.3710 -0.2916 -0.0162
13388W        W30912   0.571   5.839   0.025  0.0341 -0.2301  0.1453
13389W        W30913   7.374   3.371  12.150  0.4112  0.1845  0.3174
13390W        W30914   9.675   3.285   3.685 -0.0331 -0.0442 -0.1806
13391W        W30915  12.643   8.346   3.305  0.1804  0.2175 -0.1256
13392W        W30916  12.785   5.459   3.903  0.0503 -0.2001 -0.1839
13393W        W30917   6.482  11.695   0.382 -0.1499  0.0736 -0.0040
13394W        W30918   3.608  13.978  15.033 -0.0155 -0.2099  0.0809
13395W        W30919   5.744  16.556  12.507 -0.1944  0.0269  0.1856
13396W        W30920  17.057  14.807  14.483  0.1838  0.0265  0.2587
13397W        W30921   9.704   3.894   2.469  0.0862  0.0701 -0.0631
13398W        W30922   0.622   4.497  12.574  0.0346  0.1934 -0.1155
13399W        W30923   9.746  13.191  12.886  0.1253 -0.0868  0.1304
13400W        W30924   7.749  11.785   4.401  0.1738 -0.2180 -0.0975
13401W        W30925   5.570  17.685   3.223 -0.3895  0.1376  0.0492
13402W        W30926   6.724   2.495  11.417 -0.2760 -0.0305 -0.0924
13403W        W30927  15.306   0.960   4.877  0.4199  0.2704  0.1313
13404W        W30928  15.527  11.749   3.971 -0.0078 -0.4889  0.0673
13405W        W30929   3.165   4.338   3.740  0.0623 -0.1376  0.1641
13406W        W30930   0.534   1.997   2.235  0.0590 -0.0510 -0.1357
13407W        W30931   1.031   3.960   1.904 -0.0389 -0.1277  0.1259
13408W        W30932  17.157   6.953   2.025 -0.1007  0.4442  0.1527
13409W        W30933   3.221  14.776  13.749 -0.0288 -0.0812 -0.1607
13410W        W30934   9.965   1.400   3.286  0.0256  0.0950  0.0395
13411W        W30935   0.460   3.373   4.530  0.2419 -0.1528 -0.3312
13412W        W30936   2.829  14.215  14.630  0.2603  0.0867 -0.1439
13413W        W30937   8.448   9.428  12.162  0.0666  0.0307  0.3335
13414W        W30938   4.040  16.116  13.750 -0.0551 -0.2006  0.0219
13415W        W30939   6.672  11.408   2.545 -0.1344  0.3087  0.0974
13416W        W30940   7.895   1.399  13.202 -0.1457  0.2809 -0.0493
13417W        W30941  15.710  17.578   3.531 -0.1426 -0.2146  0.4558
13418W        W30942  11.933   8.535  12.588 -0.0231 -0.0795  0.1328
13419W        W30943   2.396   4.680   4.887 -0.0880 -0.0611 -0.2199
13420W        W30944  11.915   2.142   2.716  0.1271 -0.0406 -0.0477
13421W        W30945   9.242  16.070   5.198 -0.0285 -0.4428  0.2514
13422W        W30946   1.980   1.133  14.377  0.0018 -0.2013 -0.2275
13423W        W30947   9.323  13.037  14.390 -0.0893 -0.3123  0.0165
13424W        W30948   9.513  10.358   2.575  0.1068  0.0539  0.0711
13425W        W30949   8.331   2.530   1.652 -0.0043 -0.0517 -0.2420
13426W        W30950  12.531  13.451   5.072 -0.3661 -0.0613 -0.1540
13427W        W30951   5.134   2.906   2.080 -0.0157  0.0023 -0.0140
13428W        W30952   9.317   4.901  13.021  0.0037 -0.1420 -0.2118
13429W        W30953   3.018  11.191   5.609  0.0964  0.1525 -0.1144
13430W        W30954   0.833   4.640  13.003 -0.2199 -0.0842  0.2261
13431W        W30955  13.094  11.823  13.311 -0.0622  0.0681  0.1849
13432W        W30956   5.047  11.533  13.050 -0.1228  0.0016 -0.1289
13433W        W30957  12.238   8.206   0.861  0.2485 -0.5180 -0.1016
13434W        W30958   2.374  14.380  13.906  0.0725 -0.1341  0.1292
13435W        W30959   8.266   9.942   3.248 -0.0936  0.0748  0.2320
13436W        W30960   5.855   8.569   1.444  0.2787  0.3745 -0.1520
13437W        W30961   9.025  11.327  12.635  0.0188  0.1466 -0.1467
13438W        W30962  11.489   5.308  10.448 -0.0342  0.1878  0.0334
13439W        W30963   9.745   7.726   3.002 -0.1320 -0.0628  0.4409
13440W        W30964  12.718   8.904  11.476  0.4468  0.0117 -0.0023
13441W        W30965  10.465  17.694  13.418  0.2292 -0.1918  0.2353
13442W        W30966   7.710   5.553   4.793  0.1203  0.3575  0.0162
13443W        W30967  17.623  17.406   4.880  0.1270  0.1302 -0.4486
13444W        W30968  13.849  12.731   1.019 -0.0368 -0.1539  0.0507
13445W        W30969   8.660  11.428  15.503 -0.2011 -0.2262 -0.3251
13446W        W30970  15.179  10.704  15.671  0.1811 -0.1655  0.0131
13447W        W30971   7.334   3.720  15.720  0.1986  0.3947  0.1639
13448W        W30972   1.876  17.617   3.516 -0.0959 -0.3068 -0.0177
13449W        W30973  10.720   2.607   0.762  0.0392 -0.0201  0.1274
13450W        W30974  13.145   8.187  11.577  0.0430 -0.0947 -0.1500
13451W        W30975   0.322   7.457  11.909 -0.1247  0.0189  0.1925
13452W        W30976  11.505  15.329  13.713 -0.3452  0.0783 -0.3430
13453W        W30977  15.915   8.346   2.471  0.1605 -0.2420 -0.1299
13454W        W30978   8.167  11.701  13.004  0.1492 -0.3698  0.2044
13455W        W30979   6.016  10.018   1.535  0.0558 -0.1822  0.0296
13456W        W30980  10.436   6.474  13.573  0.0124 -0.0336  0.2840
13457W        W30981  13.890   2.194   1.791 -0.0832  0.0383  0.2213
13458W        W30982  16.672   6.455  16.360  0.3778 -0.0008 -0.1889
13459W        W30983  14.995  12.393  12.124 -0.0610  0.1250  0.0723
13460W        W30984   2.998  15.694   2.962  0.0387  0.2211 -0.2394
13461W        W30985  14.799   6.230   6.007  0.0675  0.3477  0.0985
13462W        W30986   0.123  15.937  15.897 -0.0989 -0.2823  0.1713
13463W        W30987   0.802  13.711  11.368  0.1649  0.1128  0.1681
13464W        W30988  13.821  15.309  11.786 -0.0054  0.0648  0.0120
13465W        W30989   5.319  11.420  12.586 -0.0421  0.1064  0.2138
13466W        W30990   2.157   2.708  14.268 -0.2740 -0.0016 -0.1060
13467W        W30991   7.613  17.796  12.371 -0.0093 -0.3143 -0.0033
13468W        W30992  16.447   1.528   3.455 -0.2815 -0.3566 -0.1488
13469W        W30993  15.183   5.468  13.987  0.1597  0.0246 -0.1429
13470W        W30994   8.367  10.104   6.113  0.2785 -0.1711  0.0629
13471W        W30995   9.736  14.031   6.074  0.0465  0.1210 -0.1921
13472W        W30996  13.762   9.979  13.610  0.2207 -0.4443  0.1172
13473W        W30997  14.387  13.212   1.603 -0.1235 -0.0406  0.0985
13474W        W30998  17.546  12.250   3.588  0.1204  0.4949  0.0555
13475W        W30999  15.212   7.654  11.116 -0.0118  0.1386 -0.0799
13476W        W31000   4.025  12.475   2.851  0.1544  0.2195 -0.1519
13477W        W31001  11.613   4.936   3.161  0.2018  0.1236  0.0535
13478W        W31002  15.545   6.872   2.429 -0.0351  0.1285 -0.1265
13479W        W31003  11.920  11.586  15.757  0.1806  0.1991 -0.1438
13480W        W31004   2.729  11.420  13.676 -0.2063 -0.1041  0.1519
13481W        W31005   6.929  13.596   2.337 -0.0401  0.0073  0.0720
13482W        W31006   3.524   3.324  12.723  0.1836 -0.0372  0.0548
13483W        W31007   8.486   0.940   1.347 -0.1565  0.1868  0.1322
13484W        W31008  13.233   4.686  12.770 -0.1108 -0.4139 -0.0376
13485W        W31009   5.617   8.515  13.345  0.3355 -0.4703 -0.1220
13486W        W31010  11.844  16.118  14.678 -0.2082  0.0903  0.1006
13487W        W31011  15.372  16.140   6.369 -0.0297 -0.0625  0.1078
13488W        W31012  10.169  13.059   2.473  0.0797 -0.1433  0.0423
13489W        W31013   8.552   5.708  13.874  0.1767  0.0801  0.1521
13490W        W31014   1.330   2.445  12.212  0.2077  0.0991 -0.0934
13491W        W31015  11.462   6.759  12.136 -0.3972 -0.0488 -0.3732
13492W        W31016  16.814   4.953   3.075  0.0467 -0.2442 -0.2476
13493W        W31017   5.960  16.462   1.709 -0.3491  0.2409 -0.2692
13494W        W31018  13.294   3.321   5.004  0.1027 -0.0175  0.2459
13495W        W31019   3.384  12.514   1.080 -0.0040 -0.0836 -0.0507
13496W        W31020   3.144  15.084  12.953 -0.0364  0.3907  0.4728
13497W        W31021   9.806  16.388  16.279 -0.1355 -0.1927 -0.1018
13498W        W31022   3.621  16.448   0.684 -0.2987 -0.3823  0.1541
13499W        W31023   7.521   4.411  14.424  0.2257 -0.3689 -0.1079
13500W        W31024   0.613   8.410   2.271  0.3290 -0.1205 -0.0054
13501W        W31025   1.856   8.457   3.298  0.1686  0.1956 -0.0474
13502W        W31026  10.768  13.878   3.881  0.0362 -0.1101 -0.1100
13503W        W31027   2.542   2.269  16.107 -0.2237  0.1896  0.1231
13504W        W31028  14.702   1.061   1.160  0.0119 -0.1009  0.1605
13505W        W31029  13.558   6.621   2.612  0.1180  0.3122  0.2187
13506W        W31030  13.716   4.497  13.387  0.2054  0.3044  0.1606
13507W        W31031  17.098  15.423  12.288 -0.1273  0.0379 -0.1948
13508W        W31032   2.974   7.357  11.856  0.0389  0.1858 -0.0336
13509W        W31033   7.042  13.321  14.816  0.1176 -0.1412 -0.0675
13510W        W31034   9.281  14.543   1.471  0.0489  0.3240  0.1694
13511W        W31035  10.156   6.078  13.732 -0.3462  0.1158  0.1981
13512W        W31036   6.030  11.055   1.931 -0.1688 -0.0050  0.0923
13513W        W31037  10.013   6.278   2.964 -0.1259 -0.1237  0.0106
13514W        W31038   9.829   7.341   5.810 -0.1321 -0.3421  0.1545
13515W        W31039  13.933  17.201   2.671 -0.1234 -0.0803 -0.2335
13516W        W31040  13.264  17.769  14.091  0.1242  0.0830 -0.0529
13517W        W31041   6.150  17.318  12.319 -0.0543  0.0842 -0.0847
13518W        W31042  13.246  17.970   4.169 -0.0578  0.0520 -0.0447
13519W        W31043  17.017  12.799   0.154 -0.0162  0.0463 -0.0252
13520W        W31044   9.330   5.697  11.482 -0.2197  0.0888 -0.1601
13521W        W31045  17.098  10.395  11.742  0.2680  0.2367  0.1066
13522W        W31046   5.867   6.917   4.559 -0.1360  0.0241  0.3406
13523W        W31047  17.729   7.341   1.334  0.0055 -0.0887 -0.0059
13524W        W31048   2.130  16.994   1.303 -0.2834 -0.0008  0.4651
13525W        W31049  13.302  12.637  13.857 -0.1676  0.0822  0.1647
13526W        W31050  13.375  17.291  12.220  0.3398 -0.2838 -0.2666
13527W        W31051  17.571   0.273   2.633 -0.3060  0.1250 -0.0685
13528W        W31052   1.954   6.434   1.004 -0.0811 -0.1053 -0.1179
13529W        W31053   8.365   0.493  11.576 -0.4803  0.1487  0.0303
13530W        W31054   0.185   2.021  11.569 -0.3484 -0.2850 -0.0646
13531W        W31055   1.304   7.048   2.635 -0.0036  0.2400  0.0342
13532W        W31056  13.776  12.271   4.310 -0.1837 -0.1118 -0.3258
13533W        W31057  11.610  17.814   4.607  0.0693 -0.2071 -0.4059
13534W        W31058  10.656  15.606  11.152  0.1780 -0.1426  0.2451
13535W        W31059   2.408   1.870   0.515  0.0512 -0.0446  0.3139
13536W        W31060   0.403   2.110   4.158  0.1180 -0.3901  0.1935
13537W        W31061   2.615  12.262  15.204  0.1934 -0.3248  0.2907
13538W        W31062   5.197   9.984   0.346 -0.2675  0.1303 -0.2783
13539W        W31063   1.557  10.873   1.427  0.0056  0.5071 -0.3356
13540W        W31064   7.727   5.706  13.686 -0.2773 -0.3688 -0.0651
13541W        W31065  10.436   1.473  11.543 -0.3305 -0.3549  0.6243
13542W        W31066  10.827  11.888  14.898 -0.1615 -0.3194 -0.1094
13543W        W31067  16.892  17.824  13.825 -0.0155  0.0918  0.0623
13544W        W31068  13.570   1.203   1.033 -0.2360  0.1516  0.0506
13545W        W31069   5.016   1.524  11.789  0.2479 -0.2153  0.1248
13546W        W31070   5.718   2.499  12.391 -0.1743 -0.1449 -0.1141
13547W        W31071  12.338  10.534  13.128 -0.2553  0.0160  0.0323
13548W        W31072  10.016  16.866  16.267  0.0015 -0.0520 -0.0746
13549W        W31073   6.990  12.516   1.034  0.1723  0.0553  0.1283
13550W        W31074  11.994  11.502   0.284 -0.2396 -0.0169  0.0236
13551W        W31075  14.163   5.068  13.816 -0.0041  0.1002 -0.1643
13552W        W31076  13.237   7.666  13.675 -0.0668  0.2386 -0.0054
13553W        W31077   1.557   1.909   5.181  0.1727  0.0781  0.0318
13554W        W31078   4.505   3.572   1.342 -0.4909 -0.3451  0.0741
13555W        W31079   3.185  14.761   1.331  0.1243  0.1100  0.2720
13556W        W31080  13.092   9.977   0.016  0.0193  0.1306  0.0170
13557W        W31081  11.225  17.880   2.190  0.0795 -0.0954 -0.1187
13558W        W31082  11.084   2.116  14.499 -0.0859 -0.0010  0.3945
13559W        W31083   8.157   3.595  14.559  0.0694 -0.1289  0.0768
13560W        W31084   1.297   8.088   1.522  0.2137 -0.0702  0.0731
13561W        W31085   3.473   3.601  14.605 -0.4414 -0.3516  0.1007
13562W        W31086   0.302  12.960  14.643 -0.0571 -0.1132 -0.0546
13563W        W31087  12.117   8.486   2.408 -0.0163  0.1193 -0.1573
13564W        W31088  13.966   1.601  12.692 -0.3721  0.0774 -0.1506
13565W        W31089   1.577  12.408  12.413 -0.1917 -0.1796 -0.3067
13566W        W31090   9.539  10.363   0.893 -0.0899  0.2848  0.2732
13567W        W31091   9.861   8.829  12.171  0.1829 -0.2056 -0.0166
13568W        W31092   1.616   8.337  10.926  0.0452  0.2318 -0.2943
13569W        W31093   9.883   0.236  14.870  0.2852  0.0109  0.3540
13570W        W31094   5.349  15.833   2.658 -0.0903 -0.0968 -0.1581
13571W        W31095   1.838   9.184  15.093 -0.3406 -0.0572  0.2739
13572W        W31096  14.317  16.825   1.880 -0.1014  0.0849  0.1017
13573W        W31097   1.320   1.833   2.687 -0.0249  0.0845  0.2875
13574W        W31098   4.948  16.029  13.317 -0.0255  0.0413  0.1664
13575W        W31099   1.880  16.584  16.128 -0.1584 -0.1350 -0.3353
13576W        W31100  13.422   6.789  14.735  0.1289  0.2014  0.1326
13577W        W31101   4.225  11.472  12.122  0.1685  0.2243  0.1117
13578W        W31102   8.164   2.197   5.163  0.1136 -0.1508  0.0074
13579W        W31103  12.028  16.601   0.654  0.0461 -0.4622 -0.0469
13580W        W31104   5.076   5.937   2.084 -0.1597 -0.3696  0.0512
13581W        W31105   7.536  10.434   2.561  0.0306 -0.1746  0.2161
13582W        W31106   9.385  12.450  11.534 -0.1975 -0.1363 -0.1358
13583W        W31107   5.211   2.699   3.044  0.3868  0.0138 -0.2743
13584W        W31108  15.603   1.870   3.964 -0.1846 -0.0921 -0.0405
13585W        W31109  11.412  16.701   1.350  0.0015 -0.1034  0.0401
13586W        W31110   5.307  12.012   2.270 -0.1364  0.3252 -0.0542
13587W        W31111   5.961   6.739   3.109  0.2770  0.1262  0.0960
13588W        W31112   0.168  17.562  15.951 -0.3815 -0.4067 -0.2903
13589W        W31113   7.988  12.923   3.046 -0.1909  0.1727 -0.0474
13590W        W31114  16.288   1.186   4.484  0.3029 -0.0458  0.0452
13591W        W31115  12.100   2.800   4.127 -0.0840 -0.1954 -0.0240
13592W        W31116  12.184  11.406  12.772  0.3900 -0.3262  0.0876
13593W        W31117   5.925   1.994  14.142 -0.1361 -0.0486  0.0834
13594W        W31118   1.896  14.097   3.925 -0.4965  0.1043  0.3134
13595W        W31119  10.197   2.402   3.338 -0.1185  0.0809 -0.1986
13596W        W31120   9.721   4.224   2.925  0.2203  0.1220  0.3305
13597W        W31121   4.290   4.347   5.033 -0.2281  0.0593  0.1279
13598W        W31122  16.017  13.738   2.400 -0.0961  0.3828  0.1887
13599W        W31123   3.743  15.607   2.999 -0.0416  0.0431 -0.0385
13600W        W31124  16.270  13.127  14.492  0.2451 -0.0007 -0.2163
13601W        W31125  17.211   3.734   3.766  0.0748 -0.1519 -0.2744
13602W        W31126   9.468   8.087   2.824  0.2748 -0.1154 -0.0756
13603W        W31127   9.589   1.672   2.048  0.4296  0.1135 -0.3365
13604W        W31128  16.015  17.815   6.342  0.1191  0.1086  0.0937
13605W        W31129   4.237   2.344   3.268  0.1036  0.1814 -0.0128
13606W        W31130   6.356  13.146   1.460 -0.0764  0.1230  0.0083
13607W        W31131  16.169  13.802  12.745 -0.0409 -0.2399 -0.1553
13608W        W31132  10.467   1.489  15.287  0.0401  0.2098 -0.1570
13609W        W31133  12.805  11.378   1.866  0.0711  0.1332 -0.0204
13610W        W31134   7.211   1.815   1.948 -0.0375  0.4762  0.2714
13611W        W31135  15.909  10.006  11.444  0.5364  0.2489  0.1908
13612W        W31136   1.303  16.532  15.248  0.1930  0.2178  0.1820
13613W        W31137  17.753  10.042  14.475 -0.0533 -0.2180  0.0136
13614W        W31138  13.999   7.886  15.325  0.1097 -0.2725  0.1020
13615W        W31139   2.985   1.654  14.028 -0.1748  0.4883  0.2575
13616W        W31140   2.578   4.213  14.748 -0.1578 -0.0678 -0.0747
13617W        W31141  12.699   1.302  11.803  0.3446 -0.2435 -0.1536
13618W        W31142  12.420   9.557  14.540 -0.3117  0.1031  0.1882
13619W        W31143   3.449   9.244  16.125 -0.1999 -0.1209  0.1069
13620W        W31144  10.449   3.273   0.928 -0.0460  0.1356 -0.0236
13621W        W31145  14.124   6.208  12.052 -0.2358  0.0903  0.2155
13622W        W31146   7.958  16.096   1.922  0.0786  0.1844  0.1375
13623W        W31147   2.802  16.177  15.231 -0.2268 -0.0256  0.1305
13624W        W31148   9.989  15.727   1.551  0.0158 -0.1446  0.4030
13625W        W31149   8.933   8.122  16.409  0.2084 -0.1528 -0.0553
13626W        W31150   7.268  12.909  14.398 -0.0403  0.0551  0.1921
13627W        W31151   7.536   3.391   5.950  0.1359  0.0052 -0.0537
13628W        W31152   6.134  11.470   0.104  0.0046  0.0176  0.1323
13629W        W31153   6.841  13.134  15.227  0.0345 -0.0067  0.1510
13630W        W31154  10.742  14.443  12.484 -0.3097 -0.0347 -0.1727
13631W        W31155   0.449   4.212   3.936 -0.1507  0.0646  0.1320
13632W        W31156   0.079   8.471  12.878 -0.1069 -0.1233 -0.1903
13633W        W31157  15.248   7.521  14.530 -0.1165  0.3432 -0.0757
13634W        W31158  12.696   7.505   2.477 -0.1395  0.1295 -0.1033
13635W        W31159   4.842  15.834   1.234 -0.0226  0.1786  0.1281
13636W        W31160   5.211  17.428   3.430  0.1669  0.0068  0.0744
13637W        W31161   6.445  11.881  15.856 -0.1566 -0.0643 -0.0763
13638W        W31162   6.049  13.215  12.666 -0.2297 -0.3253 -0.2865
13639W        W31163  16.261  15.222   4.656 -0.2188  0.2298 -0.0750
13640W        W31164  10.682  10.542  12.434  0.2823 -0.0810  0.0400
13641W        W31165  16.204   2.808  14.575 -0.1808  0.2220  0.1616
13642W        W31166   9.584   2.687  10.445 -0.2642 -0.2461  0.2730
13643W        W31167  15.122  10.392  13.525 -0.0977  0.2642 -0.2696
13644W        W31168   6.988  16.599   1.359  0.4322  0.0040  0.2019
13645W        W31169  11.753  17.135  14.576 -0.2728  0.3542 -0.3222
13646W        W31170   2.371   2.344  10.386 -0.1250 -0.0144 -0.1253
13647W        W31171   7.148   8.249   5.359 -0.0265  0.0219  0.1057
13648W        W31172  12.583  10.906   4.286 -0.0307  0.0566 -0.0021
13649W        W31173   8.283   7.074   0.744  0.0233 -0.4043  0.0122
13650W        W31174  15.869  13.479  11.490  0.1802 -0.0112  0.1847
13651W        W31175  15.097  13.080  12.748  0.1276  0.1600  0.1621
13652W        W31176  15.026  11.334   1.856  0.0590 -0.1291  0.2889
13653W        W31177   5.305  11.579   1.980 -0.2385  0.0036 -0.1173
13654W        W31178  10.253   5.000  11.586  0.0443 -0.0477 -0.1669
13655W        W31179  12.362   3.391   3.678 -0.0565 -0.1640 -0.0435
13656W        W31180   9.739   5.487  14.543 -0.0836  0.0159  0.2266
13657W        W31181   8.478  12.051  14.265  0.2938 -0.2044  0.2872
13658W        W31182   7.458   2.452  12.744  0.0823 -0.3739 -0.0526
13659W        W31183  11.877   2.638  15.675  0.0064 -0.2002  0.1517
13660W        W31184   0.264  10.557   1.739  0.2087  0.1036  0.0952
13661W        W31185   8.076   3.321   3.953 -0.1975  0.1053 -0.1328
13662W        W31186   0.903   9.507  13.530  0.1235 -0.0369 -0.0844
13663W        W31187   1.818  12.159   0.833  0.0366 -0.0927 -0.0333
13664W        W31188   8.170  14.715   3.969  0.2683  0.0558 -0.1617
13665W        W31189   2.594   6.262   0.128  0.0989  0.0247  0.0170
13666W        W31190  13.002   2.247   3.995 -0.4616  0.1033 -0.0165
13667W        W31191   4.970  13.427   1.479  0.1175 -0.1092 -0.4012
13668W        W31192   7.989   0.757   1.522  0.1196  0.0479  0.1596
13669W        W31193   2.472  17.528   2.776  0.0869 -0.0538 -0.1064
13670W        W31194   9.370   7.146  14.398  0.0110  0.0213 -0.2161
13671W        W31195   9.755   5.142  11.737 -0.2013  0.2396  0.0212
13672W        W31196   5.917   8.515   4.907  0.1588 -0.1967 -0.1459
13673W        W31197  15.934  14.307  12.675 -0.2042 -0.0846  0.2442
13674W        W31198  10.107  17.002   2.920 -0.0320  0.1528 -0.4706
13675W        W31199   8.821  17.282   1.675  0.1165  0.0432 -0.0000
13676W        W31200  14.132   5.195  15.497 -0.1352  0.0386 -0.0664
13677W        W31201   2.941  12.913   4.155  0.0714 -0.2081 -0.1104
13678W        W31202   8.341   8.736   4.091  0.0370  0.1253  0.0709
13679W        W31203   7.206   7.186   2.098  0.2605  0.2162  0.0487
13680W        W31204   4.130  14.875  13.344 -0.0245 -0.2234  0.0850
13681W        W31205   7.073   5.292   2.316 -0.2104 -0.0824 -0.0679
13682W        W31206   8.996  12.512  12.799 -0.1181  0.2385  0.1020
13683W        W31207   7.960  10.772   1.867  0.0065 -0.1319  0.1106
13684W        W31208  12.977  17.224  16.322  0.1175 -0.2131  0.2469
13685W        W31209  14.184  16.952   0.148 -0.1780  0.2807  0.0425
13686W        W31210   5.098  12.582  13.573  0.0745 -0.0086 -0.0647
13687W        W31211  16.847   5.582   0.772 -0.1995  0.2740 -0.3173
13688W        W31212   4.100   3.154   1.960 -0.1109 -0.2698 -0.1503
13689W        W31213   8.395   9.055   3.721 -0.0871 -0.0141 -0.2307
13690W        W31214  10.317   2.619  12.147 -0.0981 -0.0702 -0.0760
13691W        W31215   8.590   5.749   4.480  0.2113  0.1679 -0.0803
13692W        W31216   5.472   3.449  13.518  0.1570  0.1744  0.0209
13693W        W31217   1.029   9.892   1.943 -0.0944  0.0571  0.2698
13694W        W31218  13.451   2.389   1.878  0.1561  0.1708 -0.1533
13695W        W31219  15.979  11.698  12.728 -0.1122 -0.1410  0.1324
13696W        W31220  12.800  17.186  12.766  0.2522 -0.1446  0.0255
13697W        W31221   0.154   9.251   0.478  0.4819 -0.3347  0.3364
13698W        W31222   5.787   7.895   1.559  0.2819  0.2821  0.0775
13699W        W31223   6.148  14.371   1.975  0.1221  0.5618 -0.0945
13700W        W31224   3.398  15.118  16.341  0.1671  0.0097 -0.3169
13701W        W31225  17.755   0.938   1.078 -0.1298 -0.0944 -0.2087
13702W        W31226  10.420   9.493  14.772  0.1819  0.1498 -0.0855
13703W        W31227   2.527   2.908  13.193  0.0931  0.3270  0.0191
13704W        W31228   9.300  15.371  15.831  0.1666 -0.2880  0.2133
13705W        W31229   2.103   2.354   3.379  0.0093  0.0195 -0.0800
13706W        W31230  14.543   6.848   0.395 -0.1268 -0.1458  0.0765
13707W        W31231   6.426   5.389   3.772  0.0974 -0.3651  0.2371
13708W        W31232  14.226   9.246  15.690 -0.1313  0.0470  0.3308
13709W        W31233   7.520  10.137  12.107  0.0030  0.1887  0.4016
13710W        W31234   6.106   0.240   4.304 -0.0045 -0.0297 -0.2539
13711W        W31235  16.366   5.343   1.246  0.1480 -0.1437 -0.1007
13712W        W31236  12.543  17.759  11.934  0.1007  0.2311 -0.2361
13713W        W31237   6.677   3.160  12.596  0.4857 -0.1216 -0.2627
13714W        W31238   5.808  11.007  11.927  0.1600 -0.1270  0.3904
13715W        W31239   0.282   2.498  13.049  0.3969 -0.3587 -0.1734
13716W        W31240  16.501   9.403  15.520  0.0377  0.1178 -0.3346
13717W        W31241  16.795   7.019  11.985 -0.0812 -0.1727  0.0161
13718W        W31242   5.235   6.813   4.160 -0.0753  0.2084 -0.2370
13719W        W31243   4.708   7.964  16.071 -0.2466 -0.4079 -0.2321
13720W        W31244  15.149   7.983   2.532 -0.0204 -0.0784 -0.1688
13721W        W31245  15.017  13.144  14.394  0.0745  0.2970  0.2872
13722W        W31246  12.183  15.033  11.669 -0.0052 -0.0631 -0.1111
13723W        W31247  12.114   1.441   3.198 -0.0383  0.0624  0.1524
13724W        W31248   5.383   7.853   4.870 -0.0721  0.3062  0.1512
13725W        W31249   4.714  10.464   3.196 -0.3347  0.0311  0.1490
13726W        W31250   8.311   9.209   4.717  0.1247 -0.2452  0.0592
13727W        W31251   5.658  11.427  12.224 -0.1657 -0.0058  0.1266
13728W        W31252   8.461  15.611  15.450  0.0247 -0.1542  0.0453
13729W        W31253   7.783   0.282  12.615  0.0283 -0.1315 -0.0299
13730W        W31254  10.116  16.634  12.858  0.1494 -0.1709  0.0967
13731W        W31255  16.743   9.673   2.200 -0.3680 -0.0638  0.1673
13732W        W31256   5.675   6.625  12.246 -0.1674 -0.0585  0.2803
13733W        W31257  10.302  12.522   2.703  0.2462 -0.3057 -0.1607
13734W        W31258   1.605   9.352  12.348  0.0100 -0.0647  0.1215
13735W        W31259   7.926  10.913  11.069 -0.1172 -0.0961  0.0013
13736W        W31260  15.642   2.706   0.083  0.3341 -0.0194  0.4008
13737W        W31261   6.590   1.051   2.131 -0.0944  0.2309  0.1589
13738W        W31262  14.505  15.126   1.491  0.0633  0.0204 -0.1647
13739W        W31263  10.744   6.159  15.906  0.0671 -0.2716  0.0373
13740W        W31264  16.704  16.081   0.209  0.1930 -0.0424 -0.0550
13741W        W31265   2.017  10.965   4.955 -0.2971 -0.1202  0.0873
13742W        W31266  12.634   8.033  15.774 -0.0330 -0.2124 -0.0342
13743W        W31267   1.908  11.372  14.335  0.0092  0.1556 -0.1034
13744W        W31268  12.667   8.908  14.152 -0.0703 -0.1092  0.0864
13745W        W31269   4.326   3.321   3.169 -0.0971 -0.0102  0.1588
13746W        W31270   7.818   9.529   2.737  0.0818  0.2426 -0.0232
13747W        W31271   0.385  16.577   0.435  0.1082 -0.1735 -0.2323
13748W        W31272   9.989  11.536  16.031  0.0760  0.0618 -0.2287
13749W        W31273  16.560   7.932  15.482  0.0735  0.4372 -0.2642
13750W        W31274   6.350   2.919  15.033  0.0721 -0.0382 -0.0767
13751W        W31275  15.557  17.806  16.300  0.2024  0.1441 -0.0865
13752W        W31276  12.824  15.819  11.561 -0.0935 -0.2735 -0.3325
13753W        W31277  12.748   7.851   3.523 -0.1240  0.3930  0.4638
13754W        W31278  16.807  15.145   5.115 -0.1136 -0.0991  0.1060
13755W        W31279  15.875  11.759  13.264 -0.2572 -0.0155  0.2301
13756W        W31280   2.488   3.921   4.331  0.1155 -0.2624  0.3071
13757W        W31281   7.785  10.062   2.827  0.0981  0.1764  0.0972
13758W        W31282  15.409   6.447   3.495  0.3131  0.0727  0.0848
13759W        W31283   9.996  11.236  15.204  0.2126  0.4116  0.1312
13760W        W31284   0.383  12.901   5.079 -0.0602  0.0926  0.0502
13761W        W31285  16.434   4.266  12.452 -0.0148  0.0093  0.1553
13762W        W31286   6.618   3.054  15.711  0.2320  0.2883  0.0495
13763W        W31287   4.201   0.441  14.324  0.1768  0.3134 -0.0385
13764W        W31288  15.093   8.893   1.373  0.2107 -0.1593  0.2354
13765W        W31289   3.481  16.326   6.371  0.0956  0.3889  0.0255
13766W        W31290   1.228   7.053   1.967 -0.0067 -0.4217  0.4369
13767W        W31291  12.784   8.248   4.456  0.1505  0.1379  0.2132
13768W        W31292   9.981  14.273  13.307  0.0822  0.0860  0.0524
13769W        W31293   5.287   1.097  16.356 -0.1329  0.4494  0.1733
13770W        W31294   4.484   3.474   2.760 -0.1246 -0.2478 -0.0565
13771W        W31295  12.859  16.709   1.236  0.1437 -0.1172 -0.1351
13772W        W31296  14.126   1.172   4.425  0.2488  0.0333  0.0676
13773W        W31297  11.258  13.153  13.180 -0.1148  0.0367 -0.3379
13774W        W31298   8.877   9.856  15.524 -0.2242 -0.1268 -0.0943
13775W        W31299   7.511   2.454  12.014 -0.0098  0.0697 -0.1116
13776W        W31300  13.368  17.708  11.334  0.0639 -0.1649  0.0049
13777W        W31301  14.432  12.457   4.356 -0.1146  0.2841  0.2230
13778W        W31302  11.087   1.749  12.403  0.1370  0.0300  0.3516
13779W        W31303  14.264   3.338  13.305  0.0665  0.2030  0.2819
13780W        W31304  10.950   6.284   3.413  0.0254 -0.0904  0.0644
13781W        W31305   1.467   3.381  14.608  0.1607  0.2735 -0.1417
13782W        W31306  12.284   9.024   2.439  0.3536 -0.0375 -0.0234
13783W        W31307  16.961  17.790  15.405  0.1798 -0.2899  0.2173
13784W        W31308   2.537  11.245  15.004 -0.0613  0.0775  0.2883
13785W        W31309   6.490   2.385   1.184 -0.2059  0.0303 -0.1478
13786W        W31310  10.108  13.855   0.877 -0.2238 -0.0027 -0.1371
13787W        W31311  17.054  13.454   0.881  0.0977  0.0346 -0.2792
13788W        W31312   6.985  14.717   1.058 -0.1250  0.1224 -0.1703
13789W        W31313   1.021   8.180  12.574  0.0360  0.1875 -0.2247
13790W        W31314   8.423  14.780   2.051  0.3982 -0.0014 -0.2246
13791W        W31315   9.440  10.555   5.058 -0.0996  0.3877  0.4621
13792W        W31316   7.375  13.171   1.563  0.0493  0.1649 -0.1493
13793W        W31317   5.055  16.156   0.270  0.1285 -0.1533  0.3138
13794W        W31318  15.702  10.646   4.625 -0.2649 -0.0687  0.2510
13795W        W31319   8.125   1.548  12.662 -0.1474 -0.2393  0.1246
13796W        W31320  15.323  11.669   2.156 -0.4648 -0.0584  0.3640
13797W        W31321   0.181   5.894  14.172 -0.2018 -0.2773  0.1936
13798W        W31322  11.522  12.422   2.318  0.0384  0.0029  0.0976
13799W        W31323  11.578   6.147   3.363 -0.1402 -0.2623 -0.0253
13800W        W31324   4.031  13.578   4.040 -0.0058  0.1566  0.3551
13801W        W31325   6.064  13.817  12.821  0.1403 -0.1281 -0.0225
13802W        W31326   1.576  11.276  13.964  0.2307  0.0014  0.0877
13803W        W31327  12.804   6.030  13.088 -0.0768  0.2717  0.0366
13804W        W31328   5.180  13.751   5.848 -0.1966 -0.3282 -0.0382
13805W        W31329  14.767  17.814  12.923 -0.1442  0.1498  0.1543
13806W        W31330  10.854   5.758  16.130 -0.0394  0.1246  0.0246
13807W        W31331   2.515   8.273   1.036 -0.0597  0.0689  0.0135
13808W        W31332  13.563   1.045  13.136  0.0073  0.0771  0.0018
13809W        W31333  16.997   9.198   3.321  0.1076 -0.2922  0.0521
13810W        W31334   0.686   3.749  11.833  0.0065 -0.1299  0.0435
13811W        W31335   2.699   4.084   4.879  0.0342 -0.0078 -0.4564
13812W        W31336   0.603   8.187   1.767  0.2870 -0.0089 -0.0041
13813W        W31337  15.018   3.182   3.296 -0.1468  0.2146  0.0474
13814W        W31338  10.194   5.835   6.005  0.1043 -0.0086  0.0577
13815W        W31339   0.888   8.586   3.844  0.0069  0.1166 -0.0460
13816W        W31340   6.502  11.254   3.990 -0.1929 -0.1067 -0.1712
13817W        W31341  12.659  15.383   3.359  0.2422 -0.2030  0.0009
13818W        W31342   5.334   6.238  12.059  0.0369  0.0454  0.0630
13819W        W31343  17.843   9.486  13.613  0.1581 -0.0723 -0.0665
13820W        W31344   2.262   6.837   2.750  0.1388 -0.1664  0.1678
13821W        W31345   2.463  13.394  15.508 -0.2197 -0.1741 -0.1000
13822W        W31346   1.564   6.387   3.976 -0.2243 -0.1600  0.0345
13823W        W31347   7.040   9.649  13.389  0.0136  0.3602  0.1249
13824W        W31348  16.440  17.213   4.544 -0.3249  0.0455  0.3253
13825W        W31349  14.586  16.414  14.192 -0.0728  0.1490  0.0424
13826W        W31350  10.021   0.116   2.508 -0.0056  0.0186 -0.1082
13827W        W31351  15.549  17.574  13.213  0.1740  0.2532 -0.1321
13828W        W31352   4.768   6.320  12.671 -0.1400  0.1018 -0.2947
13829W        W31353  11.804   6.779  16.156 -0.1348 -0.3462 -0.0990
13830W        W31354   9.994  16.242   3.999 -0.0284  0.0292 -0.0106
13831W        W31355  12.810   0.157   3.214 -0.2846 -0.0603 -0.1260
13832W        W31356  16.019   6.617  12.409  0.4550 -0.0004  0.1357
13833W        W31357   8.914   8.717  12.284  0.1109  0.0559  0.0444
13834W        W31358  11.947   0.272  14.438 -0.2929 -0.1051  0.0052
13835W        W31359   1.431  17.712  12.507  0.2447  0.0074 -0.1281
13836W        W31360  17.461  13.583   4.119 -0.3391  0.0343 -0.0538
13837W        W31361  17.135   6.863   0.071  0.2872 -0.0153  0.2062
13838W        W31362  17.165  10.566  16.318  0.0327  0.0788  0.0841
13839W        W31363   1.307   9.744   0.083 -0.0516  0.2587 -0.1542
13840W        W31364   5.065   4.525  15.274  0.0957  0.1203  0.0975
13841W        W31365   5.873   5.833  13.907  0.0342  0.0150  0.0496
13842W        W31366   3.797   8.538  10.260 -0.2014 -0.1887 -0.1635
13843W        W31367   8.128   5.111   0.448  0.0402 -0.1861  0.1012
13844W        W31368  17.878   0.654  15.855  0.2602  0.0637 -0.0980
13845W        W31369  12.724  16.620   3.053 -0.0017  0.0393  0.2862
13846W        W31370   7.730   2.964   0.183  0.0808  0.0397  0.2299
13847W        W31371  16.162  10.489   4.463 -0.1021 -0.0273 -0.0682
13848W        W31372  12.269   4.975  13.175 -0.0901 -0.0410  0.1124
13849W        W31373   0.673   4.144   0.821 -0.2345 -0.0997  0.3142
13850W        W31374   7.974  15.521  11.707  0.3053  0.1593 -0.1361
13851W        W31375   1.005  10.049  10.306 -0.3222 -0.0562 -0.2132
13852W        W31376  17.586   5.026   0.507 -0.1858  0.0252  0.1029
13853W        W31377   5.498   3.576   3.142 -0.1972  0.0479  0.0865
13854W        W31378  15.654  15.853   1.787 -0.1562 -0.0965 -0.1590
13855W        W31379  14.071  15.715  14.520 -0.1329  0.0895  0.2334
13856W        W31380  13.546   2.113   0.577 -0.0830 -0.0058  0.0514
13857W        W31381  16.354  17.172  15.143  0.0729 -0.2460 -0.0835
13858W        W31382   1.517   8.654   5.067  0.2032 -0.1898 -0.1024
13859W        W31383  15.202   3.346  12.069 -0.1285 -0.0769 -0.2903
13860W        W31384   1.410  11.885   1.903 -0.0411 -0.2441 -0.0464
13861W        W31385   3.349   7.862  13.597  0.2185  0.2942 -0.0006
13862W        W31386  12.472   3.360  15.230 -0.2463  0.0629 -0.0004
13863W        W31387   2.688  12.421   1.643 -0.1289  0.0686 -0.1145
13864W        W31388  16.329   4.660   1.825  0.0943 -0.0512  0.1577
13865W        W31389  10.361  10.863  15.033 -0.0254  0.0145 -0.0709
13866W        W31390   9.391  10.470   4.456  0.0031 -0.0290 -0.0500
13867W        W31391  16.159   8.263  11.871  0.3161 -0.0962 -0.2641
13868W        W31392  16.680  16.461   1.613 -0.0701 -0.2677  0.0893
13869W        W31393   9.522  17.885   1.587  0.1438  0.2448 -0.0972
13870W        W31394  14.624   5.711   1.436 -0.1944  0.0886  0.0517
13871W        W31395   8.936   9.216   0.150  0.3349  0.1655  0.1516
13872W        W31396   7.056  11.235   4.577  0.0343  0.0408 -0.3144
13873W        W31397   1.098  14.417  13.754 -0.4124  0.2204  0.0279
13874W        W31398   8.705   7.652   3.429  0.0650 -0.0606 -0.4175
13875W        W31399   5.289  14.813   2.240 -0.1816  0.0687 -0.2150
13876W        W31400   0.222   1.696  14.036 -0.3528 -0.0298  0.1646
13877W        W31401  15.906  10.075   3.087 -0.1271 -0.3203 -0.2871
13878W        W31402  14.640  11.590  12.653  0.1267 -0.1516 -0.0462
13879W        W31403  10.402  13.513   4.191  0.1701 -0.0305  0.0557
13880W        W31404  12.131   3.977   1.460 -0.2801 -0.0815  0.3265
13881W        W31405   5.042  10.688   1.298 -0.1880 -0.2443 -0.0788
13882W        W31406   4.949   7.871   5.165 -0.0200 -0.1534 -0.1195
13883W        W31407   1.169   9.133  12.807 -0.3092 -0.0930 -0.1314
13884W        W31408   9.053   8.544   4.820  0.1578  0.2665  0.0698
13885W        W31409   5.133  17.211   2.912 -0.1535 -0.4817  0.4164
13886W        W31410   0.574  10.994   1.645 -0.1453 -0.0859  0.1287
13887W        W31411  12.581   3.215  13.600  0.2020 -0.0881  0.0162
13888W        W31412   7.556   2.643  13.985 -0.2180  0.1077  0.0193
13889W        W31413  15.495   0.234   1.622  0.3032  0.1357 -0.2729
13890W        W31414  16.793  17.575   0.794 -0.1317  0.1079 -0.0525
13891W        W31415  13.755   3.903  12.208  0.1253  0.0737  0.3370
13892W        W31416  13.681   0.635  14.698  0.0883  0.0689 -0.1357
13893W        W31417   7.090  14.103  11.880  0.1072 -0.0624  0.0904
13894W        W31418   5.219  11.163   1.166 -0.0569  0.1533 -0.1643
13895W        W31419  10.117   0.809   4.063  0.0003 -0.3432 -0.0330
13896W        W31420  14.706  17.359   5.349  0.0579 -0.0426 -0.2500
13897W        W31421  15.804   2.586  13.048  0.3337  0.0723 -0.1252
13898W        W31422   3.413   6.495  12.963  0.0161 -0.4390  0.0716
13899W        W31423  12.189  15.434   5.771  0.0822  0.0960 -0.0169
13900W        W31424  14.553   2.027   4.418 -0.0711  0.2435 -0.1263
13901W        W31425  11.893   3.876  15.630  0.1897  0.0111 -0.0289
13902W        W31426   4.980   0.009   1.869 -0.0284  0.0113  0.3244
13903W        W31427   1.053   3.767  13.094  0.1759 -0.2719  0.3851
13904W        W31428  15.749   6.667   1.643 -0.0233 -0.1138  0.0889
13905W        W31429   6.226  15.496  11.678  0.0836 -0.2770 -0.1770
13906W        W31430  14.557   4.282  16.312  0.1949  0.2796 -0.0491
13907W        W31431   7.780  17.429   3.979  0.1569  0.2260 -0.1328
13908W        W31432   5.557   1.964  12.442 -0.1246 -0.1414 -0.0529
13909W        W31433   2.441   8.897  12.484 -0.1595  0.0295 -0.1340
13910W        W31434  15.255   5.698  12.024 -0.3433 -0.3935 -0.0431
13911W        W31435   3.831  11.119   2.044 -0.1698 -0.3188  0.1013
13912W        W31436  15.649  17.219  11.577  0.4559 -0.1501 -0.0635
13913W        W31437  15.373  17.348   4.705  0.1464  0.1171  0.1161
13914W        W31438  11.014   2.240  12.351  0.0129  0.0335 -0.1355
13915W        W31439  16.796   0.750  13.818 -0.3479 -0.0342  0.0347
13916W        W31440   7.759   0.667  14.917 -0.1612 -0.1168 -0.1817
13917W        W31441   3.624   6.024   2.060 -0.1761  0.2325 -0.0172
13918W        W31442  17.439   9.992  13.659 -0.1420 -0.1521  0.0979
13919W        W31443   7.120   5.887  13.828  0.0884  0.1020 -0.2944
13920W        W31444   8.165   2.883   0.412  0.1751 -0.1833 -0.2217
13921W        W31445   6.326  16.293  12.386 -0.0297  0.0767 -0.4053
13922W        W31446   4.338  16.870  15.827 -0.2418 -0.0174  0.2628
13923W        W31447   1.413   6.210  14.786 -0.4205 -0.4422 -0.0170
13924W        W31448  10.900   1.472   1.625  0.2340 -0.1515 -0.2628
13925W        W31449   4.678   1.598  15.841  0.0297 -0.3264 -0.2115
13926W        W31450   6.456  16.512   1.355  0.1410 -0.0241  0.1900
13927W        W31451   4.596   7.154   4.876 -0.0371  0.1808  0.0263
13928W        W31452   7.335   3.864   0.390  0.0534 -0.0192 -0.1816
13929W        W31453  12.466   8.255   0.401 -0.0875  0.2227  0.0376
13930W        W31454   7.312   7.340   0.276  0.1254 -0.1170 -0.0793
13931W        W31455   6.761   0.086   1.790  0.0870  0.0369  0.1267
13932W        W31456  10.280   7.474   3.934  0.1233  0.0456  0.1412
13933W        W31457  11.236  11.407  14.137  0.2152  0.4253  0.3759
13934W        W31458   2.559  17.325  14.717 -0.0455 -0.1732 -0.1651
13935W        W31459   1.841   5.116   0.702  0.1810  0.0932  0.1034
13936W        W31460   0.869   7.245   1.564 -0.1871  0.2309 -0.2520
13937W        W31461  12.943   0.060  11.352 -0.1241  0.0903 -0.2154
13938W        W31462  17.394   2.769  13.686  0.0766 -0.2655  0.1598
13939W        W31463   3.497   5.551  12.939 -0.0356  0.2257 -0.0686
13940W        W31464  16.548   0.147   3.374  0.1248  0.0351  0.0884
13941W        W31465   9.408   7.571  14.140 -0.0011  0.1138 -0.1310
13942W        W31466   6.710   9.997  13.065  0.1580 -0.2579 -0.0719
13943W        W31467   2.902   5.670   2.545 -0.0965  0.2226 -0.4749
13944W        W31468   5.818   9.790  13.708 -0.0873  0.3642  0.0174
13945W        W31469   3.923  15.867   1.483 -0.5213 -0.1924  0.0510
13946W        W31470   7.612  10.977   0.570  0.2447  0.0778 -0.2971
13947W        W31471  14.519  17.504  14.652  0.1189  0.2625 -0.0420
13948W        W31472  14.079  16.251  12.185  0.0563 -0.0767  0.0651
13949W        W31473   2.397  15.249  13.491 -0.0342  0.2640  0.2298
13950W        W31474   4.604  16.562   5.519  0.0089 -0.2524 -0.1261
13951W        W31475   8.749   4.067  12.952  0.4201  0.2380 -0.0389
13952W        W31476   5.669   8.361  14.391 -0.0263  0.1403  0.0756
13953W        W31477   1.690  11.376   3.450  0.1442 -0.2447 -0.0536
13954W        W31478   0.174   1.246   5.415  0.0843  0.1392  0.1818
13955W        W31479   4.338   5.778  13.945  0.0386  0.0961 -0.2563
13956W        W31480  16.128  10.810  13.666 -0.3099  0.2674  0.1122
13957W        W31481   1.030  16.894   3.527 -0.3797  0.0102 -0.2444
13958W        W31482   5.418   3.095   3.775 -0.0078  0.1702  0.1392
13959W        W31483  11.707  13.999  13.594  0.0818 -0.1099 -0.1502
13960W        W31484  10.206  10.498  15.936 -0.0282  0.1736 -0.1912
13961W        W31485   6.056  13.833  15.312  0.0955  0.0842  0.1196
13962W        W31486   3.207  16.107  11.740  0.1268  0.2637 -0.2212
13963W        W31487   9.071   3.844  16.223  0.1414  0.0336  0.0451
13964W        W31488   8.565  10.740   4.778 -0.2589 -0.2471  0.0247
13965W        W31489   4.601   5.364  14.959  0.1732  0.1141 -0.1286
13966W        W31490   8.919  14.282  15.921  0.0100 -0.2846  0.1318
13967W        W31491  14.630   5.985   2.359  0.0914  0.0067  0.0511
13968W        W31492   2.694   5.490  15.135 -0.0220  0.1730  0.4373
13969W        W31493  10.472  12.046   2.851 -0.0134  0.1258 -0.0501
13970W        W31494   4.896  11.518   2.882 -0.1385 -0.1464 -0.1644
13971W        W31495  17.830   5.404  12.529  0.0664 -0.1755 -0.1920
13972W        W31496  16.610   0.371  14.510  0.1447  0.3031 -0.0100
13973W        W31497  17.464  13.146  16.393  0.0736 -0.0881  0.0504
13974W        W31498  16.376   2.352  14.637  0.3281  0.0702 -0.3957
13975W        W31499  13.414   8.196   0.545  0.0397 -0.1173  0.5252
13976W        W31500   5.003   9.425   4.169  0.3216 -0.2243  0.0084
13977W        W31501   3.976   6.285   1.032 -0.2340 -0.1453 -0.0268
13978W        W31502   8.243  17.324  14.402 -0.0509 -0.0392 -0.1204
13979W        W31503  17.765   0.225   0.407 -0.0343 -0.1387  0.0682
13980W        W31504  14.412   6.208   0.113  0.0412  0.0258  0.5181
13981W        W31505  17.236  16.379  14.258  0.0211 -0.2628  0.0861
13982W        W31506  17.909  15.139  12.998 -0.0157  0.1528 -0.0767
13983W        W31507  10.308  15.753  10.624 -0.0732 -0.0613 -0.0420
13984W        W31508   1.396   5.422  13.684 -0.0165 -0.1055 -0.2748
13985W        W31509   3.288  12.523  12.043 -0.3238 -0.1570 -0.1375
13986W        W31510  14.020   3.163  12.595  0.3353 -0.0353 -0.4527
13987W        W31511   0.717   8.494  15.128 -0.1433  0.1150  0.0896
13988W        W31512  12.850   0.130  14.032 -0.2764  0.4714 -0.2513
13989W        W31513  10.796   3.207   1.999  0.0318 -0.0729 -0.1198
13990W        W31514  10.706  14.448  14.067  0.1621  0.2280 -0.0895
13991W        W31515  15.163  15.613   1.970  0.1485 -0.2874 -0.1932
13992W        W31516   4.663   8.509  15.847 -0.0552  0.0599 -0.2185
13993W        W31517  11.274   0.198   3.569 -0.2069  0.2006  0.0420
13994W        W31518   0.655   3.846  15.010 -0.1110  0.0769 -0.2703
13995W        W31519   1.914   4.207  12.398  0.0921  0.0996 -0.2039
13996W        W31520  11.162   3.246  15.435  0.1629 -0.0009  0.1991
13997W        W31521  10.380   2.413   0.106  0.2974  0.0604  0.0400
13998W        W31522   8.495   9.601  14.649  0.0515 -0.0419 -0.2004
13999W        W31523  16.077  16.271   0.683 -0.5075  0.1809 -0.0683
14000W        W31524   4.912  17.965  11.900  0.0878 -0.0694 -0.2510
14001W        W31525  13.271   1.399   0.692 -0.5252 -0.2438  0.1067
14002W        W31526   9.204   9.693  14.670  0.1238 -0.2547 -0.0210
14003W        W31527   2.892  16.391  12.645  0.0741  0.3506 -0.0372
14004W        W31528   6.780  12.870   3.455 -0.0717  0.0743  0.1204
14005W        W31529  10.770   1.333  11.898 -0.2156  0.0169  0.2156
14006W        W31530   1.724  13.686   2.654 -0.1727 -0.1351  0.0844
14007W        W31531  14.539   6.881  15.041 -0.3162  0.1260  0.1776
14008W        W31532  13.361  16.820   5.615 -0.0471  0.3646 -0.1197
14009W        W31533   3.675   0.142   5.452  0.1023 -0.1486 -0.3294
14010W        W31534   1.711  16.280  13.955  0.2383 -0.0955 -0.2524
14011W        W31535   1.300   4.524  15.136  0.0774  0.2206  0.0424
14012W        W31536   7.136  12.521  11.806  0.2276  0.0266  0.0044
14013W        W31537   2.464   0.137   0.446  0.0168  0.5992  0.0210
14014W        W31538  14.931   7.646  16.387  0.4109 -0.1113  0.0475
14015W        W31539  10.879  10.473  14.950  0.0198  0.0324  0.0528
14016W        W31540  12.775  15.416   0.687  0.2984 -0.1252  0.0021
14017W        W31541  14.080   4.644  12.478 -0.1312  0.0481  0.1399
14018W        W31542  14.923  15.280   2.823  0.0503 -0.0097 -0.0038
14019W        W31543   2.791   6.544   1.982 -0.0037 -0.0736 -0.0529
14020W        W31544   7.793  13.561  13.829  0.0299 -0.0335  0.0153
14021W        W31545  10.820  17.942  13.064 -0.0688  0.4142  0.2097
14022W        W31546  11.084  16.572  14.078  0.1318  0.0996  0.2537
14023W        W31547   5.755   8.979  13.080  0.0149  0.0779  0.1334
14024W        W31548   0.412  10.269  15.621  0.0065 -0.1205 -0.1214
14025W        W31549   1.938  15.639   0.195 -0.0499  0.2808  0.0298
14026W        W31550   9.223   0.543  12.209  0.3152  0.0236 -0.2115
14027W        W31551   5.925   1.439  11.368  0.4563  0.2680 -0.0199
14028W        W31552   3.773   7.423  12.819 -0.6904  0.3311  0.0102
14029W        W31553   1.625   5.189   1.283  0.2354  0.0169 -0.2659
14030W        W31554  16.022  16.239   1.989  0.0479  0.0392 -0.0912
14031W        W31555  11.586  12.692   3.937  0.0546 -0.0028  0.2252
14032W        W31556  13.784   3.705   3.223 -0.0852 -0.0274  0.2079
14033W        W31557  15.553  10.095  12.730 -0.0601  0.2395  0.1014
14034W        W31558  13.991   5.041  13.348  0.1204 -0.0531  0.1150
14035W        W31559  12.476  14.399  12.413 -0.0533 -0.1483  0.0484
14036W        W31560   9.939   4.396  12.362 -0.0495  0.2933 -0.2862
14037W        W31561  10.940   3.977  12.406  0.1265  0.1649 -0.4581
14038W        W31562   4.063   7.952  15.168 -0.1934  0.0378  0.1899
14039W        W31563   2.467   1.434   4.568  0.1114 -0.1466 -0.2350
14040W        W31564  15.754   4.804  14.080 -0.3233  0.1676  0.0825
14041W        W31565   6.776   8.045   4.780  0.4316  0.1572 -0.1077
14042W        W31566   4.294  11.861   4.286 -0.0106 -0.0900  0.0900
14043W        W31567  12.363  17.431  14.634 -0.0441  0.0170 -0.3615
14044W        W31568   9.360   9.318  15.435  0.1181  0.1257 -0.0118
14045W        W31569   0.175  14.624   2.163  0.1421 -0.1508 -0.1382
14046W        W31570  10.047  15.306  14.728  0.0151 -0.0416 -0.1312
14047W        W31571   6.926  17.310  10.548  0.1964  0.1267  0.0610
14048W        W31572  10.310  10.814   2.782 -0.0029  0.1768  0.1402
14049W        W31573  11.365  10.162   0.850 -0.0896 -0.2047  0.1734
14050W        W31574  12.208  13.975  16.221  0.0823 -0.0911  0.2634
14051W        W31575   7.822   4.894  14.367  0.0206 -0.1318  0.1485
14052W        W31576   8.981  14.966  13.943 -0.1012  0.2966  0.2646
14053W        W31577   2.032  13.045  12.712 -0.1920  0.0301  0.2631
14054W        W31578   6.242  17.324  13.109  0.1556 -0.2203 -0.1835
14055W        W31579   9.644   2.212  11.634 -0.4535  0.1430  0.3876
14056W        W31580  11.351   6.343   4.751  0.1172  0.0117 -0.2089
14057W        W31581  12.317  10.218  13.527  0.1128 -0.2478  0.2735
14058W        W31582  13.405   2.775   0.218 -0.2002 -0.1210  0.2580
14059W        W31583   3.708   5.861   0.099 -0.0733  0.0802  0.0064
14060W        W31584   1.408  10.491  11.834  0.2863  0.0563 -0.2969
14061W        W31585  13.442  10.333   3.490 -0.0935  0.1227  0.0650
14062W        W31586   2.400  11.505  14.152 -0.0725 -0.1480 -0.2513
14063W        W31587   9.160   3.334   3.682  0.1003  0.1608 -0.0109
14064W        W31588   3.106  16.686   0.672  0.0031  0.1137 -0.0005
14065W        W31589   9.008  15.209   3.508 -0.1113  0.1539  0.0657
14066W        W31590   8.484   9.670  11.250  0.3210  0.0768 -0.1753
14067W        W31591  13.530   8.731   4.621 -0.0405  0.0291 -0.0378
14068W        W31592  13.907   6.026  14.788  0.0192  0.2029 -0.0034
14069W        W31593  17.845  12.066  13.408  0.2626  0.1204  0.0541
14070W        W31594   7.154   0.236  11.068  0.0271  0.1321  0.2417
14071W        W31595   4.536  10.656   0.580 -0.1413 -0.0380 -0.0366
14072W        W31596   7.426   1.541   3.736  0.1165  0.1531  0.1578
14073W        W31597   0.463  16.947  11.750  0.1607  0.1177 -0.2076
14074W        W31598  15.674  13.267   3.644  0.1858  0.3267 -0.2787
14075W        W31599  11.986   0.219  15.901 -0.2396 -0.0079  0.0527
14076W        W31600  16.286  12.943   4.324 -0.0048 -0.0805  0.2177
14077W        W31601   5.030   5.209   2.612  0.1925 -0.0367 -0.2460
14078W        W31602  17.263  12.555   1.342  0.1135  0.4349 -0.3087
14079W        W31603   2.652   4.946  13.934 -0.1712 -0.0043 -0.1747
14080W        W31604  16.448  16.129  13.392 -0.2676 -0.0950 -0.2168
14081W        W31605   0.490  12.390   3.518  0.1011  0.0077 -0.3387
14082W        W31606   0.149  10.813  11.941  0.0905  0.1923 -0.2375
14083W        W31607  17.221   6.730   1.191  0.2870  0.0709  0.0568
14084W        W31608   1.131   3.319   4.087  0.3282  0.0598 -0.0417
14085W        W31609   6.487   4.692   0.689  0.1798  0.1072 -0.2894
14086W        W31610  10.892   3.630   1.804  0.2334  0.0444  0.1734
14087W        W31611   6.450   7.340   4.499  0.1561  0.0714 -0.3648
14088W        W31612   2.273  17.058   4.446 -0.1676 -0.0556 -0.2360
14089W        W31613  11.770  14.005   3.897  0.3363  0.0140  0.1088
14090W        W31614   7.648  14.690   3.868 -0.3019 -0.2881 -0.1139
14091W        W31615   4.791   1.396   0.352  0.0327 -0.0941 -0.1129
14092W        W31616   2.980   0.580   1.602  0.0822 -0.1639 -0.2219
14093W        W31617   7.357  15.061   4.164 -0.1490 -0.2307 -0.1897
14094W        W31618   6.213   0.254  12.908 -0.0584  0.1342 -0.0399
14095W        W31619   5.652   2.116  15.511 -0.1880 -0.0585 -0.2132
14096W        W31620  14.952  14.013  15.942 -0.0841 -0.0254 -0.0647
14097W        W31621   2.371   7.272  12.560  0.1870  0.0889  0.1670
14098W        W31622  14.809   5.511  11.909 -0.4683  0.0593  0.2192
14099W        W31623   6.403  15.422  13.160 -0.0715 -0.0082  0.0140
14100W        W31624   0.845   9.968   3.799  0.1003  0.0881  0.0722
14101W        W31625  16.353  10.397  10.539 -0.0646 -0.1688 -0.4301
14102W        W31626  16.839  17.423  13.431  0.0097 -0.1325 -0.1032
14103W        W31627  16.179   3.953   1.873 -0.1019 -0.2275 -0.3010
14104W        W31628   7.948   0.971   0.324  0.0005  0.1051  0.1526
14105W        W31629   7.258   0.642  15.683 -0.2054  0.1473 -0.2901
14106W        W31630   4.838   9.342   3.506  0.0459 -0.0455 -0.1975
14107W        W31631  15.421  11.503   3.575  0.0295  0.0113 -0.1291
14108W        W31632   1.457  12.703  13.903  0.5369 -0.2043 -0.3040
14109W        W31633   3.694  13.774  16.088 -0.1691  0.0449 -0.1382
14110W        W31634  12.628   5.608  15.452  0.1284 -0.1849 -0.0168
14111W        W31635  11.771  16.336   1.262 -0.0738  0.2381  0.1944
14112W        W31636   8.456  13.155   2.379 -0.1524  0.0143  0.0427
14113W        W31637  12.139   4.690  11.567  0.2754  0.0946  0.5236
14114W        W31638   5.252  13.524  16.189  0.1428  0.1560 -0.0999
14115W        W31639  13.458   9.110  13.167 -0.1325  0.2010 -0.3041
14116W        W31640   9.535   2.827   0.596 -0.0583  0.0043  0.0445
14117W        W31641   9.215   2.304   4.167  0.3074 -0.1862  0.0744
14118W        W31642   7.207  16.126  12.917 -0.1421  0.0979  0.1922
14119W        W31643   1.831   6.455   4.418 -0.1264 -0.0700 -0.1469
14120W        W31644   0.747   0.990   2.752  0.2405  0.1128  0.1080
14121W        W31645  16.237   4.706   2.397 -0.0123  0.0981 -0.3024
14122W        W31646   2.421  10.114  13.847  0.3928  0.0181 -0.1572
14123W        W31647   4.066   5.784   4.254 -0.1148  0.1027  0.0325
14124W        W31648  17.053   9.368   0.443  0.1822  0.1864 -0.2037
14125W        W31649  12.969   8.089  16.108  0.1200  0.0739  0.2637
14126W        W31650   5.965  10.114   2.004 -0.1416 -0.1106 -0.0719
14127W        W31651   9.257   2.112  14.604 -0.1005 -0.0397 -0.2260
14128W        W31652  13.989   2.158   4.251  0.1004 -0.2533 -0.0417
14129W        W31653   0.336  16.743  14.240  0.0012 -0.1007  0.0794
14130W        W31654   1.603  11.985  12.161 -0.4750 -0.2574  0.0856
14131W        W31655  13.362  13.186   2.092  0.1207 -0.4108  0.1366
14132W        W31656   8.550   6.189   4.731 -0.1705 -0.1321  0.0386
14133W        W31657  10.180  16.590   3.371 -0.0358  0.0238  0.0360
14134W        W31658  17.207  14.411   2.278  0.0409 -0.0526  0.2557
14135W        W31659  16.269   6.050  12.584 -0.5133 -0.0173  0.1500
14136W        W31660  11.082  10.819   2.278  0.4060 -0.1556  0.0362
14137W        W31661   9.895   0.035   1.955 -0.1106  0.1757  0.1993
14138W        W31662  14.721   3.398   1.069  0.2251  0.0851  0.1831
14139W        W31663  15.726   4.717   4.793  0.0589 -0.0179 -0.1503
14140W        W31664   2.350  12.212  12.007 -0.3259  0.0431 -0.0093
14141W        W31665   4.836  15.400  12.785  0.2185 -0.1667 -0.1646
14142W        W31666   0.025   9.487  15.734 -0.0434 -0.2438  0.0439
14143W        W31667   1.150  15.018   3.746 -0.0175 -0.0765 -0.0903
14144W        W31668   0.359   2.932  16.360 -0.0986  0.0720  0.0128
14145W        W31669   6.019   2.406  11.283 -0.0874 -0.1779 -0.1367
14146W        W31670  14.704   9.507  14.270 -0.1084 -0.0555  0.3380
14147W        W31671   9.386  17.799  12.973 -0.2305  0.1567 -0.0072
14148W        W31672  15.702   3.202  12.180  0.1975 -0.0015 -0.1208
14149W        W31673  15.331  12.567  12.496  0.2458 -0.0965 -0.1637
14150W        W31674   3.474  13.450   0.438 -0.1520 -0.0105 -0.1386
14151W        W31675   1.153  14.711  14.225  0.0525 -0.1927  0.0152
14152W        W31676  17.301   7.711   3.548 -0.0085 -0.1768 -0.2642
14153W        W31677   7.920  17.768   3.118 -0.2784 -0.0647 -0.1751
14154W        W31678   7.591  16.357   0.398 -0.2342 -0.2082  0.4647
14155W        W31679  10.176   5.071  12.374  0.0999 -0.0918 -0.1978
14156W        W31680  10.112  10.730   1.913 -0.0200 -0.3503 -0.1518
14157W        W31681   1.459  16.566   4.922 -0.0357 -0.0546 -0.0333
14158W        W31682   7.790  15.734  15.976 -0.1498  0.1876  0.0590
14159W        W31683   7.826   0.240  14.554  0.0278 -0.0793  0.1141
14160W        W31684  10.669   6.473   0.985 -0.2090  0.0581  0.2826
14161W        W31685  12.375  16.129   3.264 -0.0691  0.0721 -0.5951
14162W        W31686   7.198  12.310  14.788  0.1483  0.0129 -0.1009
14163W        W31687  13.195  12.886  16.396  0.1429 -0.0610  0.1980
14164W        W31688   0.108  10.870  11.431 -0.1235  0.0549 -0.6611
14165W        W31689  13.597  16.640   4.031  0.1575  0.0004  0.0279
14166W        W31690   1.513  11.398  15.922 -0.0088  0.4052 -0.0352
14167W        W31691  15.790   3.629  15.514 -0.1663  0.1401  0.0130
14168W        W31692   2.347   7.423   2.842  0.0913  0.1386 -0.1522
14169W        W31693  10.817   6.436   4.765  0.1632 -0.0343  0.0054
14170W        W31694   7.594  10.368   3.745 -0.0442 -0.3051 -0.4298
14171W        W31695   9.759   2.246  12.822  0.0991  0.0736  0.1390
14172W        W31696  16.952   2.161   5.036  0.2287  0.1562  0.0962
14173W        W31697  10.793   7.906  13.607  0.0045  0.0067  0.3219
14174W        W31698  11.735  14.083   1.488  0.2787 -0.2091 -0.0763
14175W        W31699  13.715   7.995   4.140  0.3849 -0.0517  0.1373
14176W        W31700  16.191   1.397  14.744  0.4082 -0.4166  0.3088
14177W        W31701   1.743  17.487  12.167 -0.0524  0.2662 -0.2470
14178W        W31702   7.433  10.330   3.065 -0.3298 -0.0387  0.0282
14179W        W31703  16.208   3.557  16.320  0.3118  0.0751  0.1205
14180W        W31704   4.188  13.591   1.782  0.0915  0.2387  0.0981
14181W        W31705  14.280  10.268  15.596 -0.0925  0.0560  0.3490
14182W        W31706   6.335   7.916   2.895 -0.0966 -0.1363  0.1272
14183W        W31707  13.557  11.739  14.087 -0.3995 -0.6073 -0.0886
14184W        W31708   3.721  15.775  13.225 -0.1439  0.0922 -0.1895
14185W        W31709  17.078  17.687  16.344  0.0202 -0.4061  0.2242
14186W        W31710  14.376   5.126  15.027 -0.1119 -0.1690 -0.0028
14187W        W31711  17.601   7.014   0.908 -0.2003 -0.0465  0.0051
14188W        W31712   3.310   5.798   0.549 -0.2147 -0.2286 -0.0686
14189W        W31713   5.379   5.880  15.020  0.0052  0.2293  0.3332
14190W        W31714  16.392   2.528   5.078 -0.0994  0.0949  0.1381
14191W        W31715  12.706   1.770  13.158 -0.2878  0.0138  0.2010
14192W        W31716   7.679   3.370   3.208 -0.3361 -0.0274  0.0026
14193W        W31717  15.210   1.750  13.445 -0.3025  0.1961 -0.0131
14194W        W31718   3.863  12.937   2.852  0.0809  0.2660  0.0783
14195W        W31719  14.682   0.159  14.930  0.0746  0.0482 -0.0740
14196W        W31720  10.458  11.285   2.654 -0.2750 -0.2805  0.1615
14197W        W31721  12.743  10.773   0.082  0.2758  0.0497 -0.1841
14198W        W31722   4.493   4.161   5.992  0.0206  0.3817  0.4359
14199W        W31723  16.500   1.547   4.776  0.0548  0.3338 -0.1298
14200W        W31724   0.048   7.350   0.725 -0.2529  0.0366  0.0544
14201W        W31725   5.635   1.488  15.326  0.1184  0.0433  0.0989
14202W        W31726  13.596  11.798   3.344  0.4380  0.3466 -0.0284
14203W        W31727   5.549   6.475   4.869  0.6096  0.0748  0.2781
14204W        W31728  17.280   3.010   3.047  0.0606 -0.5246 -0.1824
14205W        W31729   8.769  10.818  12.701  0.0730  0.1071 -0.2059
14206W        W31730  13.737   5.752   1.436 -0.0624  0.2179  0.1319
14207W        W31731  13.214  17.388  11.724 -0.0510 -0.0217  0.1348
14208W        W31732  12.794  11.725   5.402 -0.1643  0.1481  0.0436
14209W        W31733  14.635  10.523  11.403  0.0242  0.1806 -0.0464
14210W        W31734  14.570   9.188   1.832 -0.0187  0.3409 -0.0916
14211W        W31735  11.148   2.021  12.819  0.0154  0.2734 -0.1387
14212W        W31736   3.774   5.302   1.311  0.1345 -0.2358  0.3157
14213W        W31737  13.174   4.140  15.990  0.2393 -0.1243 -0.3562
14214W        W31738   7.416   1.478  12.774 -0.4089 -0.0647 -0.3320
14215W        W31739   5.669  10.346   2.912  0.0717  0.3278 -0.2781
14216W        W31740  12.338   4.453   3.996 -0.1076  0.1475 -0.1984
14217W        W31741   5.134  16.589  11.681 -0.3306  0.2265 -0.1037
14218W        W31742   5.645  15.691   1.679  0.1042  0.3820  0.2927
14219W        W31743   4.383   4.579   3.447  0.1464  0.1956  0.0540
14220W        W31744  15.076   2.430  16.041 -0.1207 -0.0743  0.2890
14221W        W31745  16.616   1.519   1.141 -0.5325  0.1160 -0.1786
14222W        W31746   5.688   2.599   2.874 -0.1740  0.2897 -0.0088
14223W        W31747   6.181   2.514   2.341  0.0702 -0.0566  0.2125
14224W        W31748  14.545   8.518  16.225  0.0000  0.0523  0.2503
14225W        W31749   3.833   6.654   3.620  0.0322  0.1490  0.0130
14226W        W31750  15.042   2.107  13.906  0.2081  0.2716  0.1614
14227W        W31751   2.433   9.900   1.762  0.1317 -0.0474 -0.0648
14228W        W31752   3.646  15.150   4.382 -0.1014  0.3058  0.0035
14229W        W31753   3.809  16.058   3.956  0.3822  0.0790  0.2321
14230W        W31754  15.066  12.386   1.508 -0.0514  0.2271 -0.1314
14231W        W31755   8.305   0.769   2.845 -0.2207 -0.1413  0.1749
14232W        W31756  11.074   1.609  14.613 -0.1146  0.1168  0.2276
14233W        W31757   6.092  11.655  10.601  0.1988 -0.0689  0.0543
14234W        W31758   1.004  13.636   1.606 -0.2216  0.2764 -0.1476
14235W        W31759   6.848   2.028   1.047  0.1610 -0.4126 -0.0935
14236W        W31760  11.042   2.264   4.377  0.0866  0.3014  0.0923
14237W        W31761  17.666   6.043   0.823 -0.4057  0.2561  0.3339
14238W        W31762   6.264  16.296   0.624 -0.2226 -0.0331 -0.1522
14239W        W31763  12.184  15.055   1.524  0.1950 -0.2259  0.1019
14240W        W31764   2.565  16.598  11.759  0.0275  0.2070  0.1509
14241W        W31765   5.617   3.070  15.496  0.0180  0.4182  0.0942
14242W        W31766   4.694  10.655   2.734 -0.0762  0.0603 -0.0947
14243W        W31767   0.485  11.404   0.441  0.0723 -0.0756 -0.1618
14244W        W31768   5.687   6.456   3.429  0.2626 -0.0894 -0.1247
14245W        W31769   6.394  10.971   2.307 -0.1325  0.2105  0.0065
14246W        W31770  13.800  15.156   4.697  0.2670 -0.1480 -0.0090
14247W        W31771  15.676   4.658  12.886 -0.2146  0.4355  0.3064
14248W        W31772   3.570   8.865   3.134 -0.1642 -0.0278 -0.2098
14249W        W31773   8.021   3.364   2.820  0.2543 -0.0302  0.1256
14250W        W31774   5.806   3.061  16.350  0.1020  0.2307  0.2659
14251W        W31775   4.120  15.266   3.072  0.3538  0.2234 -0.0096
14252W        W31776   3.370   9.545  15.191  0.3220 -0.1688 -0.0014
14253W        W31777  12.136   9.362  15.803  0.0438 -0.0709  0.1255
14254W        W31778   3.637  14.682  14.550 -0.1612 -0.0539  0.0368
14255W        W31779   4.794   3.908   2.924 -0.0030 -0.2479 -0.1652
14256W        W31780   1.835   2.825   1.345  0.0528 -0.2162 -0.1428
14257W        W31781   9.464   6.787   1.937  0.0306 -0.3433  0.1145
14258W        W31782  11.793  14.445  11.632 -0.1892  0.2261 -0.1719
14259W        W31783  16.484   7.107  15.462  0.0211 -0.0775 -0.4020
14260W        W31784  14.567  11.764   3.994  0.0020 -0.1372  0.1737
14261W        W31785   1.723   6.298   1.985  0.2017 -0.2359  0.0966
14262W        W31786   3.743   1.578   0.295 -0.0171 -0.0870  0.0039
14263W        W31787   4.581   3.702  16.262  0.1226  0.2727  0.0829
14264W        W31788   1.451   4.174  13.237 -0.0504  0.0477  0.3231
14265W        W31789   4.200   0.461   1.252 -0.2058  0.1462 -0.3385
14266W        W31790   9.156   0.352   3.120 -0.3197  0.2491  0.0549
14267W        W31791   9.616  11.564  15.260  0.1987 -0.0513 -0.2339
14268W        W31792   3.425   8.321  12.941 -0.0940 -0.2101  0.3739
14269W        W31793   1.646  10.021  11.722 -0.2653  0.1143 -0.0396
14270W        W31794   0.635  17.783   0.162  0.0862 -0.1808  0.1887
14271W        W31795   0.693   8.437   2.836  0.0464 -0.0681  0.0403
14272W        W31796  13.115   8.706  11.737  0.0024  0.0936  0.0824
14273W        W31797   3.952   5.221  13.092  0.0973 -0.0855  0.0267
14274W        W31798  13.869  13.980  11.506 -0.2733 -0.2889 -0.1739
14275W        W31799   0.533  12.262   0.441  0.0772 -0.0428 -0.2818
14276W        W31800   9.265  12.760  13.612  0.0266  0.0600  0.2025
14277W        W31801   4.701  17.966   1.395 -0.0001 -0.0437 -0.0452
14278W        W31802   5.517   7.626   1.246  0.3296  0.0648  0.2069
14279W        W31803   0.646   3.307   4.063  0.3332  0.2503  0.0542
14280W        W31804  17.264  15.236   2.851 -0.0185  0.2473  0.0289
14281W        W31805  15.515  17.190   1.375  0.0608 -0.0013 -0.4373
14282W        W31806   4.442  13.374   4.379  0.0865  0.1037 -0.0784
14283W        W31807   1.273   2.686   2.085 -0.2623 -0.0456  0.0374
14284W        W31808   5.869  10.345   3.655  0.1620  0.2277  0.0474
14285W        W31809   6.562   8.093  14.443 -0.2568 -0.2291  0.0237
14286W        W31810   3.398  14.257   1.662 -0.3913  0.0044 -0.4084
14287W        W31811  17.535  16.883   4.612 -0.2381  0.0313 -0.1078
14288W        W31812   6.536   3.710   0.497 -0.1608 -0.1529 -0.0993
14289W        W31813   8.060   7.701  12.265 -0.1475  0.0508  0.2405
14290W        W31814   3.363  17.536   4.817  0.1003 -0.2177 -0.1259
14291W        W31815  14.995  14.427   2.781  0.0056  0.3709 -0.0620
14292W        W31816  15.711   7.154   3.996 -0.2040  0.0604 -0.2176
14293W        W31817   5.571  14.009  15.360 -0.1400 -0.2837  0.0313
14294W        W31818   1.759   0.548   2.131  0.0656 -0.0449  0.0750
14295W        W31819   6.239  12.881  11.992  0.0893  0.0543  0.1904
14296W        W31820   0.659  14.863  14.043  0.1747 -0.0935  0.0136
14297W        W31821  15.002   1.474   4.810  0.1050 -0.1369 -0.2215
14298W        W31822   2.746   3.610  12.050  0.0340 -0.0387 -0.0385
14299W        W31823  10.453   8.783  13.586  0.1226  0.0253  0.0564
14300W        W31824   8.863   6.621   1.935 -0.4508 -0.0968  0.0419
14301W        W31825   6.803  11.755  12.866  0.4524 -0.0901  0.0558
14302W        W31826   2.663   7.629  12.353 -0.2047 -0.2951 -0.1080
14303W        W31827   8.164  14.227  14.963  0.0197  0.3464  0.3085
14304W        W31828  10.172   7.355   2.073 -0.0884  0.1382 -0.1041
14305W        W31829   6.265  16.919   4.646  0.1503 -0.1227  0.0541
14306W        W31830  15.115  12.013   1.843  0.0120 -0.0678 -0.2063
14307W        W31831  17.757   2.066   2.460  0.3056  0.0874  0.0639
14308W        W31832   3.149   9.637  13.414  0.1905 -0.0343  0.1091
14309W        W31833   6.915   1.475   1.126  0.2188  0.0507 -0.1739
14310W        W31834   5.790  10.105  16.421 -0.1169  0.4945  0.1551
14311W        W31835  17.595  13.246  15.145  0.1178 -0.0334  0.2187
14312W        W31836  13.288   7.994  15.650  0.1742  0.0604 -0.1795
14313W        W31837   5.383   5.678  11.459 -0.1132  0.5223 -0.1986
14314W        W31838   8.405   7.131   3.342  0.0548 -0.3189 -0.0165
14315W        W31839  13.481  17.734  13.019 -0.3171  0.1813 -0.0985
14316W        W31840   1.781   8.975  14.600 -0.0085  0.3468 -0.1205
14317W        W31841  11.200  10.907   1.361 -0.1929 -0.1104 -0.0573
14318W        W31842   5.076  10.150   1.726 -0.2431 -0.0918 -0.1246
14319W        W31843   8.814  13.295   2.724 -0.3262 -0.3343  0.0612
14320W        W31844  15.880   8.936  14.783  0.2370 -0.0279 -0.0669
14321W        W31845  16.393   6.808  14.525 -0.2510 -0.4138  0.2156
14322W        W31846   4.735   8.379  14.791 -0.0687  0.1982 -0.1631
14323W        W31847   9.372  12.764   2.273 -0.2837 -0.2204  0.1402
14324W        W31848   1.441   5.925   0.056 -0.2777  0.0990 -0.2251
14325W        W31849  14.091   4.180  12.766  0.1054 -0.1111 -0.2724
14326W        W31850  10.053   5.336   2.419  0.3029 -0.0124 -0.0621
14327W        W31851   5.836  12.995   6.280 -0.3468  0.1847 -0.1073
14328W        W31852   8.623  14.148  15.319  0.1523 -0.2986 -0.1765
14329W        W31853   2.496   1.717  15.977  0.0516  0.0166 -0.1250
14330W        W31854   8.821   3.870   2.956  0.0034 -0.0086  0.1344
14331W        W31855  12.702  14.871   2.396 -0.0164  0.2074 -0.2353
14332W        W31856   6.723  10.533   0.667  0.1899  0.1077 -0.2583
14333W        W31857  15.708  17.512   2.737  0.0584 -0.3327  0.0646
14334W        W31858  16.078   3.207   4.404 -0.0825 -0.1658  0.4456
14335W        W31859  15.384  14.103   0.118 -0.1093  0.0223 -0.2595
14336W        W31860   3.528   6.526  12.486  0.0331  0.1896  0.2362
14337W        W31861  14.139   2.320  15.739 -0.0841  0.1749  0.0997
14338W        W31862   8.787   0.853  15.441 -0.1079 -0.1489 -0.0082
14339W        W31863  12.452   2.127  16.295  0.0961 -0.1093  0.1170
14340W        W31864  10.274   2.504  15.231  0.2045  0.0972  0.0359
14341W        W31865   0.223   5.975   2.818  0.0868  0.0843 -0.0218
14342W        W31866   2.802  17.936   2.640  0.0574  0.0526 -0.0488
14343W        W31867  14.876   8.236  12.260 -0.0689  0.3328 -0.1413
14344W        W31868   4.701  12.295  14.552  0.2692  0.4769  0.2181
14345W        W31869  11.670  15.500   5.898  0.1709 -0.1705 -0.0535
14346W        W31870   0.785  11.240  12.493 -0.2070  0.0872 -0.0667
14347W        W31871   7.580   4.376   6.067  0.0697 -0.1278 -0.2129
14348W        W31872   0.480   5.578   3.768 -0.1450 -0.3219 -0.1901
14349W        W31873  12.785   0.548  13.358 -0.0796 -0.0043 -0.1744
14350W        W31874  12.327   5.997   0.073 -0.0436  0.1216 -0.1554
14351W        W31875  12.451   5.965  15.831  0.1754  0.0673  0.2190
14352W        W31876   3.249   6.528  15.874  0.1453 -0.2233 -0.1000
14353W        W31877   0.856  16.511  13.491 -0.2913  0.4765 -0.1790
14354W        W31878  13.508  17.554   0.544  0.1714 -0.2765 -0.0198
14355W        W31879   3.344  15.054   2.397  0.1930  0.0200  0.0143
14356W        W31880   0.760  15.172  13.653 -0.1125  0.2248  0.1811
14357W        W31881  10.044   7.057   3.988  0.0933 -0.1964 -0.0295
14358W        W31882  14.471   7.506   1.397  0.1081  0.1747  0.2456
14359W        W31883  15.787   9.684  10.535  0.0479  0.1209 -0.0183
14360W        W31884  14.876   7.305   3.287 -0.2797  0.0253  0.1134
14361W        W31885  12.118  15.083   2.937  0.2007  0.0595  0.1941
14362W        W31886  11.794  17.667  15.296  0.1920  0.2129  0.1321
14363W        W31887   8.502   0.804  14.466  0.2234  0.0701 -0.1482
14364W        W31888   2.403  15.399   3.471  0.1256  0.1182 -0.2572
14365W        W31889  14.202  14.139   3.819 -0.0240 -0.3925 -0.0884
14366W        W31890  12.733   1.663  14.965 -0.0726  0.0460  0.1779
14367W        W31891  13.122  17.592   0.891 -0.0906  0.2298 -0.0356
14368W        W31892   2.257   6.031   4.457  0.0894 -0.0800 -0.2765
14369W        W31893  10.198   0.782  14.299 -0.0341 -0.0631 -0.3261
14370W        W31894   4.609   0.763  15.229 -0.1054 -0.1416  0.2358
14371W        W31895   4.643   9.874   4.986  0.1768 -0.1755 -0.0247
14372W        W31896   3.321   7.126  12.348  0.1716 -0.0773  0.0783
14373W        W31897   8.002   7.574  14.910  0.1199  0.1775  0.2107
14374W        W31898  14.917  15.281   1.272  0.3708  0.2892 -0.4352
14375W        W31899   9.492  15.304  14.832 -0.0134 -0.1020 -0.1675
14376W        W31900  15.664   3.427  15.999 -0.2480  0.1074 -0.1753
14377W        W31901  13.921  14.431   2.605  0.1023  0.0450  0.1387
14378W        W31902  13.726   6.622  12.095 -0.1517 -0.2034 -0.0388
14379W        W31903  10.493  15.662  14.092 -0.0983  0.1994 -0.0654
14380W        W31904   8.368  15.004   1.567  0.1630  0.1872  0.1298
14381W        W31905   1.098   1.806  14.661  0.2156  0.1794  0.1798
14382W        W31906  10.460  13.046   1.188  0.1478 -0.0042 -0.0541
14383W        W31907  16.814   2.238  16.142  0.0496 -0.0067 -0.2220
14384W        W31908  14.801   2.532  13.168  0.0393 -0.0240 -0.1268
14385W        W31909  10.147   7.155   3.523 -0.0409 -0.1251 -0.4948
14386W        W31910  17.000   0.060   4.866  0.5278 -0.0786 -0.1089
14387W        W31911  10.248   4.051  16.084  0.0866 -0.1572 -0.0199
14388W        W31912   5.688   7.568  11.836  0.2348 -0.1221 -0.0305
14389W        W31913  12.688   7.132  15.290 -0.0621 -0.0247 -0.0977
14390W        W31914   8.373   4.541  13.664 -0.0999 -0.1149  0.1186
14391W        W31915  15.234   3.958   2.616  0.3272  0.2002  0.0190
14392W        W31916   6.537  13.248   4.838  0.2234  0.3915 -0.0394
14393W        W31917   0.386   8.306  11.384  0.1840  0.0074 -0.2333
14394W        W31918  13.056  17.130   2.951 -0.0419  0.0079  0.0083
14395W        W31919   3.135   6.725   1.148  0.2783 -0.1255 -0.1616
14396W        W31920   9.835  12.669   1.912  0.1074 -0.1701  0.0633
14397W        W31921  17.754   1.177  15.892 -0.1003  0.1020  0.0314
14398W        W31922   5.951  15.957   2.695  0.3363  0.0030 -0.0486
14399W        W31923   1.046   4.954   3.932  0.0093  0.1930  0.4679
14400W        W31924  15.075  17.695  11.958 -0.3390  0.0608 -0.2395
14401W        W31925   5.132   0.778   1.155  0.1174  0.0539 -0.1079
14402W        W31926   1.659   1.292   1.533  0.1300 -0.2116  0.1011
14403W        W31927  15.827   0.761   4.198  0.1619 -0.2479 -0.0594
14404W        W31928  16.020   1.715   1.212  0.0216 -0.0934  0.2216
14405W        W31929  11.175   8.648  14.727 -0.0937  0.0541 -0.0181
14406W        W31930   1.567   1.107   0.642  0.0461 -0.0578 -0.0747
14407W        W31931  11.874   6.942   1.653  0.4320  0.0210 -0.0449
14408W        W31932  16.317  15.709  13.611  0.2549  0.3700  0.1319
14409W        W31933   4.076   7.958   4.133 -0.0549  0.0988 -0.2176
14410W        W31934  16.115  12.796   1.126  0.0503 -0.1026 -0.0846
14411W        W31935   2.799  13.018  13.241  0.2407  0.1447 -0.0706
14412W        W31936   2.696  12.281  16.432 -0.1804 -0.2317 -0.0286
14413W        W31937   3.291   0.841   2.455 -0.1264 -0.0718 -0.0254
14414W        W31938   5.086  17.464  14.812 -0.1531  0.0071  0.0804
14415W        W31939   1.277   1.977   1.817 -0.2204  0.0300 -0.0992
14416W        W31940  17.794  15.327  14.447  0.1555 -0.1273 -0.1560
14417W        W31941  10.085  17.917   1.338 -0.0157  0.0722  0.1335
14418W        W31942   5.673   3.172  14.386 -0.0222 -0.1966  0.0257
14419W        W31943   2.383   7.690   0.747 -0.0752 -0.1385 -0.0679
14420W        W31944   1.969   6.403   2.427  0.2011  0.1069  0.2497
14421W        W31945   0.594  13.608   0.554 -0.2109  0.1690  0.1101
14422W        W31946  12.028  16.301   1.708 -0.0936 -0.1641  0.0343
14423W        W31947  11.753   3.379   2.689  0.1278  0.1941  0.3963
14424W        W31948  17.412  11.221  15.241 -0.1284 -0.3015 -0.0930
14425W        W31949  11.586  15.844   1.057 -0.1949 -0.3866  0.1068
14426W        W31950   0.490   3.118  14.340 -0.1159  0.1310 -0.2537
14427W        W31951  14.289   0.956  12.730 -0.3034  0.1891  0.0564
14428W        W31952  14.838   2.174   0.697  0.0465  0.1991 -0.0821
14429W        W31953   6.572   0.429   2.994  0.1468 -0.1648  0.2882
14430W        W31954   4.323  14.643   0.876  0.1925  0.1414 -0.1164
14431W        W31955  15.573  14.632   1.951 -0.0105  0.0803 -0.2024
14432W        W31956  15.254   5.677  14.730 -0.2967  0.0460 -0.2563
14433W        W31957   3.401   9.294   2.880  0.1859  0.3041 -0.1402
14434W        W31958   3.837  16.219  14.454  0.0310  0.1943  0.0186
14435W        W31959   1.364  14.867  16.345 -0.2239 -0.1852 -0.1541
14436W        W31960  14.116   5.126  14.538  0.2650  0.0357 -0.1805
14437W        W31961  10.026  14.785  14.772 -0.1262  0.4197 -0.1531
14438W        W31962   5.568  17.542  14.704  0.0714  0.1852 -0.0816
14439W        W31963   3.715  17.520   2.809  0.0983  0.2442  0.2681
14440W        W31964  16.034  17.267  15.528  0.0771  0.0936  0.0695
14441W        W31965  12.540  13.509  14.868  0.2227  0.2166  0.0227
14442W        W31966   2.045   9.968   4.660 -0.0512  0.2123  0.2938
14443W        W31967  17.340   9.998  15.605  0.2609  0.2384 -0.0898
14444W        W31968  12.944  10.086  15.663  0.0303 -0.1756  0.1050
14445W        W31969  13.044   5.278   0.967 -0.2848 -0.0750  0.0813
14446W        W31970   6.938  16.227   3.783 -0.1854  0.0274  0.3316
14447W        W31971  16.797  11.492  12.927 -0.0989 -0.1879  0.0024
14448W        W31972  16.112  10.273  11.029  0.2708  0.1004 -0.0722
14449W        W31973  16.126  15.310  13.900  0.1721  0.3113  0.2845
14450W        W31974   0.714  17.801   1.219 -0.1826  0.1739  0.3632
14451W        W31975  16.443  11.656   1.512  0.0089  0.1815  0.1732
14452W        W31976   5.164   2.835   4.836 -0.1091 -0.0223  0.0025
14453W        W31977   4.860   4.941   1.896  0.0330  0.1063  0.0222
14454W        W31978  17.217   6.770  11.754  0.0678 -0.0837  0.1813
14455W        W31979   1.496  12.196  11.731 -0.1161 -0.1852 -0.1395
14456W        W31980  10.677  12.192  15.884 -0.3548  0.0556  0.0018
14457W        W31981  11.488   0.341   4.403 -0.1428 -0.0858  0.1316
14458W        W31982  17.440   4.953   4.385 -0.1032 -0.1470  0.1150
14459W        W31983  12.952   6.185  11.247  0.1017  0.0730 -0.0959
14460W        W31984  10.724  13.812  12.708 -0.2085 -0.2086  0.0014
14461W        W31985   0.099   7.227  16.120 -0.1640 -0.1084 -0.0067
14462W        W31986   2.470   7.189   1.477  0.2582  0.1922 -0.1817
14463W        W31987  10.765   7.484  15.359 -0.2297  0.2525  0.1756
14464W        W31988  15.881   6.433   0.039 -0.2553  0.1832 -0.1722
14465W        W31989   0.107  12.174   3.340  0.0509 -0.0522 -0.2604
14466W        W31990  11.419  16.105   0.023 -0.1137  0.0465 -0.3240
14467W        W31991  10.581  15.073   1.318  0.2235 -0.2650  0.2409
14468W        W31992   9.975   5.791  13.314 -0.4285  0.3835  0.0792
14469W        W31993   5.867   9.611   1.327  0.2955 -0.1144 -0.1359
14470W        W31994  13.083  15.162   2.096 -0.1386  0.1352  0.0968
14471W        W31995  13.293   4.050   6.196 -0.0964  0.2383 -0.2767
14472W        W31996   8.132  12.985   1.191  0.0275  0.0739  0.0579
14473W        W31997  10.775   6.103  14.750  0.0620  0.1110 -0.0221
14474W        W31998   8.896  13.101  15.052 -0.1957  0.1216 -0.1033
14475W        W31999  12.270  12.748  15.460  0.0472  0.1073  0.0571
14476W        W32000   2.521  12.512  14.041 -0.0224 -0.1240 -0.3041
14477W        W32001   1.507   6.811   3.655  0.2312  0.1886 -0.0498
14478W        W32002  11.309  11.853  15.074  0.0536 -0.0145  0.1510
14479W        W32003   8.708  13.606  13.624  0.0005 -0.0760  0.4256
14480W        W32004   8.103   0.647  13.752 -0.2335  0.0183  0.0557
14481W        W32005  16.701   6.605  15.405  0.0864  0.0240  0.0688
14482W        W32006   2.126  13.812   4.516  0.2918  0.4554  0.0950
14483W        W32007  14.765  16.503   4.334 -0.0597  0.1414  0.2136
14484W        W32008   1.181  17.580   4.687  0.0792 -0.3001  0.1230
14485W        W32009   8.738   6.160   1.779 -0.3034 -0.0397  0.1641
14486W        W32010   4.582  14.712  14.128  0.1175 -0.3334  0.0371
14487W        W32011   2.306   0.793   2.367 -0.1721 -0.0906 -0.0984
14488W        W32012   4.050  14.986   3.888 -0.0228  0.0435  0.2029
14489W        W32013   5.624  12.361  11.772 -0.2428 -0.0294 -0.1912
14490W        W32014  16.374  17.428  15.899  0.0482 -0.1145 -0.0467
14491W        W32015  10.516  17.767   1.788 -0.3219  0.1585 -0.0428
14492W        W32016   7.170   8.399   2.953 -0.1043  0.0964  0.1789
14493W        W32017  15.635   4.963  12.444  0.0894 -0.0788  0.0815
14494W        W32018  16.535   4.292  13.992 -0.0222  0.0945 -0.0513
14495W        W32019  15.583   6.865  13.119  0.0798  0.0103  0.2169
14496W        W32020   2.568  16.638  14.977 -0.0089  0.2713  0.0261
14497W        W32021   2.593   9.726  12.082  0.2001  0.0751  0.3037
14498W        W32022   9.539   1.793  14.871  0.0484  0.2123  0.0875
14499W        W32023   0.173   6.208   0.704  0.0180  0.1094 -0.0854
14500W        W32024  15.143   9.222  12.601  0.0274 -0.1031 -0.1659
14501W        W32025   1.880  11.013  12.609  0.1073  0.5005  0.1909
14502W        W32026   6.161   6.693  11.957 -0.0625  0.2173 -0.1120
14503W        W32027  12.288   8.461   4.431  0.2934  0.2711 -0.4494
14504W        W32028   8.923   7.220  14.031 -0.1897  0.2454  0.1207
14505W        W32029  11.469   0.348   2.372 -0.0048  0.0593  0.1565
14506W        W32030  15.097  10.530   1.995  0.2725  0.1468  0.0400
14507W        W32031   3.919  12.148  15.424 -0.2329 -0.0075  0.2453
14508W        W32032   8.889   8.854  12.814  0.1410 -0.0670 -0.4248
14509W        W32033  16.717   3.212  12.664 -0.0319 -0.0937  0.1071
14510W        W32034   5.950   7.851  12.667  0.3283  0.0079 -0.0088
14511W        W32035   7.110  15.809   1.497 -0.2144 -0.0638  0.0761
14512W        W32036  11.847  14.073   2.489  0.0437  0.0880  0.2842
14513W        W32037  11.862   1.099   4.534 -0.0173  0.2733  0.0768
14514W        W32038   2.545  11.977   1.452  0.3043 -0.0945  0.1590
14515W        W32039   3.695  10.032  15.881  0.0989  0.1432  0.0997
14516W        W32040  12.022   8.763   1.537  0.3074  0.2182  0.0040
14517W        W32041  16.465   7.813   4.141  0.2105 -0.0476  0.2066
14518W        W32042  11.404   5.057  14.328  0.1897 -0.0003  0.1206
14519W        W32043  16.296  12.997   1.527 -0.1823 -0.0755 -0.0418
14520W        W32044   4.135   2.179  10.342 -0.3643  0.1478  0.0959
14521W        W32045  17.414  15.533  11.850 -0.2185  0.1511  0.0518
14522W        W32046   8.151   9.722   1.391 -0.1981  0.0272  0.1341
14523W        W32047   1.143   7.456  14.733 -0.1052 -0.0055  0.0402
14524W        W32048   3.308   9.443  13.890  0.1431 -0.0375  0.2436
14525W        W32049  14.663   7.783  11.266 -0.3227  0.1992  0.1231
14526W        W32050   5.112  16.147   3.398 -0.1913  0.0335 -0.2845
14527W        W32051  15.849   8.421   0.806 -0.0299 -0.1643 -0.0153
14528W        W32052   5.657  16.014  11.238  0.0714  0.1483 -0.3165
14529W        W32053   1.544  14.139   3.553  0.2183 -0.2467 -0.0798
14530W        W32054   7.583   5.345   2.101 -0.2302 -0.0584 -0.2569
14531W        W32055   5.358  16.241  12.530  0.0466 -0.2168  0.2476
14532W        W32056   3.302   4.526  14.290 -0.1073 -0.0666  0.2363
14533W        W32057  16.176   2.422   1.224 -0.3086  0.1331  0.3359
14534W        W32058   8.767  13.064  12.010 -0.0901 -0.1910  0.1761
14535W        W32059   6.871  11.838  12.285  0.1316 -0.0489  0.1531
14536W        W32060   5.452  13.425   1.175 -0.1034 -0.1937 -0.0273
14537W        W32061   8.327  15.978  13.699  0.3061 -0.0904  0.0262
14538W        W32062  11.060   2.742   2.949 -0.3402 -0.4033 -0.2693
14539W        W32063   8.301  11.428  13.525  0.0778  0.0855  0.3343
14540W        W32064   3.878   2.125  13.881 -0.0059 -0.0484 -0.2290
14541W        W32065   4.611  11.804  12.946 -0.0338  0.1895 -0.2550
14542W        W32066  13.749  16.267  11.768 -0.2287  0.4265 -0.3138
14543W        W32067   1.529   9.146  11.833  0.0904 -0.2276  0.0924
14544W        W32068   6.044   3.679  16.237  0.0728 -0.2584 -0.2519
14545W        W32069   3.921  17.371  12.574  0.0318 -0.0125 -0.1329
14546W        W32070  12.525   3.183  15.699  0.0347 -0.0319 -0.0701
14547W        W32071   3.356   1.491   1.785  0.3221 -0.1189 -0.2561
14548W        W32072  16.844   0.857  11.981  0.2588  0.3454  0.0399
14549W        W32073  14.912   8.195   3.291 -0.1175 -0.5085 -0.0209
14550W        W32074  13.251   8.417  14.963 -0.0955  0.1668 -0.0714
14551W        W32075  12.170   5.403  16.403 -0.0655 -0.1409  0.4501
14552W        W32076  11.412   1.801   3.537  0.0213 -0.0758  0.4067
14553W        W32077   3.754  11.029   3.466  0.2847 -0.4508 -0.0750
14554W        W32078  16.506   3.804   2.249 -0.0400  0.3461  0.0968
14555W        W32079  17.027  15.462  13.873  0.4615 -0.5812  0.1478
14556W        W32080   4.414   4.642  16.369  0.0324  0.1156 -0.0752
14557W        W32081  10.826  15.797   2.904 -0.0091  0.2232  0.0416
14558W        W32082  12.941   0.854   5.704  0.2120 -0.2817  0.1319
14559W        W32083   1.416   4.822  13.884 -0.0270 -0.0568 -0.4499
14560W        W32084   7.483   0.945   2.953  0.3599 -0.2297 -0.1035
14561W        W32085  11.457  10.189  15.646 -0.2939 -0.2345 -0.1732
14562W        W32086   7.187   8.205  15.852 -0.0179 -0.3715 -0.1845
14563W        W32087  17.263   8.672   3.173  0.1379 -0.1620 -0.0667
14564W        W32088   9.550   6.930  14.841 -0.1921  0.3611 -0.2438
14565W        W32089   8.059   6.077  12.768  0.0599 -0.2061 -0.1605
14566W        W32090  13.982   0.322   3.442 -0.0714  0.5104  0.0748
14567W        W32091   0.605   1.089   0.594  0.1196  0.5204  0.0545
14568W        W32092  10.006   5.408  15.856  0.0176  0.0513  0.0983
14569W        W32093   3.769   4.322   4.890 -0.0036 -0.4290 -0.1243
14570W        W32094  17.277   0.839   2.563  0.0414  0.1479 -0.1500
14571W        W32095   5.429   4.168  15.640  0.2722 -0.0259  0.2157
14572W        W32096   1.501   8.483  14.588  0.1086 -0.0770  0.0114
14573W        W32097   3.648   5.041   3.026  0.2374 -0.3016 -0.1339
14574W        W32098   0.014   8.274   3.226 -0.0644 -0.1344  0.2519
14575W        W32099   9.807   3.664   0.581  0.1675  0.0561 -0.0906
14576W        W32100  11.125  10.000   1.831 -0.1421  0.0814  0.0511
14577W        W32101  17.051  16.893  15.460 -0.0857 -0.2469  0.1054
14578W        W32102  17.731   8.733  12.587 -0.3085 -0.0751 -0.1997
14579W        W32103   0.257   4.002  15.269 -0.0770  0.4380 -0.1882
14580W        W32104   0.768   5.262   2.941 -0.1027 -0.1518 -0.0387
14581W        W32105   3.285  14.234  14.553 -0.2482 -0.0403 -0.1299
14582W        W32106   4.027  10.135  13.845 -0.2547 -0.0161  0.1531
14583W        W32107   6.486   8.442   0.118 -0.0871 -0.1204  0.1220
14584W        W32108   4.418   9.233  12.863 -0.0704  0.1165  0.1785
14585W        W32109  14.626   4.275   3.346  0.2824 -0.1031  0.2852
14586W        W32110   4.937   7.614  15.147 -0.0131  0.3336 -0.2426
14587W        W32111   8.456   8.017   0.539  0.0255  0.1835  0.2980
14588W        W32112   3.037   8.590   1.793 -0.0976  0.0510  0.0682
14589W        W32113  11.842   9.569   3.311  0.0222  0.1307 -0.1144
14590W        W32114   1.332   8.847  16.343  0.2088 -0.1744  0.0234
14591W        W32115   1.049   1.312   0.807  0.2217  0.1676 -0.0899
14592W        W32116   9.812  14.611  13.711 -0.0160  0.1890 -0.0989
14593W        W32117   6.558   2.574   4.517  0.1286 -0.1494 -0.0530
14594W        W32118  17.044   2.770   3.936 -0.0950 -0.1629 -0.1700
14595W        W32119   7.970  17.668   0.268 -0.0473  0.0924 -0.1774
14596W        W32120   0.148   8.831   4.314  0.4236 -0.1563  0.0373
14597W        W32121   5.921  11.420  15.735  0.0989  0.0947 -0.0928
14598W        W32122   1.363  12.039   0.983 -0.0158 -0.4762 -0.2364
14599W        W32123   8.555  15.736  14.129  0.0465  0.0817  0.3076
14600W        W32124   8.227   1.729   1.046  0.0492 -0.0468 -0.3826
14601W        W32125   1.938   6.821  11.913  0.0380  0.1858 -0.2451
14602W        W32126  10.975   3.019  11.364  0.0139 -0.0482  0.2583
14603W        W32127   3.206  12.326  12.523  0.1082 -0.1849 -0.0523
14604W        W32128  15.521  12.166   1.566  0.4283 -0.0618  0.2621
14605W        W32129   3.260  16.261  12.243  0.0443 -0.0675  0.0026
14606W        W32130   1.770   5.360  13.204 -0.2724 -0.3589 -0.1458
14607W        W32131   3.674  13.957   0.789  0.2035  0.0146  0.0540
14608W        W32132   2.313   1.883  14.644  0.0964 -0.2676  0.3531
14609W        W32133   3.283  10.132  15.505  0.1814 -0.1711 -0.0489
14610W        W32134   8.671  12.897  14.593  0.0302 -0.1085  0.0687
14611W        W32135   8.003   6.783  10.656 -0.1941 -0.0259 -0.1597
14612W        W32136  15.546   5.242  13.685  0.0743  0.0518 -0.0041
14613W        W32137   6.408  13.086   0.172  0.1154  0.0581  0.0427
14614W        W32138   8.825   4.539   4.493 -0.0307 -0.1977  0.1467
14615W        W32139  15.620  15.612   3.876  0.1384 -0.0457  0.3012
14616W        W32140  11.918  14.264   4.542  0.0548  0.2536 -0.0304
14617W        W32141  11.687   1.682   4.723  0.1836 -0.1798 -0.3208
14618W        W32142  13.176  17.433  14.975  0.1452 -0.1740  0.4043
14619W        W32143  13.548  10.934   2.300 -0.3827  0.2113  0.2880
14620W        W32144   2.882   5.223   2.677 -0.3502  0.0956  0.2954
14621W        W32145   8.300  15.621  15.926  0.4301  0.2143  0.2252
14622W        W32146  10.575   3.150  11.681  0.0113  0.1462 -0.0559
14623W        W32147  17.293   9.349  11.937 -0.3386 -0.2403 -0.2082
14624W        W32148   1.232   0.914   3.565 -0.2323 -0.0862 -0.1090
14625W        W32149  10.478   9.249   4.455  0.2958 -0.0454  0.1983
14626W        W32150   8.752  17.635   3.826 -0.0435 -0.1589 -0.3054
14627W        W32151   3.265   8.328  12.407  0.0016  0.2345 -0.1929
14628W        W32152   7.710  15.950   2.472 -0.1624  0.0451  0.2937
14629W        W32153   7.287  15.857   3.825  0.1852  0.0478  0.0458
14630W        W32154   9.450   4.073   4.055  0.2671 -0.1726 -0.2046
14631W        W32155   4.066   5.004   3.361  0.1492 -0.1692  0.0024
14632W        W32156  14.594  15.359   0.843 -0.1256  0.1432  0.0277
14633W        W32157  15.643  14.134   1.759  0.0459  0.1200 -0.0019
14634W        W32158  17.731  15.943   4.061  0.0790 -0.0265  0.3484
14635W        W32159  10.132   4.239  11.718 -0.2695  0.0842  0.0963
14636W        W32160   0.732   5.325   1.986 -0.1315  0.1357 -0.0412
14637W        W32161   6.160  16.435  15.187  0.2475  0.1907 -0.2956
14638W        W32162  12.228  17.762   1.847  0.4127  0.0471  0.3777
14639W        W32163   0.583   4.623  13.397  0.2516 -0.0350 -0.0978
14640W        W32164   9.246   5.194   2.611 -0.0611 -0.0421  0.0715
14641W        W32165   9.624  17.506  15.400  0.0052  0.1402 -0.0435
14642W        W32166  17.277  10.442   2.446  0.0874  0.0426  0.1981
14643W        W32167   7.982   4.495  16.083 -0.0322 -0.1486  0.3181
14644W        W32168  13.201   3.007  14.235 -0.3497 -0.0123 -0.0932
14645W        W32169   3.918  14.495   3.937  0.1004 -0.1001  0.1970
14646W        W32170  16.346  13.879  16.101  0.2680  0.1723  0.2096
14647W        W32171   7.900  14.410   4.772 -0.0217 -0.0194 -0.1583
14648W        W32172  17.885   5.221   3.145 -0.2718  0.0870 -0.4212
14649W        W32173   5.780   4.787   2.370 -0.5421 -0.0667 -0.0180
14650W        W32174  17.116  14.284   2.854  0.0010  0.0051 -0.1924
14651W        W32175  15.723   9.721   4.158  0.2469  0.2156 -0.2083
14652W        W32176  16.148   3.507   1.188  0.1973  0.1559 -0.0672
14653W        W32177   7.717   8.229  12.392 -0.2854  0.1742  0.0504
14654W        W32178  14.324   0.381   4.161  0.1803 -0.0016 -0.0657
14655W        W32179   0.676   4.972  12.309  0.1906 -0.2072 -0.3625
14656W        W32180  17.336  11.195  13.588 -0.0918  0.1222 -0.0156
14657W        W32181  11.653  11.107  13.042  0.0631  0.2159 -0.1162
14658W        W32182   1.116   5.055  12.090  0.1534 -0.1370  0.0841
14659W        W32183  11.047   5.253   3.442 -0.2832  0.2065  0.1823
14660W        W32184   8.410  14.438  15.951 -0.1250 -0.1970  0.0673
14661W        W32185  13.420  10.048  16.060  0.4970 -0.1387  0.0521
14662W        W32186  12.596   3.050   4.257 -0.1035 -0.0217 -0.3114
14663W        W32187   7.182   9.189  12.508  0.2629 -0.0200 -0.1180
14664W        W32188  12.510   6.025   1.832 -0.2587 -0.0247  0.0977
14665W        W32189   0.663  12.196   3.111 -0.0150 -0.2243  0.0173
14666W        W32190   5.212   8.582   5.583 -0.3330 -0.1183  0.0116
14667W        W32191   6.118   7.660   3.333  0.0855  0.0367  0.0551
14668W        W32192   6.274   4.137  15.896  0.1223  0.2052 -0.0423
14669W        W32193  14.473  14.678  12.188 -0.2315  0.1899  0.3570
14670W        W32194   5.239   8.337  13.008 -0.0127  0.0170 -0.3047
14671W        W32195   3.331  11.419   5.038 -0.0037  0.0054 -0.0490
14672W        W32196  14.910   9.259   2.217 -0.0409  0.0668 -0.1138
14673W        W32197  15.282   0.002  12.272  0.1092  0.3286  0.1099
14674W        W32198  16.405   8.121   0.596 -0.0680 -0.1076 -0.0971
14675W        W32199  12.489  17.732   4.142 -0.0690 -0.3368 -0.1397
14676W        W32200   9.558  11.371  15.757  0.0328  0.1267  0.0332
14677W        W32201   2.425  13.625  11.554 -0.0672  0.1244  0.0051
14678W        W32202   3.882  15.081   0.146 -0.2668  0.5544  0.2111
14679W        W32203   8.755  15.214   0.671 -0.0094 -0.0635  0.1752
14680W        W32204  13.718   0.207   2.588 -0.2537 -0.0437  0.0716
14681W        W32205   2.325  11.446   0.288  0.0207  0.2200  0.0398
14682W        W32206  10.627  12.977  15.908  0.2297  0.3001 -0.1307
14683W        W32207  15.376  17.203  13.531  0.1431 -0.3346 -0.0336
14684W        W32208   1.022  10.964   3.870  0.2744 -0.2330  0.2531
14685W        W32209   9.204  17.224  12.450  0.0720 -0.1747 -0.0266
14686W        W32210   9.752  15.015  12.876 -0.0183 -0.0769  0.1645
14687W        W32211  16.201   0.837  16.441  0.0422 -0.2490  0.0565
14688W        W32212   2.547   6.593  13.978 -0.2922  0.2470  0.1882
14689W        W32213   0.450   7.295  13.607  0.0184  0.0334  0.0230
14690W        W32214   8.242  11.598   0.983 -0.1575 -0.2260 -0.0734
14691W        W32215   4.261   0.049   3.755  0.0415 -0.1784 -0.1353
14692W        W32216  11.263   4.976   1.311 -0.1417 -0.2077 -0.0760
14693W        W32217   1.855  10.912   4.190  0.2858 -0.1177 -0.1002
14694W        W32218  12.922   4.039   3.093 -0.1279 -0.3331 -0.0786
14695W        W32219   4.694   8.570   1.187  0.0219  0.0018 -0.0262
14696W        W32220   7.249   1.810   0.851  0.1014  0.0012  0.1075
14697W        W32221   9.068   3.396  14.924 -0.1508 -0.3007  0.3074
14698W        W32222  16.134   1.722  12.997 -0.2762  0.3476 -0.2771
14699W        W32223   4.116   0.611   3.396 -0.1679 -0.0413  0.0056
14700W        W32224   8.586   8.215  14.706 -0.3681 -0.0179  0.1651
14701W        W32225  17.442   9.165  14.327 -0.1665 -0.1412  0.1242
14702W        W32226   5.273   9.356   3.777  0.0881 -0.1467 -0.0752
14703W        W32227  12.245  15.846   5.174 -0.1706  0.0240  0.1180
14704W        W32228   0.794   7.445  16.373  0.0524  0.0508  0.0558
14705W        W32229   7.050   0.679  10.511 -0.1844  0.1434  0.1964
14706W        W32230  15.310   8.098   3.014 -0.1334  0.0173 -0.1811
14707W        W32231  13.792   7.155  12.160  0.3112  0.2519  0.1450
14708W        W32232  15.972   1.161  12.224  0.4615  0.0161  0.0942
14709W        W32233   1.039  11.256   1.601  0.1117 -0.0295 -0.2854
14710W        W32234  10.168  10.686   5.010  0.1129 -0.2871  0.2487
14711W        W32235  15.669   1.352   5.093 -0.2706 -0.1524  0.0594
14712W        W32236   5.053   4.825  13.827 -0.1223 -0.1157  0.0081
14713W        W32237   5.467   8.279   4.011  0.3771  0.1460 -0.1341
14714W        W32238  14.725  12.980  11.784 -0.0701 -0.0724 -0.0006
14715W        W32239   0.942   2.266   2.004  0.2428  0.0018 -0.0067
14716W        W32240  11.420   9.505  16.368 -0.1789  0.1040 -0.1490
14717W        W32241  12.284  12.621  12.204 -0.1132  0.1763 -0.3325
14718W        W32242  11.258   1.776  14.156  0.2787  0.2341  0.1696
14719W        W32243  10.111   8.402  14.006 -0.0908  0.2046 -0.0962
14720W        W32244  12.518  12.790   3.990 -0.3791 -0.0754  0.4501
14721W        W32245  16.278  17.754   1.902  0.1467  0.1109  0.1240
14722W        W32246  11.761   0.467  12.445  0.2921  0.1224  0.0163
14723W        W32247   2.697   7.991  13.761  0.3261  0.0520 -0.0679
14724W        W32248  11.068   2.491  13.766 -0.0657 -0.1185 -0.0075
14725W        W32249  12.113  14.610   1.695  0.1424 -0.0322 -0.0423
14726W        W32250   3.477  16.799   6.363 -0.2974 -0.2195  0.2359
14727W        W32251  17.843  12.542  12.238 -0.1881 -0.0061 -0.1028
14728W        W32252   3.362  14.451  15.404 -0.2427  0.1416 -0.4689
14729W        W32253  11.916   0.660   4.297  0.1860  0.0489 -0.0859
14730W        W32254   1.225  13.213   2.210  0.1068  0.0680  0.1545
14731W        W32255  13.117   6.925  15.094 -0.0581  0.1410 -0.0594
14732W        W32256  15.551   5.735  14.305 -0.0711  0.2661 -0.1001
14733W        W32257  14.032  11.292  15.686 -0.4915 -0.2371  0.1440
14734W        W32258   0.337   3.773   4.259 -0.0581 -0.0644  0.2138
14735W        W32259  17.807   3.835   2.773 -0.1830 -0.3314  0.2141
14736W        W32260   7.259  12.636   4.234  0.1427  0.0610 -0.1193
14737W        W32261  11.483   9.460   3.989  0.0001 -0.1665  0.0181
14738W        W32262  11.864   4.422   1.655 -0.1324 -0.0040 -0.0499
14739W        W32263  16.196  16.752   0.920  0.0193 -0.1224  0.0789
14740W        W32264  13.050  15.204  13.940 -0.1218 -0.3832  0.2803
14741W        W32265  12.046   5.104   4.401 -0.1420 -0.0992  0.0930
14742W        W32266   5.609   1.113   2.686 -0.0233 -0.1297 -0.0047
14743W        W32267  11.610   1.157   3.569  0.2040 -0.0583 -0.1297
14744W        W32268  11.509  12.898  12.784  0.3354  0.0151  0.0583
14745W        W32269   9.991  13.027   2.934  0.1672 -0.1050 -0.1260
14746W        W32270   3.807  14.130  14.539 -0.1147  0.2547 -0.1281
14747W        W32271   7.694  12.801  13.663 -0.0872  0.1237 -0.1032
14748W        W32272   8.460  13.130   3.993 -0.2753 -0.1093  0.0922
14749W        W32273   7.589   0.146   5.671 -0.2695  0.2156 -0.0664
14750W        W32274   7.088   2.878  12.768 -0.1067 -0.0939  0.1951
14751W        W32275   9.815  15.098   4.601  0.4351 -0.0509  0.3103
14752W        W32276  15.790   7.449  14.252 -0.0651  0.0532 -0.0981
14753W        W32277   4.411   8.181   4.831 -0.0968 -0.0830  0.1865
14754W        W32278  11.134   5.193   5.368 -0.4040 -0.0286  0.2026
14755W        W32279  11.927   6.618   4.637 -0.3411  0.5383 -0.0349
14756W        W32280   8.857   8.069  15.136  0.1179 -0.0869  0.0291
14757W        W32281   6.814  15.942  13.746 -0.0112  0.1045  0.2809
14758W        W32282   9.821  15.685  13.355  0.0974  0.3533 -0.0635
14759W        W32283  15.029   2.098   4.215 -0.0030  0.1431 -0.0466
14760W        W32284  16.950   3.523  13.252 -0.1117 -0.1803 -0.3120
14761W        W32285  10.320   4.371   0.034 -0.1795 -0.0408 -0.2293
14762W        W32286   6.491   7.861  15.371 -0.1663 -0.0504  0.0211
14763W        W32287   3.803  15.463   2.291  0.2650 -0.1133 -0.2715
14764W        W32288  14.171  17.220  12.774 -0.0853 -0.0372 -0.1438
14765W        W32289   5.683   4.032   1.775 -0.1709  0.0549  0.1007
14766W        W32290   9.080  13.942  11.983 -0.1761  0.1850  0.2092
14767W        W32291  17.286  12.098   2.949  0.0220 -0.1578  0.3479
14768W        W32292  11.351   3.348  14.966 -0.0589  0.3317 -0.0791
14769W        W32293   3.534   3.629  10.953  0.0302 -0.0521  0.1551
14770W        W32294   9.517   4.470   2.069  0.0530 -0.1049  0.0049
14771W        W32295   9.456   4.618   4.045  0.2626 -0.0171  0.1027
14772W        W32296  15.657  16.914   4.189  0.2427  0.0723  0.2829
14773W        W32297   6.959   6.193  16.441 -0.3384 -0.1171  0.0313
14774W        W32298   9.865   0.950   3.001 -0.1645 -0.0163 -0.0995
14775W        W32299  11.988   3.240   4.764  0.3153 -0.1394  0.0719
14776W        W32300   2.610   9.453   2.139  0.2109  0.1810 -0.1534
14777W        W32301   6.969   4.052  14.756 -0.3356 -0.2188  0.0663
14778W        W32302   0.569   9.177   0.179  0.1669  0.0727 -0.1178
14779W        W32303   4.639   4.045   1.364  0.1472  0.1312 -0.3052
14780W        W32304   3.099  12.640  12.878  0.1271  0.0929 -0.1072
14781W        W32305  12.118   9.949   5.984 -0.1018 -0.0931  0.0726
14782W        W32306   0.551  17.171   3.632 -0.1560  0.2410 -0.2652
14783W        W32307   9.467  13.307   4.440 -0.1291  0.0653  0.2185
14784W        W32308  14.473   4.210  13.105 -0.1780 -0.0345 -0.0914
14785W        W32309  12.575   3.799  11.881  0.0976 -0.2834  0.1268
14786W        W32310   1.361  14.587   3.671 -0.0976  0.1201  0.1683
14787W        W32311   0.563  13.613  15.734  0.1182  0.1728  0.1689
14788W        W32312  10.092   5.851  14.667  0.3226  0.1359  0.2119
14789W        W32313   5.950  16.159  14.654  0.1307 -0.0072 -0.0592
14790W        W32314  12.194  14.794   2.517  0.1436  0.3321 -0.0380
14791W        W32315  12.251  16.094   2.712  0.3287  0.3802  0.0239
14792W        W32316  12.058   4.169  12.867  0.1957  0.1545 -0.2103
14793W        W32317  15.946   8.212   0.339  0.0264 -0.2672 -0.0228
14794W        W32318   6.856   0.793   5.465 -0.1856  0.2967  0.0235
14795W        W32319  16.892   4.028  13.189 -0.1763  0.3827 -0.1918
14796W        W32320   9.000   4.912   5.303 -0.1368  0.4796 -0.1374
14797W        W32321   5.404  16.573   4.809  0.0345  0.0822 -0.3908
14798W        W32322   2.950   7.777  15.114  0.1147 -0.0758 -0.0678
14799W        W32323  16.764  10.902   4.205 -0.0287  0.1678  0.0788
14800W        W32324   9.786   0.423   5.144 -0.2872  0.0051  0.2123
14801W        W32325   9.137  16.685  15.948  0.3546 -0.0927 -0.2038
14802W        W32326   6.904   4.129   1.935 -0.0168  0.0155 -0.3572
14803W        W32327  16.411  17.853  14.574  0.1678 -0.0837 -0.0437
14804W        W32328  12.503   1.871  15.852  0.3055  0.1601 -0.1875
14805W        W32329  13.368   4.688   3.160 -0.1355 -0.0997 -0.0359
14806W        W32330   2.288   8.502  12.270  0.2115  0.1188  0.3693
14807W        W32331  11.806  11.503  13.339  0.0834 -0.2883 -0.1521
14808W        W32332   3.019   1.976   0.415 -0.1367  0.0222  0.0647
14809W        W32333  17.058   8.494  12.593 -0.2386  0.3174 -0.1970
14810W        W32334  13.114  11.693   0.305 -0.0727  0.2337 -0.1576
14811W        W32335   6.721   6.397  13.333  0.0445 -0.0395 -0.0879
14812W        W32336   1.241   7.926  12.123  0.1959 -0.0807  0.0660
14813W        W32337   1.622   9.951   0.548 -0.1871  0.0840 -0.0934
14814W        W32338   4.975  10.175  13.444 -0.0124  0.0479  0.4681
14815W        W32339   1.653   0.169   3.384  0.2058  0.1104  0.0874
14816W        W32340   7.560   5.227  11.568  0.1233 -0.3241 -0.0457
14817W        W32341  10.818  11.061  14.144  0.2026 -0.1846  0.2267
14818W        W32342   5.482  12.174   1.378  0.0630  0.0784  0.2396
14819W        W32343  12.202   5.538  11.903  0.0383  0.2184 -0.0366
14820W        W32344   7.540   3.193   1.218  0.1515  0.2790  0.0696
14821W        W32345   6.726   9.506   1.815 -0.0253 -0.1870 -0.0822
14822W        W32346   3.107   7.333  14.641  0.0636 -0.1380 -0.0637
14823W        W32347   1.634   6.937   5.060  0.1213  0.1385  0.2312
14824W        W32348  17.912   3.957  11.159  0.1523 -0.1576  0.0560
14825W        W32349   0.119  10.038  14.979  0.3162 -0.1904 -0.2162
14826W        W32350  17.340  16.068   2.978  0.0067 -0.0490  0.2937
14827W        W32351   0.996   4.197  12.710  0.2363  0.1275 -0.2970
14828W        W32352   7.391  13.974   2.207  0.0885 -0.1197 -0.0206
14829W        W32353  12.286  14.105  15.676  0.1536 -0.1659  0.0504
14830W        W32354   7.130  17.442   4.538  0.1368 -0.0649  0.3626
14831W        W32355   6.801  12.278   3.353 -0.0262 -0.1588 -0.1254
14832W        W32356   0.446   0.825   1.236  0.0161  0.2367  0.3491
14833W        W32357   8.028   3.834  13.005 -0.0433  0.0139  0.0821
14834W        W32358   9.716  11.025  16.462 -0.3259  0.1667 -0.1139
14835W        W32359   7.871   3.839  13.476  0.1809  0.1304  0.0205
14836W        W32360   5.252  10.477   4.365  0.1226 -0.0240  0.0841
14837W        W32361  12.283   9.596   0.470  0.3046  0.2722  0.0183
14838W        W32362  11.103   1.896   1.620 -0.2816  0.0449  0.1480
14839W        W32363   5.294  16.002   5.059 -0.0470  0.2473 -0.2957
14840W        W32364   0.941  13.654   4.587 -0.2396 -0.1878 -0.0139
14841W        W32365   1.837  17.487  16.200  0.0878 -0.0339  0.0307
14842W        W32366   6.483   3.293   2.841  0.2115  0.0486 -0.1949
14843W        W32367  14.394   3.883   2.283 -0.0873 -0.1582 -0.3184
14844W        W32368  16.397  15.724   4.355 -0.1938 -0.2707 -0.2316
14845W        W32369  10.613   2.037  11.587  0.0945 -0.0987  0.0396
14846W        W32370  10.277   4.186  13.632 -0.1644 -0.0920  0.0010
14847W        W32371   8.425  12.429  13.362  0.1527  0.2938 -0.3642
14848W        W32372  16.983  12.432  15.259  0.1229 -0.2901  0.0848
14849W        W32373   5.392  11.770   1.062  0.2019  0.0874  0.0846
14850W        W32374   5.267   4.669  12.570  0.2474  0.0453  0.0897
14851W        W32375   2.194   3.837  12.120 -0.0699 -0.1683 -0.0179
14852W        W32376  15.106  14.192  14.370  0.1026 -0.2021 -0.0005
14853W        W32377  17.710   4.610   3.516 -0.0984 -0.2752  0.2455
14854W        W32378   4.883   4.769  14.879  0.1043  0.1353  0.1016
14855W        W32379   9.021  15.637  11.703  0.0911 -0.4134  0.0392
14856W        W32380  11.756   1.011  11.845 -0.1855 -0.1566  0.0258
14857W        W32381  11.676   5.508   2.556 -0.2865  0.2965 -0.3293
14858W        W32382  14.533   3.150  15.490  0.0796  0.2773  0.0869
14859W        W32383   9.152   8.352   2.328 -0.1482 -0.1550  0.1010
14860W        W32384   6.229  10.099   2.601 -0.3134  0.1227 -0.1959
14861W        W32385  11.284   9.481  13.420  0.1128 -0.3851 -0.1005
14862W        W32386  15.475   7.066  15.301  0.3263 -0.3443 -0.1070
14863W        W32387   1.297  10.014  14.213  0.0273 -0.2153 -0.1912
14864W        W32388  14.671   9.142   1.335  0.1193 -0.1318  0.0781
14865W        W32389  12.033   0.278   4.574  0.1697  0.1018 -0.1911
14866W        W32390   0.552  10.836   2.922 -0.2151 -0.0759  0.0611
14867W        W32391   0.906   9.300   2.074  0.1017  0.2133  0.3470
14868W        W32392  11.389  11.018   3.760 -0.1937  0.3251 -0.1241
14869W        W32393  11.268  15.027   1.893  0.0576  0.2739  0.1142
14870W        W32394  11.363   4.098   4.824  0.0681 -0.0684 -0.1255
14871W        W32395   1.809   8.277  12.260  0.1332 -0.1812  0.2673
14872W        W32396  13.850   2.072   2.745  0.1288 -0.1242  0.1932
14873W        W32397   0.272   4.596  12.940  0.1619 -0.2378  0.2277
14874W        W32398  10.783   1.714  15.558  0.1921 -0.1578 -0.0204
14875W        W32399   5.635  16.582  14.380 -0.2482  0.1548 -0.0738
14876W        W32400  10.661   2.553  12.556 -0.2409 -0.1147  0.1650
14877W        W32401  10.895  11.967  13.090 -0.3407  0.4504  0.2286
14878W        W32402  11.595  16.416   0.773  0.1147 -0.1775 -0.1483
14879W        W32403   8.846   9.579  11.705  0.0627  0.2801 -0.1882
14880W        W32404   7.073   4.538  15.744  0.2408  0.1416 -0.2384
14881W        W32405  11.448   7.905   0.684  0.1217  0.2528 -0.0742
14882W        W32406   5.790   7.445   2.386  0.0540  0.6483 -0.1610
14883W        W32407  15.169  15.087  12.742 -0.1478 -0.0157  0.0377
14884W        W32408   8.574   7.825   0.982  0.2300  0.2011  0.2259
14885W        W32409  11.792   6.947  13.033  0.0026 -0.4262 -0.0036
14886W        W32410   3.823   9.228  16.446 -0.1476 -0.1403 -0.2993
14887W        W32411   4.885   2.255   3.116 -0.0551 -0.0705 -0.0279
14888W        W32412   1.177   6.940  13.884 -0.1139 -0.3432 -0.1169
14889W        W32413  11.347   2.724  15.938 -0.1380 -0.0221  0.1882
14890W        W32414   8.010  16.883   1.282 -0.0635 -0.0398  0.0838
14891W        W32415   6.176   4.541  16.201 -0.0412 -0.1404  0.1460
14892W        W32416   1.989   5.192  16.149 -0.0043  0.3535 -0.0127
14893W        W32417  17.060  15.662   2.011  0.2304  0.1765  0.1305
14894W        W32418  10.934  16.065   0.315 -0.1363 -0.0729  0.2138
14895W        W32419  10.117   4.429   4.169  0.1008 -0.1735 -0.0787
14896W        W32420  14.029  16.019   4.189  0.2541  0.0137 -0.1788
14897W        W32421   3.862   3.252  14.584 -0.2001  0.0184 -0.2935
14898W        W32422  10.653   6.607  14.965 -0.1465  0.1424  0.0024
14899W        W32423   8.721   1.650   0.699 -0.1705  0.2845 -0.2802
14900W        W32424   6.476   9.113  14.151 -0.0580 -0.1413 -0.0795
14901W        W32425  17.246   7.550  12.584  0.1490  0.0666  0.1145
14902W        W32426   0.142   1.999  11.066  0.0551 -0.0179  0.0578
14903W        W32427   7.685  10.873  13.440  0.0638  0.1216 -0.2891
14904W        W32428  16.111   1.251   1.309  0.2806 -0.0479  0.1437
14905W        W32429   0.248  14.636  15.646 -0.1847 -0.2033  0.1719
14906W        W32430   5.139  12.720  16.431  0.2418  0.0258  0.0729
14907W        W32431   7.054   2.897  11.271 -0.0179 -0.2052 -0.4566
14908W        W32432  11.818   2.790  12.493 -0.1246  0.0744  0.2916
14909W        W32433  14.059  17.167  13.307 -0.0327  0.1607 -0.1425
14910W        W32434  17.390   6.667  12.733 -0.0307 -0.0070  0.3167
14911W        W32435   4.710  14.164   1.812  0.0852 -0.2289  0.0355
14912W        W32436  15.760  14.805   0.500 -0.1740 -0.1830  0.1676
14913W        W32437  16.347   2.305  13.677 -0.1708  0.0898  0.1962
14914W        W32438  10.185   8.597   2.526  0.1582 -0.2467  0.0536
14915W        W32439  16.572   9.726  15.142 -0.2258  0.0296  0.3639
14916W        W32440   2.742  14.861  13.083 -0.0461  0.2126 -0.5049
14917W        W32441  16.873  11.182   0.466  0.2219 -0.0088  0.1235
14918W        W32442   8.301  13.461   2.808 -0.0675  0.1045 -0.2302
14919W        W32443   0.215  15.490  13.084 -0.0665 -0.0400 -0.2753
14920W        W32444   6.129  15.640  14.608  0.0146 -0.1235 -0.0096
14921W        W32445   4.050   2.684   4.006 -0.0719  0.0746 -0.2292
14922W        W32446   1.650  12.239   0.410 -0.0380  0.2856 -0.0725
14923W        W32447  16.481   8.470  12.878 -0.0686  0.1025 -0.0896
14924W        W32448   9.714  12.645   3.877 -0.0515 -0.1734 -0.2375
14925W        W32449  16.486  13.997   1.525  0.1457  0.0278  0.0654
14926W        W32450   3.462   6.544   4.546 -0.1517 -0.2835  0.0738
14927W        W32451   8.398   2.256  13.198 -0.3672  0.0105 -0.1973
14928W        W32452  14.593   0.197   5.045 -0.1170 -0.2400  0.0265
14929W        W32453   7.220  13.749  13.894 -0.3745  0.0427  0.0178
14930W        W32454  13.337  15.767   1.107  0.0616 -0.2345 -0.0141
14931W        W32455  14.335  13.377   3.821 -0.3120  0.1401  0.1246
14932W        W32456   3.585   4.567   4.024 -0.0440  0.3704  0.2249
14933W        W32457   6.746   5.300  13.576  0.4108 -0.4233 -0.0204
14934W        W32458   3.384   9.064   1.247 -0.3159  0.0559  0.3568
14935W        W32459   9.413   5.674   3.900  0.2249  0.0163 -0.1706
14936W        W32460   4.743   4.295  13.112  0.0613  0.1234 -0.0122
14937W        W32461   3.700   8.757  16.154  0.3584 -0.0868 -0.0388
14938W        W32462   1.584   3.371  11.492  0.1711 -0.2941 -0.0815
14939W        W32463   2.508   6.932  13.488  0.0930 -0.1313 -0.3683
14940W        W32464   8.730  17.367  11.872 -0.1936  0.1216  0.1048
14941W        W32465  13.243   4.037   0.485  0.2011  0.2562 -0.0023
14942W        W32466   6.140   5.856   3.852  0.2657 -0.1516  0.2826
14943W        W32467   5.219  17.176   1.904 -0.1453 -0.1109  0.0359
14944W        W32468  16.171   7.729   4.959  0.2732 -0.0997  0.2854
14945W        W32469  14.247   7.338   2.435  0.1548  0.0889  0.0234
14946W        W32470  15.422   9.750   0.251 -0.0842  0.1714 -0.1522
14947W        W32471   3.656  14.457  13.972 -0.0251  0.0202 -0.2968
14948W        W32472   6.869   1.383   4.277 -0.2763 -0.0911 -0.0848
14949W        W32473   5.270  14.814  10.996 -0.0297  0.0450  0.2648
14950W        W32474   9.217   6.242   0.924 -0.4118 -0.1627 -0.1063
14951W        W32475  11.163   1.363   3.552  0.0268  0.0273  0.1262
14952W        W32476   5.406   7.940   2.231  0.1083 -0.4609 -0.0793
14953W        W32477  16.439   9.001  13.910  0.3417 -0.0332  0.2067
14954W        W32478  15.314  10.736   4.312 -0.2737  0.1035 -0.0588
14955W        W32479   8.537   3.595  11.249  0.0939 -0.3052  0.1813
14956W        W32480   3.831   5.471  11.586  0.0248 -0.0289 -0.0534
14957W        W32481  15.272   9.851   5.696 -0.1056  0.3001 -0.0666
14958W        W32482  11.873   2.392  12.875 -0.0750 -0.1263  0.1743
14959W        W32483  10.695  16.222   2.721  0.0764  0.0364 -0.4515
14960W        W32484  16.352  17.114   2.087  0.1351 -0.0523  0.3484
14961W        W32485  15.341   3.403   2.678  0.2005 -0.3875  0.1346
14962W        W32486  11.742   2.786   3.469  0.2194  0.1637  0.0485
14963W        W32487  12.148   2.700   1.028 -0.1955  0.3318  0.0642
14964W        W32488   7.995  17.694   1.569  0.2556  0.0004 -0.1089
14965W        W32489  15.544   2.104   2.451  0.1255  0.0150  0.2249
14966W        W32490  10.070   3.310   3.452 -0.2317 -0.0065 -0.3440
14967W        W32491   2.545  17.624   1.355  0.0386  0.0039  0.1240
14968W        W32492  10.035   4.970   0.020 -0.1350  0.1207 -0.4697
14969W        W32493   9.524   8.369  13.629  0.1755 -0.1093 -0.0361
14970W        W32494  11.257   3.213  12.226  0.0178 -0.3182  0.2882
14971W        W32495   3.578   7.443   2.364  0.2104 -0.2987 -0.1393
14972W        W32496  16.881  12.358   3.768  0.3374 -0.1191  0.2403
14973W        W32497   3.117   6.101   5.319  0.2496 -0.2082 -0.1444
14974W        W32498   5.656  12.678   0.174 -0.1022 -0.0825  0.3987
14975W        W32499   5.130  16.864   3.298  0.4486  0.1359 -0.2135
14976W        W32500   8.042  15.041   3.060  0.0960  0.0330  0.2042
14977W        W32501   0.971   6.817   0.000 -0.0237 -0.0431  0.1244
14978W        W32502  15.160   2.888   2.038 -0.1860 -0.2309 -0.0642
14979W        W32503  10.694   6.120  11.672  0.0813  0.1076 -0.0828
14980W        W32504   3.978   2.291  14.780  0.4039  0.1333  0.2091
14981W        W32505  17.709  12.432   3.139 -0.0261  0.0682  0.1173
14982W        W32506   4.954  17.434   2.525  0.0394 -0.0730  0.2289
14983W        W32507   0.332  15.154  14.253  0.1154  0.3866 -0.0277
14984W        W32508   0.582   3.608   1.520 -0.1206 -0.2660  0.0945
14985W        W32509  15.109   0.254  12.637  0.1115 -0.0077  0.0776
14986W        W32510   5.072  17.912   3.517  0.0958  0.3894  0.1345
14987W        W32511  17.119   7.956   2.759 -0.0375  0.3626  0.1381
14988W        W32512  10.701   5.212  14.997  0.0508 -0.2711 -0.0039
14989W        W32513   8.822  12.333  15.073 -0.1249 -0.0291 -0.2424
14990W        W32514   6.474  12.998   3.919 -0.2893  0.1462 -0.2827
14991W        W32515   5.890   3.486  11.788 -0.2450 -0.1973  0.1670
14992W        W32516  17.267  10.501   1.109 -0.1297 -0.0210 -0.0816
14993W        W32517   2.749  11.762  11.369  0.0065 -0.0986  0.3840
14994W        W32518  10.701  13.480  14.695 -0.3114  0.0041 -0.0416
14995W        W32519  11.142  11.437   6.396  0.0259 -0.0637 -0.1024
14996W        W32520   9.521   0.957  13.781  0.4006 -0.2176 -0.0147
14997W        W32521   9.970   3.482   2.303 -0.0869  0.1113  0.0518
14998W        W32522  16.803   6.901  13.172 -0.1166  0.0486 -0.0361
14999W        W32523   0.979  17.077  13.649  0.2379  0.1775 -0.0024
15000W        W32524   8.894  13.961  11.506 -0.0508 -0.2625 -0.0896
15001W        W32525   3.212  16.428  13.923  0.1034  0.1138 -0.1523
15002W        W32526   4.148  12.237   3.335 -0.1940  0.2925  0.1881
15003W        W32527   8.803  14.681   1.539  0.2482 -0.1031 -0.0757
15004W        W32528  14.715  15.729   1.181 -0.2698 -0.0071 -0.3217
15005W        W32529  13.794   5.512  16.456 -0.0452  0.1525 -0.1981
15006W        W32530  12.125   5.829   2.151  0.3966 -0.3497 -0.1676
15007W        W32531  11.414  16.259  13.315 -0.1088 -0.0373  0.1818
15008W        W32532   5.346   3.634   3.611  0.0492 -0.0932 -0.0777
15009W        W32533   0.738   5.079  16.322  0.2173 -0.0897 -0.0039
15010W        W32534   8.314   6.969   2.871  0.1369  0.3701 -0.1422
15011W        W32535   8.508   7.560   0.354  0.1085  0.1269 -0.1553
15012W        W32536   9.683   7.724   4.681 -0.2711 -0.0358 -0.2223
15013W        W32537   7.065  10.343   5.970  0.1040  0.1368 -0.0299
15014W        W32538   0.360   1.265  12.201 -0.0047  0.0074  0.0842
15015W        W32539  12.538  13.949  14.644  0.0199  0.2029  0.1786
15016W        W32540   0.540   2.838  13.659 -0.0249 -0.2723  0.1227
15017W        W32541   6.503   7.963  10.699  0.1307  0.1526  0.1890
15018W        W32542   0.372   5.485  14.491  0.0105  0.0043  0.2878
15019W        W32543  16.876   9.697   3.239 -0.1252 -0.1514  0.1323
15020W        W32544   4.566   4.201  14.009  0.3504  0.1055 -0.2778
15021W        W32545   6.585   2.654   1.648  0.2975  0.0949 -0.1350
15022W        W32546   4.916   6.001  12.290 -0.1794 -0.0551  0.2115
15023W        W32547   8.257   7.571   3.522 -0.2155 -0.0332  0.3541
15024W        W32548   0.653  12.821   3.249 -0.1426  0.4716 -0.2034
15025W        W32549  10.198  14.974   0.053 -0.0529 -0.1000 -0.2425
15026W        W32550  16.094   0.763   2.006  0.1896 -0.2714  0.1066
15027W        W32551   8.413  15.698  11.529 -0.0936 -0.0877  0.0006
15028W        W32552   1.224   8.448  15.375  0.0675  0.1878 -0.1449
15029W        W32553   3.381   7.025   2.321  0.2400  0.2267  0.0351
15030W        W32554  14.516  11.375  15.603 -0.0095  0.0878 -0.3025
15031W        W32555   6.296  10.800   6.360  0.0899  0.2047 -0.0632
15032W        W32556   9.065   9.821  14.112  0.1737 -0.3085  0.2412
15033W        W32557   3.729  14.873  13.699  0.0002 -0.0833 -0.1761
15034W        W32558   3.798  14.612   4.447 -0.0334 -0.0325  0.0770
15035W        W32559   4.462  10.688   3.972 -0.2536  0.0210 -0.2805
15036W        W32560  11.287   6.097  14.574  0.0584  0.1261 -0.1338
15037W        W32561   9.032  13.662  15.939  0.0221  0.0036  0.1956
15038W        W32562  12.366   7.898   3.245 -0.1571  0.2056  0.0781
15039W        W32563   7.491   2.628   2.282  0.1517 -0.2300  0.3893
15040W        W32564  17.444  16.020   0.045  0.0891 -0.0080  0.0330
15041W        W32565   8.727   6.947  13.539 -0.2899 -0.1103 -0.2499
15042W        W32566   4.092  10.477   2.588 -0.2505  0.0779 -0.2860
15043W        W32567   9.063   3.356  13.730  0.0893  0.1310 -0.3340
15044W        W32568  15.535  12.733   1.348 -0.1020 -0.1318  0.2269
15045W        W32569   9.334   2.196   1.140 -0.1461 -0.1003 -0.0328
15046W        W32570   0.120   5.572   1.360  0.1299  0.0882 -0.3123
15047W        W32571   4.433  12.581   3.144 -0.0070  0.0464 -0.1055
15048W        W32572  11.477   9.648  14.787  0.0712 -0.0083  0.1748
15049W        W32573   7.883  12.211   2.913 -0.1889  0.1904 -0.1910
15050W        W32574  10.157   7.210   3.024 -0.2357 -0.0137  0.2918
15051W        W32575   9.292   9.148  13.164 -0.2409 -0.0414  0.1623
15052W        W32576   1.638   5.225   4.621 -0.2394  0.3105 -0.0571
15053W        W32577   8.054   2.888  10.593 -0.3059  0.0038  0.0573
15054W        W32578  14.648   1.763  12.605  0.1964 -0.2591  0.0594
15055W        W32579   1.728   1.982   3.146  0.0455 -0.1096  0.2194
15056W        W32580   2.861  10.138  15.754 -0.4096  0.1143  0.0403
15057W        W32581  16.204  13.986   0.085 -0.1365  0.2448 -0.0138
15058W        W32582   3.165  10.604  16.278 -0.1982 -0.2046  0.0785
15059W        W32583  14.170   4.919   1.551  0.1964 -0.0443  0.0428
15060W        W32584   1.668   0.223  12.693  0.0185 -0.3251 -0.2261
15061W        W32585  15.532  15.480   4.446  0.0667 -0.0381  0.1553
15062W        W32586  14.760   0.643  14.999  0.0508  0.1508  0.0658
15063W        W32587   3.225   2.697  12.014 -0.1619 -0.0657 -0.0580
15064W        W32588   6.055   2.858  12.491 -0.3379 -0.1228 -0.2658
15065W        W32589   7.941  17.283   2.307 -0.0392  0.0812  0.1246
15066W        W32590  13.516  15.676  14.588 -0.1439  0.0294  0.0226
15067W        W32591   2.478   1.074  14.616 -0.1144 -0.4832  0.1909
15068W        W32592   0.929   2.891  15.398  0.1513 -0.1107 -0.0468
15069W        W32593  13.765  11.861   1.825  0.1812  0.0000 -0.0285
15070W        W32594   2.877  11.498   3.222  0.0744  0.1097 -0.0542
15071W        W32595  17.113   2.138  12.990 -0.2065  0.0764  0.1928
15072W        W32596  12.795  11.482  13.972  0.0236 -0.2151  0.0009
15073W        W32597   4.218   2.394   0.618  0.1266 -0.2726 -0.1841
15074W        W32598   2.573   6.864   0.192 -0.0365 -0.3806 -0.2876
15075W        W32599   8.332   5.016  13.498 -0.1097  0.1831  0.1088
15076W        W32600  12.237   0.469   3.209 -0.0728 -0.0064 -0.1078
15077W        W32601  12.003  15.680  15.588 -0.2234  0.1306 -0.0062
15078W        W32602  11.786   3.344   5.257  0.0261  0.0713  0.1568
15079W        W32603   2.381  15.488   6.089  0.1153 -0.2484 -0.0045
15080W        W32604  14.207   6.400  14.920 -0.2391 -0.3854 -0.0262
15081W        W32605   0.458  11.769  14.505 -0.2362 -0.1577 -0.1412
15082W        W32606  17.549   3.229  11.505  0.0754 -0.0424  0.4397
15083W        W32607   6.510  13.263  15.566 -0.1043 -0.0556  0.2868
15084W        W32608  15.973  12.248   1.181  0.2762 -0.1947  0.2747
15085W        W32609   5.220   2.444  13.848 -0.0118  0.1324  0.0235
15086W        W32610  14.769   6.483  14.774 -0.1603 -0.3412 -0.1293
15087W        W32611  12.125  12.033   1.155 -0.1861 -0.3391 -0.2879
15088W        W32612  12.592   3.957   2.715  0.0342  0.1626 -0.1022
15089W        W32613  12.154   1.057  14.671 -0.1393  0.0203 -0.1504
15090W        W32614   2.009  15.822   3.987  0.0410 -0.1346 -0.2052
15091W        W32615   0.991  15.687  12.709 -0.3627 -0.2181  0.0055
15092W        W32616  13.356   0.501   1.925  0.1316  0.3632  0.1856
15093W        W32617   6.060  12.851   1.860 -0.0920  0.0010  0.2634
15094W        W32618   2.484  16.749  16.005 -0.1576 -0.3727 -0.2259
15095W        W32619   2.889   6.922   2.446 -0.4723  0.0619  0.2173
15096W        W32620   1.173  16.272   0.071  0.1030  0.4747  0.3659
15097W        W32621   5.033  11.066   2.720  0.0105  0.1624 -0.3307
15098W        W32622  16.030   6.136   2.343  0.0501  0.1597 -0.0169
15099W        W32623   2.384   4.058  13.797 -0.0684  0.0303 -0.1351
15100W        W32624  12.090   5.382  13.935  0.0111 -0.2832 -0.4525
15101W        W32625   5.179  16.817  13.360  0.0903  0.0040  0.1058
15102W        W32626  10.634  15.974  12.745 -0.0903  0.0432  0.4064
15103W        W32627  14.562   7.421   4.748  0.0673 -0.0766  0.2564
15104W        W32628   8.615   8.912   0.401 -0.1492  0.3611  0.1483
15105W        W32629   8.439   4.174   1.679 -0.0343  0.1310  0.2172
15106W        W32630  12.591   6.203  12.322 -0.2255 -0.1011 -0.0878
15107W        W32631   5.124   5.945   0.440 -0.2712  0.0136 -0.1345
15108W        W32632  17.320   2.627   0.703  0.0778 -0.1473 -0.0130
15109W        W32633   8.249   0.323  15.332 -0.1106 -0.2224 -0.0631
15110W        W32634  14.765   8.923  12.809  0.1462 -0.2073  0.2755
15111W        W32635  15.452   1.575   3.145 -0.5839 -0.1131  0.1218
15112W        W32636  15.443   2.427   3.736 -0.0990 -0.2613 -0.1676
15113W        W32637   3.880   4.056  16.082 -0.1228  0.0754 -0.1195
15114W        W32638   3.405   2.002  14.028  0.3125  0.0194  0.2616
15115W        W32639   0.856   1.653   1.220  0.1290  0.1687  0.0420
15116W        W32640   9.446   1.630  12.952  0.0716  0.0559  0.0832
15117W        W32641  10.360   6.726   3.693  0.1172 -0.0574 -0.0459
15118W        W32642   3.819  15.406  12.442  0.1468 -0.2771  0.0058
15119W        W32643  12.857   1.809   2.836  0.1290 -0.0618 -0.2139
15120W        W32644   4.703  15.146  11.629  0.0136 -0.0586 -0.0819
15121W        W32645   4.305   7.269  11.522 -0.2584 -0.0768 -0.0608
15122W        W32646   0.696   2.061  13.227  0.2083 -0.3662  0.0442
15123W        W32647   9.807  10.962  15.982  0.0096  0.2174  0.0801
15124W        W32648  17.887  13.831  11.495  0.1145 -0.2034  0.0105
15125W        W32649  17.827   0.073  13.065 -0.0254  0.3840 -0.0475
15126W        W32650   9.861   4.618   1.260  0.0300 -0.3355 -0.0753
15127W        W32651   8.893   4.269   2.672  0.1049  0.1769 -0.0844
15128W        W32652  11.721  10.116  11.708  0.1316 -0.1994  0.0087
15129W        W32653  16.902   9.696  15.554  0.1262 -0.0383  0.1782
15130W        W32654   2.346   4.576  15.465 -0.1531  0.2061 -0.0861
15131W        W32655  17.843   7.451   2.898  0.0402  0.0582 -0.2098
15132W        W32656   5.437   4.803   1.342  0.0020  0.1602 -0.3255
15133W        W32657  10.014   0.664   0.554 -0.0856  0.3647  0.4289
15134W        W32658   6.250  13.750   3.301  0.1942 -0.0053 -0.0825
15135W        W32659   5.892  12.406  13.016  0.2751 -0.0453 -0.1719
15136W        W32660   8.839   0.124  16.454 -0.0692  0.0526  0.3325
15137W        W32661   7.832  16.690   0.827 -0.0730  0.0003  0.0521
15138W        W32662   5.769  12.763  15.450 -0.0675 -0.0366  0.4363
15139W        W32663  17.533   2.841  15.222  0.2916 -0.1218  0.0047
15140W        W32664   5.680  15.015   3.066 -0.1202  0.2237 -0.2587
15141W        W32665  11.163  16.325   4.656 -0.0146  0.0147  0.2243
15142W        W32666  11.825  13.302  12.551 -0.3208 -0.1151 -0.2193
15143W        W32667  10.541  10.563  11.907 -0.2269 -0.0867 -0.1276
15144W        W32668   1.322   0.319  14.531  0.2334 -0.0274 -0.0317
15145W        W32669  11.329   7.062  15.947 -0.0925 -0.0829 -0.1945
15146W        W32670   6.257  16.240   4.372 -0.3304 -0.5265  0.1946
15147W        W32671  13.826  10.227  13.053 -0.2539  0.2063  0.1966
15148W        W32672   1.505  10.870  11.577 -0.0803 -0.2108  0.1464
15149W        W32673  10.030  13.705  10.314  0.0367 -0.1214  0.1258
15150W        W32674  16.057   2.798  15.972  0.0993 -0.1763  0.1483
15151W        W32675   2.723   9.016   2.409  0.2642 -0.0352  0.1422
15152W        W32676   7.176  16.618  14.806  0.2013 -0.1350 -0.1845
15153W        W32677   8.023   3.154  14.698 -0.1908 -0.1536  0.0214
15154W        W32678   2.412   5.988   2.627  0.3924  0.0951  0.1430
15155W        W32679  11.017   7.995   1.825  0.2447 -0.1265  0.2523
15156W        W32680   2.420   8.809  15.304 -0.0832 -0.0383 -0.3588
15157W        W32681   2.458  11.821  13.781 -0.0898 -0.3087 -0.1376
15158W        W32682  16.749   1.534  15.024 -0.1923 -0.1643  0.2920
15159W        W32683   3.022   0.485  14.721 -0.0937  0.1220  0.1445
15160W        W32684  16.843   4.723  13.258  0.1133 -0.1286  0.2205
15161W        W32685   2.459  14.425  12.204 -0.0059 -0.0344 -0.1458
15162W        W32686  17.657   6.398  12.310 -0.3898  0.2861  0.2707
15163W        W32687   9.286  13.257   2.844  0.1356  0.0794 -0.1415
15164W        W32688   6.999  15.437  12.201 -0.1580 -0.3287 -0.4439
15165W        W32689  10.949  12.493  15.627  0.2266 -0.3541  0.3066
15166W        W32690  16.010   5.082   5.032 -0.0167 -0.1338 -0.1498
15167W        W32691   6.342   6.528   2.171  0.0683  0.0083 -0.0358
15168W        W32692   8.561  15.589   3.724 -0.1544  0.2659  0.0025
15169W        W32693  10.595  10.864   2.390  0.1227  0.0420 -0.1115
15170W        W32694   8.444   4.754  13.077 -0.0532 -0.1856 -0.4118
15171W        W32695   7.559  14.180  16.396  0.0457 -0.1343 -0.0935
15172W        W32696   3.850   4.779  15.394  0.0517  0.0675 -0.2175
15173W        W32697   4.693  16.660   1.890 -0.1504 -0.1258  0.1172
15174W        W32698  14.890  11.935  16.143 -0.0977  0.0649  0.0047
15175W        W32699  11.953   8.762  13.128  0.4292 -0.0772  0.2697
15176W        W32700   2.007   9.407  11.985  0.1056 -0.0484  0.1579
15177W        W32701   3.039   5.418   3.752  0.5103  0.1429 -0.1709
15178W        W32702   7.096  15.165  12.643  0.0740 -0.2017  0.4794
15179W        W32703  17.548  16.499  16.202 -0.1213 -0.0480  0.0612
15180W        W32704  17.209   3.981   1.037  0.0559  0.2137 -0.1718
15181W        W32705   1.750   0.378   5.047  0.1313 -0.2510 -0.4109
15182W        W32706  10.266   1.766  13.430  0.0090 -0.1583  0.0799
15183W        W32707  13.503  10.558  16.078 -0.0078 -0.1281  0.0984
15184W        W32708   6.943  15.842  13.238 -0.0376 -0.2194  0.0950
15185W        W32709   3.098  17.536  12.644  0.0755  0.1560 -0.1201
15186W        W32710   6.280   4.194  12.343 -0.1000  0.0947 -0.2323
15187W        W32711   0.565   6.528  16.229 -0.2762  0.0232  0.0417
15188W        W32712   8.926  17.201  14.908  0.1004 -0.0731  0.0114
15189W        W32713  15.665   3.532   1.060  0.1869  0.1489 -0.1180
15190W        W32714  15.642   2.861   0.579  0.0236 -0.0453  0.1504
15191W        W32715   5.843   5.371   2.985  0.0407 -0.0075  0.1661
15192W        W32716   3.902   2.634  11.647 -0.3153  0.2216 -0.0209
15193W        W32717   8.401   2.845   3.757 -0.4137  0.2271 -0.0566
15194W        W32718   7.557  15.961  15.568 -0.0870 -0.1988  0.0505
15195W        W32719  13.975   2.081   0.746  0.0184  0.1282  0.1620
15196W        W32720  14.142   0.559  12.523  0.2841  0.0789  0.0721
15197W        W32721   4.085   3.072  11.504 -0.2740  0.0213  0.2195
15198W        W32722  14.635  15.675   3.787  0.0219 -0.0258 -0.0301
15199W        W32723  12.733   1.485  14.068 -0.1457  0.1220 -0.0235
15200W        W32724  15.669  12.312  12.119  0.2396  0.2144 -0.0580
15201W        W32725  13.704   6.427   4.918 -0.0166 -0.0978  0.0243
15202W        W32726  14.080  17.213   1.219  0.0544  0.0404  0.0740
15203W        W32727   7.533  10.721   3.390  0.0623 -0.1413  0.2918
15204W        W32728   6.806   5.457   4.996 -0.0049  0.3655  0.1485
15205W        W32729  12.945  13.876  14.969  0.1699  0.1008 -0.1521
15206W        W32730  15.541  16.680  13.848  0.1614  0.1100 -0.0601
15207W        W32731  14.477   0.529   3.261  0.1670 -0.1712 -0.2805
15208W        W32732   2.470  17.723   2.230  0.0912 -0.1932  0.1547
15209W        W32733  12.149   7.798  15.321 -0.3460  0.1608 -0.1869
15210W        W32734  13.314  16.853   1.388  0.0285  0.1729 -0.0813
15211W        W32735  14.567   0.072  13.878 -0.0796  0.1911 -0.1872
15212W        W32736   5.883  16.522   6.382 -0.1155  0.2516  0.0615
15213W        W32737  15.227  12.676  13.007 -0.1166  0.1453 -0.0214
15214W        W32738  11.735   1.535  11.844  0.0746  0.1480 -0.1066
15215W        W32739   1.356  16.285   4.526 -0.3816  0.0590  0.0902
15216W        W32740  16.163   4.164  14.758 -0.0928  0.1534 -0.1663
15217W        W32741   2.144  11.517  14.830  0.2401  0.1288  0.0158
15218W        W32742  12.411   9.899   0.906 -0.0598 -0.1900  0.0847
15219W        W32743   3.749  12.330  12.365  0.1561 -0.1433 -0.0258
15220W        W32744  15.364  17.870  15.831 -0.1086 -0.0085  0.2524
15221W        W32745   4.772   5.778  11.333 -0.0242  0.0614 -0.1206
15222W        W32746  12.945   8.114  13.690 -0.0758 -0.0992 -0.0410
15223W        W32747  10.003  13.962   2.517  0.2722  0.1163  0.2431
15224W        W32748  11.473  16.171   2.176  0.0699 -0.3431  0.0281
15225W        W32749  13.219  16.303   0.112 -0.1496  0.1580  0.1228
15226W        W32750   3.971   0.511  11.802  0.1342 -0.0818  0.2910
15227W        W32751  16.490   7.251  12.863 -0.0525  0.5690  0.1251
15228W        W32752  15.131   7.671   3.341 -0.2405  0.3181  0.1749
15229W        W32753   9.636   4.925  13.471  0.2159  0.3047  0.1167
15230W        W32754   9.865  13.502   2.208  0.2326 -0.0779 -0.1710
15231W        W32755   8.069   8.982  12.773  0.1886 -0.0880 -0.0844
15232W        W32756  15.237   3.735   5.014 -0.1920  0.0692 -0.0267
15233W        W32757  16.527  14.930   1.131 -0.1886 -0.0050  0.1488
15234W        W32758   3.826   1.046  14.917  0.1218  0.0459 -0.1067
15235W        W32759   2.030   5.410  12.280  0.1776 -0.0158 -0.1919
15236W        W32760   4.374   1.582   3.357  0.0186  0.2586  0.0251
15237W        W32761   9.201   4.034   1.627  0.0991 -0.0816  0.0586
15238W        W32762   8.866  17.848   3.027 -0.0076  0.2206 -0.3731
15239W        W32763  11.889   7.612   2.908  0.1059 -0.2407 -0.0644
15240W        W32764  10.757   2.356   3.924  0.0373  0.0955 -0.0501
15241W        W32765  13.960  12.029  15.307 -0.2130  0.2042  0.1859
15242W        W32766  12.701   8.738  12.048  0.1795  0.0751 -0.0680
15243W        W32767   2.296   7.493  15.345 -0.2808 -0.3583 -0.0047
15244W        W32768   3.007   3.709  13.505 -0.1650 -0.5268 -0.2638
15245W        W32769  14.321   2.807  13.446  0.2249  0.1193 -0.3505
15246W        W32770  17.174   1.587  15.256 -0.2675  0.0201  0.1355
15247W        W32771   8.819  12.078   4.597 -0.0357  0.0336  0.0539
15248W        W32772  13.308   5.577   0.122  0.1771 -0.2290 -0.1957
15249W        W32773   2.556  15.311  15.234  0.2622 -0.1298 -0.0026
15250W        W32774   7.707   4.039   0.027  0.2424  0.0335 -0.1804
15251W        W32775  12.124  14.367   2.810  0.1384  0.1482 -0.0873
15252W        W32776   0.565  11.057  11.191  0.2226 -0.1281  0.0727
15253W        W32777  11.854   3.167  13.970 -0.0205  0.0128 -0.4368
15254W        W32778   4.031   9.438  13.142 -0.2472  0.2808  0.4715
15255W        W32779  17.944   2.324  12.576 -0.0262  0.3016 -0.1553
15256W        W32780  13.627   7.138  12.699  0.1183  0.0305  0.1619
15257W        W32781   0.316  11.076   4.655 -0.2796 -0.0972 -0.0020
15258W        W32782   0.812   6.000   3.354 -0.1939 -0.1373  0.0024
15259W        W32783  14.485   6.931  15.968 -0.1410 -0.0212  0.0651
15260W        W32784   6.854   7.271  13.372  0.1645 -0.1067  0.4708
15261W        W32785  11.921  16.604  11.959  0.1917  0.0341 -0.2665
15262W        W32786  17.857   7.896   4.493  0.1151  0.2943 -0.1812
15263W        W32787   8.900   2.860  13.764 -0.0036  0.4743  0.0311
15264W        W32788   6.357   8.443  13.678 -0.2302  0.0713 -0.2156
15265W        W32789   4.873   0.316  15.661 -0.3043  0.0277 -0.1009
15266W        W32790   7.122   4.325  11.313  0.2811 -0.0070  0.0117
15267W        W32791  11.188   9.752   3.672  0.1579  0.2216 -0.3691
15268W        W32792  17.018  17.934   5.438  0.1347  0.2650  0.1874
15269W        W32793   0.239   9.592   0.882  0.0757  0.0082  0.2692
15270W        W32794   8.507  10.400  12.475 -0.3339 -0.2767  0.2580
15271W        W32795  16.758  17.938   0.239 -0.0250  0.2640  0.0385
15272W        W32796   5.414  11.340  11.733  0.0784 -0.3215 -0.1704
15273W        W32797   2.422   2.087   5.310 -0.3377 -0.2453 -0.1383
15274W        W32798   1.419   2.495   1.584  0.1527  0.1340  0.1340
15275W        W32799   6.673  10.464  14.377 -0.3090 -0.2192  0.1369
15276W        W32800   3.408  14.028  14.072  0.1541 -0.0993  0.1506
15277W        W32801  10.854  10.079   3.524  0.0371  0.0435  0.1860
15278W        W32802  12.083  13.857  13.213 -0.0101  0.0550  0.1869
15279W        W32803   0.171  11.121  13.167 -0.1434  0.4717 -0.1341
15280W        W32804  15.796  13.040  14.562 -0.1005  0.0593 -0.1216
15281W        W32805  17.755  12.737   2.648 -0.1409 -0.1946 -0.3384
15282W        W32806   9.052  10.045   4.388  0.2995 -0.0539 -0.0996
15283W        W32807   0.566   6.778   4.783 -0.3702  0.0094 -0.1598
15284W        W32808  12.546   2.669  13.628  0.0536  0.0707 -0.0975
15285W        W32809   9.047   5.059  12.174  0.0036 -0.4289 -0.1941
15286W        W32810   2.560   8.027  15.524  0.1462 -0.1600 -0.0349
15287W        W32811   8.442   8.105   1.905  0.0811 -0.1612  0.2534
15288W        W32812   5.437   2.636  11.986  0.1976 -0.0451  0.1712
15289W        W32813   9.787   4.693   2.844  0.1073 -0.1191 -0.0022
15290W        W32814   9.934  16.538  15.366  0.0816  0.0591  0.0953
15291W        W32815   2.333   0.279   2.897 -0.0467 -0.0631  0.1798
15292W        W32816  16.083   2.597  15.018  0.0625  0.1210  0.0468
15293W        W32817   3.864  16.250  13.212 -0.0880  0.0291 -0.0068
15294W        W32818   2.322  12.143  14.803 -0.0048  0.3436  0.1008
15295W        W32819  12.193   1.722   1.795 -0.0299 -0.2802  0.2847
15296W        W32820   6.439  10.877  16.390 -0.2375 -0.2131 -0.1032
15297W        W32821  12.966  14.669  14.977  0.0192 -0.0631 -0.0542
15298W        W32822   3.811  14.119   4.284 -0.3127 -0.1152 -0.0510
15299W        W32823  16.387   3.442   1.681  0.0256 -0.0305  0.1528
15300W        W32824   6.569  16.666   5.498  0.0414 -0.2348  0.1579
15301W        W32825   9.819  16.530   1.770 -0.2655  0.0601  0.2907
15302W        W32826   4.157  11.293   0.124  0.0370  0.2174 -0.0358
15303W        W32827   1.149   2.453   0.202 -0.0597  0.2658 -0.0146
15304W        W32828  13.468  11.306   4.199 -0.1231 -0.0898  0.1581
15305W        W32829  12.737   9.880   0.452 -0.0711 -0.1629  0.1265
15306W        W32830  15.610   7.514  12.816 -0.0808 -0.1361 -0.1920
15307W        W32831   4.991   2.046   4.516 -0.2206 -0.1917 -0.1292
15308W        W32832  13.949   5.366  15.980 -0.0945 -0.0028  0.0324
15309W        W32833   7.797  13.401  15.046 -0.2514 -0.1825  0.0836
15310W        W32834   5.449   2.550   1.740 -0.0764  0.2128  0.0342
15311W        W32835  14.806   5.825   3.975  0.0669  0.1640  0.0160
15312W        W32836  16.939  17.162   0.366 -0.1750  0.0881 -0.0034
15313W        W32837  14.103  12.525  15.226  0.1294 -0.3857 -0.0581
15314W        W32838   9.762  14.177   4.930 -0.0871 -0.3014 -0.3338
15315W        W32839   0.625   7.464  14.929  0.0747  0.0891  0.4161
15316W        W32840  13.595  15.105  16.354 -0.4062 -0.1856 -0.1599
15317W        W32841   8.650   7.386  15.996  0.0324  0.1619 -0.0455
15318W        W32842   8.403   9.072  14.469  0.1423  0.1052  0.2459
15319W        W32843   0.222   7.989  14.226 -0.2811 -0.1717  0.4799
15320W        W32844   0.228   6.539   4.077  0.0236 -0.2653 -0.0731
15321W        W32845  11.430   7.351   2.841 -0.1011  0.1410 -0.2260
15322W        W32846   0.153   8.972   1.455 -0.1936  0.0309 -0.3545
15323W        W32847  17.498  10.419   0.199  0.0870 -0.0888 -0.0890
15324W        W32848   9.961   9.329   4.662 -0.1938  0.1427  0.1363
15325W        W32849  13.037   1.065   0.321 -0.0637  0.0642 -0.0036
15326W        W32850  12.992   4.812   1.004 -0.2072  0.3580 -0.2383
15327W        W32851   3.452   8.447   2.851  0.1464 -0.1689  0.3065
15328W        W32852  15.032  16.477  12.317 -0.0724  0.2187  0.3995
15329W        W32853   0.442   2.266   1.568  0.3039 -0.1364  0.1371
15330W        W32854   6.594   0.953  14.875  0.0510  0.2780  0.1198
15331W        W32855  11.053   8.161   0.252  0.6777  0.3249 -0.0482
15332W        W32856   0.583   3.904   4.820  0.1547 -0.0847  0.0138
15333W        W32857  16.127   9.360   0.021  0.0486 -0.0289 -0.2082
15334W        W32858   1.956  13.089   3.287 -0.1383 -0.0638  0.3466
15335W        W32859   9.235   5.680  14.557  0.0915  0.1676 -0.2312
15336W        W32860  16.606   2.507   1.034  0.0773 -0.0439 -0.0190
15337W        W32861   3.237   8.387  11.833 -0.1964 -0.0137  0.1690
15338W        W32862   2.788  11.175   1.513  0.1159  0.1049 -0.0751
15339W        W32863  15.324   2.146  13.119 -0.0011  0.0821 -0.0776
15340W        W32864  11.677  10.188   0.495  0.2896  0.2426  0.0469
15341W        W32865   7.603   3.613  13.094  0.0987  0.3674 -0.0997
15342W        W32866  11.151   7.376   0.639  0.5372  0.1001 -0.0479
15343W        W32867  16.087  14.982  15.343  0.1813  0.0595  0.0101
15344W        W32868  13.198   6.126   0.330 -0.3541  0.0987 -0.0865
15345W        W32869  16.969  12.248   4.267 -0.0316  0.0978  0.1057
15346W        W32870  17.117   9.744   0.735 -0.0617  0.2042 -0.0331
15347W        W32871  14.756  16.728  14.808 -0.1341 -0.1069 -0.1268
15348W        W32872  15.131   9.472  16.054  0.2819 -0.0359  0.2391
15349W        W32873   6.287   8.779   2.395 -0.2121  0.2089 -0.0867
15350W        W32874  17.708   7.868  14.296 -0.0488 -0.4496  0.0585
15351W        W32875   9.888   1.036  11.015 -0.0009 -0.0955  0.0081
15352W        W32876   8.028   4.888  13.864 -0.2132 -0.1858  0.1669
15353W        W32877  10.523   3.638  12.657  0.1019  0.1516  0.0835
15354W        W32878   9.433  15.873   3.721 -0.0060  0.1034 -0.1993
15355W        W32879   1.964  14.100  11.189  0.1071  0.1150 -0.0632
15356W        W32880   5.147  14.841   4.181  0.0406 -0.1910 -0.1803
15357W        W32881   8.363  15.961   1.161  0.1260  0.1832  0.3196
15358W        W32882  16.312   0.875  11.897  0.0693  0.2069  0.0219
15359W        W32883   7.319  14.555   3.366  0.1346 -0.0924  0.0178
15360W        W32884   5.917  15.874  10.779  0.1789  0.3409 -0.0836
15361W        W32885   6.158   7.276  11.688  0.1412 -0.1650  0.1081
15362W        W32886  12.129  14.650  15.632  0.0062 -0.0635 -0.0420
15363W        W32887  13.154   1.788  12.917 -0.1589  0.3128  0.0796
15364W        W32888  17.118  13.864   2.504 -0.0183  0.1279 -0.0538
15365W        W32889  11.981  10.455   1.610  0.1139 -0.2179 -0.2451
15366W        W32890   9.640   1.309  15.540  0.3030  0.1180  0.2995
15367W        W32891   6.265   3.706   3.516  0.0240 -0.1933  0.3862
15368W        W32892   9.352  13.993   1.754  0.3268  0.1044  0.3067
15369W        W32893   8.743   0.172  14.901 -0.0384 -0.4268  0.2019
15370W        W32894   8.168   9.443  12.606 -0.0140  0.1784 -0.2837
15371W        W32895  10.398  14.585   3.531  0.2417  0.0665 -0.1253
15372W        W32896  17.169   3.976  11.727 -0.2274 -0.3030  0.2717
15373W        W32897   0.323  11.332   2.932  0.2219  0.1644 -0.0507
15374W        W32898   7.843  16.716  13.183  0.1369  0.2415  0.0393
15375W        W32899   1.786  10.417   0.589 -0.1083  0.0576 -0.0278
15376W        W32900  15.519  10.228   1.397  0.1568 -0.0845  0.0223
15377W        W32901  14.377   8.562  14.591  0.0338  0.0615  0.0462
15378W        W32902   2.190   8.468   1.371 -0.2607  0.1437 -0.3394
15379W        W32903  12.169   3.358   4.148  0.1142  0.1034 -0.0236
15380W        W32904  10.143  16.718  13.368  0.2015 -0.0865 -0.0744
15381W        W32905  10.598  11.043   0.114 -0.1353  0.0046  0.0089
15382W        W32906   0.202  10.356  13.655  0.0946 -0.3256 -0.1856
15383W        W32907  14.785   8.803   0.104 -0.0551  0.0047 -0.1146
15384W        W32908  17.968   2.378   3.944 -0.3211 -0.1271 -0.1558
15385W        W32909   4.291  15.357   0.410 -0.0887  0.0590 -0.1224
15386W        W32910  10.830   5.002  16.262 -0.2458  0.1114 -0.1021
15387W        W32911   6.177   6.652   2.638 -0.1434 -0.0957 -0.0191
15388W        W32912  16.027   7.033   2.446 -0.2057 -0.1777 -0.3302
15389W        W32913   2.069   1.508  16.079  0.4650  0.3586  0.2435
15390W        W32914   8.342  16.252  12.828  0.1357 -0.2438  0.1394
15391W        W32915   9.306   9.585  11.907 -0.0814  0.1860 -0.2842
15392W        W32916   9.521  11.006  15.073  0.1999 -0.0514 -0.3139
15393W        W32917   9.239   2.963   2.424 -0.2442 -0.0544  0.0957
15394W        W32918   6.916   4.467  12.393 -0.0811  0.1611  0.1107
15395W        W32919  11.915  15.895   3.048 -0.2553 -0.1489  0.1917
15396W        W32920   7.899   6.488  15.385 -0.0620  0.0862 -0.1098
15397W        W32921  16.499   0.045  14.139  0.1813  0.0742 -0.0830
15398W        W32922  12.188   0.750  12.123 -0.1605  0.2184 -0.3294
15399W        W32923   4.092  12.155  12.730  0.0955  0.1645 -0.1911
15400W        W32924  14.722  14.608  14.331  0.1640  0.1036  0.0898
15401W        W32925   0.428   9.079  11.507 -0.0585 -0.0665 -0.0753
15402W        W32926   7.868  16.535  15.482 -0.2012  0.0108  0.2059
15403W        W32927   2.061   9.766  15.739  0.1078 -0.1329 -0.0292
15404W        W32928  17.033   5.495   4.483 -0.0111 -0.0191 -0.0869
15405W        W32929   0.144  14.202   3.198  0.1166 -0.0443 -0.0308
15406W        W32930   0.225   3.324   3.780 -0.0357 -0.1330  0.0960
15407W        W32931  16.748  11.281   1.431 -0.0840 -0.2481 -0.1912
15408W        W32932  14.110   6.561   5.230 -0.0248 -0.0012  0.0320
15409W        W32933  13.849   2.242   4.746 -0.0041 -0.0667  0.1999
15410W        W32934   3.656  17.930  13.855 -0.1451  0.0247 -0.1915
15411W        W32935  12.796  10.388  13.388  0.0583 -0.1151 -0.0253
15412W        W32936  16.286  12.275  14.508  0.1801  0.0061 -0.0903
15413W        W32937  13.968  15.122   2.092 -0.0698 -0.2613  0.0188
15414W        W32938   5.671   0.673   1.531 -0.1279  0.2154 -0.0810
15415W        W32939  16.033  14.017  13.740 -0.1089 -0.0263  0.0685
15416W        W32940  10.971  12.723   1.023  0.1929 -0.1011  0.2962
15417W        W32941   2.988   9.428   1.081 -0.0315  0.1238 -0.2515
15418W        W32942  11.203  16.725  11.290 -0.1335 -0.3085  0.0516
15419W        W32943   1.474   3.197   3.528  0.0866  0.0758  0.1160
15420W        W32944   8.739  10.129   3.310 -0.2597  0.2012  0.0023
15421W        W32945  11.066   2.458  10.511  0.1189 -0.2421  0.2254
15422W        W32946  17.616   6.927  11.466 -0.1660 -0.0353 -0.0915
15423W        W32947  16.085  15.910   1.529  0.4105  0.2446  0.0388
15424W        W32948   1.342  11.107  12.675 -0.2685 -0.3747  0.0888
15425W        W32949  10.597   8.393   2.711  0.1293 -0.0299 -0.1933
15426W        W32950   4.157   4.953   2.206  0.2946 -0.2178 -0.2398
15427W        W32951  11.867   5.509  11.550  0.0493 -0.2174 -0.0700
15428W        W32952   7.137  17.768   1.997 -0.2875 -0.1512  0.4236
15429W        W32953  10.890  11.626  12.465  0.2138  0.1465 -0.0517
15430W        W32954  11.833   8.732   2.843  0.4412 -0.1835  0.1068
15431W        W32955   3.947   3.482   4.949  0.0196  0.0454  0.1737
15432W        W32956  12.588   1.938   3.265 -0.0854  0.0671 -0.1027
15433W        W32957   1.238  16.849   0.968 -0.0961  0.1205 -0.0699
15434W        W32958   8.010  10.394  12.242  0.2072 -0.2323  0.2753
15435W        W32959   3.014   7.913  12.064  0.3257  0.2241  0.0061
15436W        W32960  14.696   4.038  11.540 -0.0371 -0.0271  0.1771
15437W        W32961   9.317   6.499  13.110 -0.0427  0.0358  0.1450
15438W        W32962   9.151   5.207   0.259  0.0724  0.3067 -0.2001
15439W        W32963   6.350   0.521   1.210 -0.2038 -0.4019  0.0645
15440W        W32964   0.380  15.433   3.636  0.2037  0.0462  0.2793
15441W        W32965  10.441   0.157   2.092 -0.1382 -0.3286 -0.6190
15442W        W32966   6.377  14.450  10.515 -0.1913  0.1881  0.4750
15443W        W32967  17.152   8.053  15.604  0.0453  0.1743  0.0649
15444W        W32968   0.849   1.850  16.262  0.2269  0.1066 -0.0905
15445W        W32969   0.407  14.774  15.045 -0.2801 -0.3697 -0.0617
15446W        W32970  17.835  13.050  11.501  0.0801 -0.1875  0.1393
15447W        W32971  13.238   5.820  11.195  0.1148 -0.2491 -0.2004
15448W        W32972   4.765   1.827   3.557  0.3167 -0.2097  0.4071
15449W        W32973   3.893   3.683  13.414 -0.1815  0.2871 -0.0703
15450W        W32974   8.358  15.236  11.891  0.2619  0.3643  0.0510
15451W        W32975  12.517   4.263   0.833 -0.3038 -0.1818  0.0830
15452W        W32976   5.411   1.596   2.707 -0.0871  0.3058 -0.0399
15453W        W32977  13.360   2.226  12.629 -0.1498 -0.3013  0.1339
15454W        W32978  14.037  11.448  13.412  0.1824 -0.4513  0.1639
15455W        W32979   8.893  17.020   2.461  0.0544 -0.1697 -0.1039
15456W        W32980   7.278   3.954  11.805 -0.1491  0.0369  0.2216
15457W        W32981  15.345   4.400  14.304 -0.0806  0.1148 -0.0868
15458W        W32982  11.045  12.317   2.496 -0.0777 -0.2710  0.0881
15459W        W32983   0.944  13.385  13.900  0.0270 -0.0669 -0.0151
15460W        W32984   6.643  10.313  11.498 -0.1192 -0.0565  0.0993
15461W        W32985   8.484   2.645   5.239  0.1222  0.2450  0.1929
15462W        W32986   5.017  10.184   5.090 -0.0908  0.2052 -0.1061
15463W        W32987   1.772   2.515  12.485  0.1041 -0.2547 -0.0374
15464W        W32988  11.632  13.940   5.751 -0.1453 -0.1137  0.2711
15465W        W32989   5.589  10.020  15.531 -0.0758  0.0305 -0.1794
15466W        W32990   7.937  17.545  11.509 -0.1544  0.1624 -0.1832
15467W        W32991  17.931   8.450  11.677  0.1558 -0.0003 -0.0584
15468W        W32992   9.723   8.304   1.812  0.3327  0.1044  0.5625
15469W        W32993  14.023   0.777  11.181 -0.0467  0.0322  0.2325
15470W        W32994  11.690   5.893  12.481 -0.3460  0.0119 -0.3014
15471W        W32995   9.164  12.968   5.428  0.0953 -0.1014 -0.0796
15472W        W32996  12.293   4.480   1.926  0.1914 -0.0112  0.2449
15473W        W32997  16.457   9.111   4.279  0.0646  0.0900  0.2839
15474W        W32998   7.182  16.103   2.302 -0.0573  0.1288  0.0653
15475W        W32999   5.624   8.833  14.054 -0.0409 -0.1656  0.0931
15476W        W33000   6.546   6.882  13.227 -0.1222  0.1606 -0.0019
15477W        W33001  15.939   3.075  13.807  0.1188  0.1268 -0.0389
15478W        W33002  17.939   5.840  12.288 -0.1845 -0.0403  0.0818
15479W        W33003   4.742  14.673  11.670 -0.4261 -0.0675  0.0318
15480W        W33004   5.802  11.605   4.895 -0.2011  0.0182 -0.1385
15481W        W33005  16.006  13.978  10.280  0.1153  0.1815 -0.1248
15482W        W33006  10.191  13.092  11.389 -0.4333  0.1153 -0.1503
15483W        W33007  10.930   2.734   4.661  0.0933  0.1540 -0.4262
15484W        W33008   5.129   8.487   1.022  0.3642 -0.0448  0.4529
15485W        W33009  11.384  13.171  14.594  0.0845  0.1419 -0.0801
15486W        W33010   8.793  16.629  13.973 -0.0688  0.1772 -0.0250
15487W        W33011  16.554  14.401   3.994 -0.0203 -0.0788 -0.0004
15488W        W33012   1.945  12.787  14.855  0.0070  0.0656 -0.0787
15489W        W33013   5.783   9.680  12.686  0.1014 -0.0741  0.0728
15490W        W33014  16.473  13.903  14.574 -0.0653 -0.0941  0.3082
15491W        W33015   9.693  10.237   1.446 -0.1468 -0.0639 -0.1611
15492W        W33016  13.513   1.194  14.899 -0.3651  0.1137 -0.1536
15493W        W33017   1.853  12.494  13.685  0.0424  0.1089 -0.0216
15494W        W33018   4.974  15.174  15.428 -0.2179  0.0377  0.3962
15495W        W33019   7.340  11.540   4.225 -0.1575  0.0929 -0.4575
15496W        W33020   6.124  17.658   4.322 -0.1593  0.4308 -0.0437
15497W        W33021  12.862   1.328  13.032 -0.1161  0.0269 -0.0955
15498W        W33022   6.960   6.167   2.356  0.1343 -0.2649 -0.1738
15499W        W33023  12.856  14.263   4.906 -0.0353  0.1417  0.0697
15500W        W33024   3.125   3.736   1.878 -0.4693  0.2553  0.0761
15501W        W33025   2.508  13.347   2.893  0.1053 -0.0379 -0.1042
15502W        W33026   6.565  16.132  15.824  0.0785  0.0260 -0.0737
15503W        W33027  10.828   8.769   1.848  0.0094 -0.1729 -0.0741
15504W        W33028   4.775  14.713   4.544  0.2257 -0.4276  0.0511
15505W        W33029  10.166  15.626   2.196 -0.0448 -0.0837  0.5495
15506W        W33030  13.269  16.168   5.303 -0.0707  0.0110 -0.1236
15507W        W33031  12.569   9.734  11.718 -0.2205 -0.2728  0.2978
15508W        W33032  13.453   2.109  12.101  0.1561  0.3913 -0.4270
15509W        W33033   9.639  10.494  12.841  0.0269 -0.0952 -0.0587
15510W        W33034   5.079  17.288  14.157  0.0937 -0.2745 -0.0776
15511W        W33035   7.747  16.834  14.541 -0.0708 -0.0101  0.2254
15512W        W33036   9.384   8.904   0.045 -0.0755 -0.1733 -0.2968
15513W        W33037  10.530  14.703   2.143  0.0214  0.2476  0.0539
15514W        W33038  12.365   3.685  15.639  0.0052  0.0611  0.0713
15515W        W33039  16.242   5.937   1.397  0.0810  0.0150 -0.1093
15516W        W33040   6.111   6.257   5.623  0.1481  0.3713 -0.0000
15517W        W33041   3.488   1.922  11.677  0.0472 -0.1867  0.1775
15518W        W33042  10.335  12.354  16.232  0.1591  0.0058  0.2647
15519W        W33043   1.723   1.287  13.010 -0.0829  0.3129 -0.1836
15520W        W33044   1.217  16.800  14.538  0.0315 -0.0634 -0.1314
15521W        W33045   7.232  17.076   4.195 -0.1224 -0.0422  0.0724
15522W        W33046   1.202   1.255  12.804  0.1844 -0.1811  0.0386
15523W        W33047   4.832   4.680  11.193 -0.5444  0.0168 -0.0320
15524W        W33048  17.959  12.356  13.846  0.1358 -0.1156 -0.0539
15525W        W33049   5.641  16.294   4.335 -0.1319  0.2330 -0.2838
15526W        W33050   1.976  12.550   3.260 -0.0096  0.0544  0.1584
15527W        W33051   7.390   9.523   0.520  0.0280 -0.0935 -0.2914
15528W        W33052  13.590  10.444   2.557  0.0859  0.1175 -0.2298
15529W        W33053  14.170  15.446  12.854 -0.1274 -0.0796 -0.1276
15530W        W33054  16.593   3.891   1.551 -0.2471  0.2274 -0.0963
15531W        W33055   2.912   6.382  15.531  0.1038 -0.1218 -0.1567
15532W        W33056  11.558   4.257  13.059  0.0242 -0.0786  0.0532
15533W        W33057   3.328  17.171   2.956 -0.0655  0.2378  0.0432
15534W        W33058  14.940  11.295   4.849 -0.0857  0.0845 -0.3267
15535W        W33059   2.610   2.401  13.383  0.3796 -0.0008  0.1304
15536W        W33060   9.085   7.544  13.678  0.0076 -0.0520  0.0257
15537W        W33061   2.414  16.404   3.394 -0.0994  0.0328  0.1406
15538W        W33062   8.904  17.299   3.156 -0.0297  0.0995  0.4646
15539W        W33063   8.816   0.751  14.074  0.2888  0.0393 -0.2458
15540W        W33064   6.951   8.117  10.504 -0.1529 -0.3107 -0.1298
15541W        W33065  16.502   6.459  13.442 -0.2470  0.3526  0.2403
15542W        W33066   4.019   8.827   4.298  0.0506  0.0875  0.0013
15543W        W33067   6.544   4.818  14.436 -0.3664 -0.1182  0.1235
15544W        W33068   8.623  17.297   5.170  0.3441  0.0184 -0.1614
15545W        W33069  14.656   8.685   2.759 -0.3480  0.2662 -0.4114
15546W        W33070   2.866  15.382   4.799  0.0182 -0.1800  0.0535
15547W        W33071   3.596  15.134  15.710  0.2000 -0.0877  0.0560
15548W        W33072   7.296  13.737   5.169  0.0373  0.1118  0.0383
15549W        W33073   7.670  14.023   4.895  0.0646 -0.0262  0.0065
15550W        W33074  10.173   9.397   2.966  0.0787  0.1818 -0.0706
15551W        W33075  15.178   5.177  14.841 -0.1615 -0.0042 -0.1613
15552W        W33076  16.918  15.492  15.497 -0.0661 -0.2161  0.1755
15553W        W33077   9.258  16.311  16.404 -0.2964  0.0733 -0.2026
15554W        W33078  13.499  13.792   5.246  0.3171  0.2312  0.1576
15555W        W33079   8.606  15.607  12.077 -0.1796 -0.1121 -0.4026
15556W        W33080   0.163  14.516   5.511  0.0870 -0.0918 -0.1245
15557W        W33081  13.902  11.525  11.638 -0.1417  0.0988  0.2519
15558W        W33082  13.677  12.244  15.963  0.1578 -0.1119 -0.2078
15559W        W33083  14.842  13.871  12.802  0.1033  0.1325 -0.1848
15560W        W33084   4.766   3.099   2.979 -0.1875  0.2524  0.0407
15561W        W33085   8.261  17.263   0.334 -0.1419  0.2790 -0.0232
15562W        W33086  10.551   1.787  11.159 -0.0433  0.1529  0.1074
15563W        W33087   8.578  12.013   0.125 -0.1458 -0.2521  0.1513
15564W        W33088   6.035  14.919  15.482  0.0878  0.2122  0.1760
15565W        W33089   6.847  12.862   0.064  0.3166 -0.1817  0.0880
15566W        W33090  12.477  13.473  14.352 -0.0472  0.1193 -0.0019
15567W        W33091   4.042   6.844  15.054 -0.5411 -0.4232 -0.2756
15568W        W33092   4.176  16.426   0.925 -0.0926 -0.0653  0.0914
15569W        W33093   0.176  10.563   4.224 -0.0674  0.0084 -0.0338
15570W        W33094   4.546   3.591  12.664  0.0515  0.2917  0.1249
15571W        W33095   3.321   0.293   2.882 -0.1486 -0.0633  0.1255
15572W        W33096   2.834  13.337  10.829 -0.2930 -0.2654 -0.2065
15573W        W33097  11.898   7.640  11.838  0.0053  0.1905 -0.1162
15574W        W33098   5.640   5.969   1.854 -0.1206  0.0494  0.0837
15575W        W33099  16.452  13.072  16.213 -0.2550  0.0328 -0.2371
15576W        W33100   4.632  15.830   5.091  0.0971 -0.0804  0.1609
15577W        W33101   2.543   2.252   4.658  0.0986  0.1022  0.1085
15578W        W33102   9.155   0.201  12.551 -0.2910 -0.1167 -0.1247
15579W        W33103   0.838   6.491   4.362  0.0510  0.2154  0.2877
15580W        W33104  17.519   5.752   4.785 -0.1141  0.2577 -0.0634
15581W        W33105  16.381  13.584  13.928 -0.1877  0.0532 -0.0364
15582W        W33106   5.586   1.822   3.126 -0.1868 -0.1576 -0.2101
15583W        W33107  16.929  13.513  13.618  0.1955  0.0191 -0.2059
15584W        W33108   2.660   1.218   2.054  0.0490  0.0526 -0.0587
15585W        W33109   8.708  13.470   1.073 -0.0370 -0.2944  0.0994
15586W        W33110   7.992   6.218  14.941 -0.3288  0.1709  0.2002
15587W        W33111  17.292   3.828  15.350 -0.4539  0.0954 -0.2052
15588W        W33112   5.321   1.489   3.490  0.3846 -0.2296  0.1540
15589W        W33113   9.191  10.314   1.288  0.0442 -0.0295  0.2064
15590W        W33114  10.099   2.087  11.856  0.3183  0.2345  0.2661
15591W        W33115  13.588  17.697  11.883  0.2759 -0.0191 -0.0519
15592W        W33116   7.486  17.675   0.069 -0.3224  0.1031 -0.0191
15593W        W33117   0.725   7.788  12.793 -0.0909  0.0350  0.1455
15594W        W33118  11.787   2.264  11.840  0.1579  0.0763 -0.0052
15595W        W33119   5.770   3.667  11.006 -0.0021  0.0213 -0.0400
15596W        W33120   2.174  16.429  15.751  0.0575 -0.1151 -0.0980
15597W        W33121   2.322   7.155  12.006 -0.0082 -0.1133  0.1693
15598W        W33122  13.088  15.165  15.066  0.1512 -0.0738  0.1182
15599W        W33123   0.656  16.047  13.379  0.0743  0.2052  0.1039
15600W        W33124   4.156  14.372  14.197  0.2622  0.0007 -0.4389
15601W        W33125  13.377  17.462   2.031  0.1039 -0.0448  0.0573
15602W        W33126   0.747   0.443   4.439  0.1662 -0.0736  0.0315
15603W        W33127   3.918  16.771   4.488 -0.1512 -0.1731 -0.2801
15604W        W33128  10.287   6.326  12.314 -0.0156 -0.0409 -0.1521
15605W        W33129   0.904  14.843   0.652  0.0583 -0.2283  0.4645
15606W        W33130  16.372   9.956   3.675  0.0627 -0.5341  0.1400
15607W        W33131  14.764  16.064   3.477 -0.2912 -0.1955 -0.1068
15608W        W33132  11.476   2.541  11.495 -0.0737  0.0454 -0.1247
15609W        W33133   3.496   1.470  13.111 -0.0702  0.1910  0.0488
15610W        W33134   0.706   9.188  12.639  0.1059 -0.0825 -0.1462
15611W        W33135   3.854  13.304  12.215  0.3088 -0.2046 -0.3161
15612W        W33136   0.793   5.188   2.452 -0.0061 -0.0077 -0.3971
15613W        W33137  12.956   6.459   3.926  0.2368 -0.1369 -0.1767
15614W        W33138   6.385   0.720   2.459  0.0328 -0.1889  0.0004
15615W        W33139  16.309   2.159  15.975  0.0686  0.0978  0.0254
15616W        W33140  10.613   7.207   2.839 -0.1122 -0.1195  0.0533
15617W        W33141   1.873  13.460   1.215 -0.0804 -0.1363  0.1404
15618W        W33142   4.940   6.821   4.721  0.1136 -0.1988  0.1257
15619W        W33143   8.159  10.779  15.147  0.0698 -0.4063  0.0890
15620W        W33144   2.592   6.540  14.944  0.1445  0.0749  0.0583
15621W        W33145   5.607  10.990  15.815 -0.1531 -0.0702  0.0895
15622W        W33146   2.047   1.739   5.213  0.0219  0.0456 -0.0276
15623W        W33147  16.634   9.440  12.619 -0.0497  0.2921  0.0150
15624W        W33148   2.148  17.096  14.832  0.6258 -0.1618 -0.0221
15625W        W33149   8.944   9.589   1.115 -0.1115 -0.1730 -0.2333
15626W        W33150   2.693   8.583   1.397  0.1593  0.3576  0.1330
15627W        W33151  13.989   1.974   2.240 -0.0695 -0.0764 -0.0836
15628W        W33152  16.113   0.919   0.544  0.1183  0.1874  0.0602
15629W        W33153   2.876   4.998  12.948  0.2099  0.1437  0.0072
15630W        W33154   8.505  11.274  16.009 -0.2395 -0.1083 -0.1063
15631W        W33155   9.483   6.632   5.127  0.1068 -0.1246 -0.3160
15632W        W33156  15.566  15.274   1.937 -0.1148 -0.0621  0.2221
15633W        W33157  13.449  12.797   5.032 -0.0473  0.0690  0.0961
15634W        W33158  12.287  12.743   0.848 -0.3255  0.0699 -0.3083
15635W        W33159   0.450   0.069  12.197  0.2752  0.0060  0.1198
15636W        W33160  14.485   0.741  15.434  0.1179  0.1578 -0.1412
15637W        W33161   2.081  12.940   2.416 -0.2571  0.2373  0.0889
15638W        W33162   6.940  12.362   4.520 -0.1043  0.4490  0.0585
15639W        W33163   5.759  17.491   0.526 -0.0706  0.1087  0.0151
15640W        W33164   3.030   1.810  12.497 -0.0610  0.0630  0.1137
15641W        W33165  13.706  16.894   0.986 -0.1846 -0.3993  0.2227
15642W        W33166   4.233  12.649  12.791  0.3622 -0.0457  0.0421
15643W        W33167   1.480   2.848   0.877  0.0321 -0.2965  0.0911
15644W        W33168   2.479   4.025   1.251 -0.2337  0.2381  0.0285
15645W        W33169   6.032   9.997  10.252  0.1450 -0.0571 -0.0637
15646W        W33170   8.278  15.046  13.171  0.1876  0.1835  0.1980
15647W        W33171   2.558   3.194  15.196 -0.1952 -0.1805 -0.1990
15648W        W33172   8.739   4.609   2.990 -0.0512 -0.1466  0.1880
15649W        W33173  14.746  17.883  12.344 -0.0741 -0.0641 -0.4365
15650W        W33174   6.082   1.870   3.241 -0.0750  0.0229 -0.2482
15651W        W33175  17.820   3.427   2.072 -0.3132 -0.2504  0.0643
15652W        W33176   4.334   2.163  13.719 -0.0506 -0.0951  0.0190
15653W        W33177   6.902   2.056  14.416  0.1447 -0.1215  0.2040
15654W        W33178   8.027   3.306   1.102 -0.0964 -0.1754  0.0783
15655W        W33179  16.347   1.895  15.014 -0.1317  0.2532  0.0552
15656W        W33180  13.535   0.904   1.424  0.0028  0.1087  0.0219
15657W        W33181   4.599   1.063   4.911  0.1118  0.0812  0.0298
15658W        W33182  14.967  10.853  11.590 -0.4276  0.3362 -0.3339
15659W        W33183   9.376  10.835   2.371 -0.1549 -0.5457 -0.0917
15660W        W33184  13.402  12.589   4.158 -0.1404 -0.4545 -0.2628
15661W        W33185   2.548  13.064  15.926 -0.4276  0.0340 -0.0506
15662W        W33186  12.365  11.651   4.252  0.2515 -0.1331 -0.1066
15663W        W33187  10.684  17.371  13.015 -0.2880  0.0815 -0.0416
15664W        W33188   8.476   5.620   3.969 -0.0130  0.0921  0.2757
15665W        W33189   4.711  11.670  13.480 -0.3568 -0.0597  0.0395
15666W        W33190   3.990  12.746   0.597  0.2624  0.3200 -0.4694
15667W        W33191   1.538   4.123  15.347 -0.0422 -0.2555  0.0529
15668W        W33192   0.312   3.812  13.907 -0.0474  0.0668  0.0051
15669W        W33193  17.680   5.399   1.062  0.1521  0.0765 -0.0718
15670W        W33194  14.774   1.831   3.890  0.0594 -0.1479  0.1467
15671W        W33195   4.658   1.227  15.002  0.1135  0.2873  0.1941
15672W        W33196   7.870  11.313   3.570  0.1625  0.2528 -0.0608
15673W        W33197   1.746   6.697   2.793 -0.2875  0.2508 -0.0929
15674W        W33198   5.018   6.308  14.283 -0.1335  0.3676  0.0435
15675W        W33199   3.529   0.753  10.936  0.1421 -0.0474 -0.3534
15676W        W33200   8.029   8.787   4.574  0.1370  0.1329 -0.1385
15677W        W33201  12.631  13.104   0.710 -0.0032 -0.1472 -0.0910
15678W        W33202   4.505   0.086  12.369  0.1683 -0.0173 -0.0933
15679W        W33203   2.314  14.779   2.208 -0.1267  0.0795 -0.2592
15680W        W33204  15.484  11.193   4.010 -0.3483  0.1419 -0.0133
15681W        W33205   8.895  12.391   6.435  0.0126  0.2559 -0.1930
15682W        W33206  16.784   3.403  14.277  0.2247  0.2949 -0.1756
15683W        W33207  12.676  13.944   1.377  0.0692  0.4056 -0.0990
15684W        W33208  12.441  15.883  15.469  0.0276 -0.0077  0.0625
15685W        W33209   7.493   2.416   3.731  0.2523  0.0168  0.0120
15686W        W33210  11.132   8.770  12.973  0.2379  0.1152 -0.0779
15687W        W33211   3.907   3.414   2.352  0.1491  0.0526 -0.3085
15688W        W33212  15.802  16.918  12.670 -0.2006  0.1777  0.2206
15689W        W33213   2.821   1.343   4.885 -0.0173 -0.1078  0.1548
15690W        W33214   4.226  16.619  12.987  0.3140  0.0053  0.0439
15691W        W33215   8.787  17.642  13.188  0.0701 -0.1635  0.2766
15692W        W33216  10.687   1.476   4.563 -0.1333 -0.2786  0.0856
15693W        W33217   1.013   7.456  15.229  0.1017 -0.0476  0.1535
15694W        W33218   8.356   2.846  12.200 -0.2260 -0.3000  0.0483
15695W        W33219  13.018   2.954  15.917  0.2463 -0.0667 -0.0334
15696W        W33220  16.623  15.903   2.626  0.0267  0.1206 -0.1550
15697W        W33221   4.763   9.050  12.523 -0.0509 -0.1185  0.0424
15698W        W33222  15.060   5.067   3.330  0.0377  0.2963  0.1767
15699W        W33223   3.623   5.875  13.273 -0.0628  0.1459  0.2522
15700W        W33224  16.998  14.184  14.384  0.1041  0.2124 -0.0640
15701W        W33225   9.330   9.848   2.701 -0.1560  0.1035  0.1340
15702W        W33226  11.572   1.763  15.655  0.1870  0.2078 -0.0661
15703W        W33227  11.345   3.745  11.630  0.2582 -0.2141  0.1226
15704W        W33228   9.362  17.415   0.869 -0.0260 -0.3031  0.1465
15705W        W33229   8.944   1.128  10.575  0.3060  0.1636 -0.1155
15706W        W33230   7.437   4.986   5.522  0.0287  0.0617  0.0363
15707W        W33231  12.512  13.382  13.815  0.2550  0.0197  0.1990
15708W        W33232   0.764  15.410  14.520 -0.1033  0.0876 -0.1412
15709W        W33233   7.184  10.286   3.507 -0.0909 -0.0424 -0.5006
15710W        W33234  10.274  12.664  12.429  0.0794  0.1228  0.2253
15711W        W33235   7.833  13.330   4.138 -0.0055 -0.2179 -0.2633
15712W        W33236  10.352   9.493   4.845 -0.0689 -0.0601  0.0128
15713W        W33237  10.490   1.347  12.346  0.3578 -0.0284  0.0784
15714W        W33238   6.208   0.397   4.898 -0.0884 -0.1235  0.4390
15715W        W33239  10.263   1.782   1.042  0.0444  0.1559 -0.2427
15716W        W33240   5.847   7.528   3.843  0.0254  0.0892  0.0143
15717W        W33241   4.752   9.767   1.767  0.2214 -0.0245 -0.0209
15718W        W33242   4.126   7.095   1.826 -0.0427  0.0164 -0.1882
15719W        W33243   6.998   2.388   4.513 -0.0789  0.3538  0.1176
15720W        W33244   3.987  17.503  11.467  0.0258 -0.3327  0.0271
15721W        W33245   5.424  11.580  15.812  0.0205 -0.1106 -0.1066
15722W        W33246  11.078  14.587   4.680 -0.0753 -0.0098  0.3158
15723W        W33247  12.707   8.578  15.060  0.0264  0.1889  0.0452
15724W        W33248  10.036  12.560   1.054  0.0234 -0.1934  0.0313
15725W        W33249  17.331  15.044  15.645  0.2127  0.2635  0.2422
15726W        W33250   4.304  12.069  14.379  0.2195  0.1862 -0.0177
15727W        W33251  17.734  15.828  15.097  0.1332 -0.1870  0.0359
15728W        W33252  11.348   9.892  16.085  0.1221 -0.1725 -0.4298
15729W        W33253   0.840  16.701   0.639  0.0624  0.0284 -0.2004
15730W        W33254  11.690  17.323   1.178  0.2027  0.0742 -0.0950
15731W        W33255   0.510  15.391   4.547  0.1844  0.2672  0.3064
15732W        W33256   7.853  17.510  16.246 -0.0961 -0.1092  0.0357
15733W        W33257   4.281   6.637   3.890  0.1925 -0.2242 -0.1606
15734W        W33258  17.711   0.061   0.909 -0.0380  0.0640 -0.2298
15735W        W33259  14.437  10.634  16.133 -0.3943  0.1552  0.0428
15736W        W33260  10.542   6.956  14.603 -0.0300  0.1606  0.1471
15737W        W33261   4.326   4.095  16.367  0.0846  0.0757 -0.1382
15738W        W33262   6.226   6.094   3.447  0.2439 -0.1590  0.1257
15739W        W33263   3.341  13.025   5.682  0.1635  0.0625  0.2597
15740W        W33264   1.333   8.407  12.269  0.1483 -0.4745  0.1248
15741W        W33265  13.243   9.543  15.154 -0.0283 -0.1739 -0.2015
15742W        W33266  10.778  17.126   6.322  0.0833  0.1016 -0.1169
15743W        W33267   2.056   7.102   3.935  0.0248 -0.0786 -0.1827
15744W        W33268   2.878  13.141  11.398  0.1546  0.2071 -0.2721
15745W        W33269  13.685   5.894   0.368  0.0228 -0.0591 -0.2013
15746W        W33270   6.556  14.800   0.844  0.0138 -0.1447 -0.0653
15747W        W33271   8.474   5.906  15.102  0.0860  0.1348 -0.0294
15748W        W33272   8.915  13.767   0.606  0.3048 -0.1613 -0.1725
15749W        W33273  10.968  12.300   3.433  0.1608  0.0267  0.2049
15750W        W33274   5.331  10.130  16.098  0.3019  0.0948  0.1701
15751W        W33275   7.271   6.959  14.964  0.1589 -0.0936  0.0347
15752W        W33276  17.008   1.274   0.908 -0.1297 -0.1064  0.0353
15753W        W33277   4.718  17.102   4.211 -0.0081 -0.0262 -0.1057
15754W        W33278  17.965   3.404   4.336  0.3052 -0.1693 -0.1657
15755W        W33279   5.919   2.792  14.261  0.1072  0.0153  0.2826
15756W        W33280   1.628   6.783   0.118 -0.1693 -0.0520 -0.1464
15757W        W33281  12.718   3.289  12.105  0.1184 -0.2315 -0.3762
15758W        W33282   5.235  17.774  14.353  0.2750  0.0315 -0.0311
15759W        W33283   8.062  10.833   0.454  0.2423 -0.0658  0.2590
15760W        W33284  10.192  11.893  14.052  0.1942  0.1817  0.0179
15761W        W33285  10.520   8.750   2.258  0.0953 -0.2060  0.0907
15762W        W33286  14.828   2.380  14.259 -0.0775 -0.2388 -0.0076
15763W        W33287  14.548  10.265  10.079 -0.1202 -0.1682  0.2713
15764W        W33288  10.773  14.946   3.768 -0.0377 -0.1654 -0.1197
15765W        W33289  15.565  17.961   4.479 -0.1436  0.0290 -0.1648
15766W        W33290   1.118  11.036   1.134 -0.0851 -0.2993  0.1301
15767W        W33291   8.511  17.413  13.587  0.1037 -0.0700  0.2240
15768W        W33292  12.796  13.002   1.341 -0.3454 -0.2249  0.0002
15769W        W33293   4.151  10.939   0.904  0.5249  0.2640 -0.5009
15770W        W33294   1.728   9.623  12.826  0.1556 -0.1084 -0.1903
15771W        W33295  13.374  16.190   4.189 -0.0468 -0.0545 -0.3977
15772W        W33296   7.566   7.038  10.304  0.1847 -0.0388 -0.1844
15773W        W33297  10.305   5.576  12.392  0.0065 -0.2107  0.2252
15774W        W33298  10.577  15.684  11.804  0.0919 -0.0902 -0.0188
15775W        W33299   0.624   3.726  15.623  0.0235 -0.0697  0.0546
15776W        W33300  12.095  11.963  14.381  0.0627  0.1450 -0.2904
15777W        W33301  15.822   9.466   1.986 -0.4021 -0.1104  0.1602
15778W        W33302  10.512  11.788  16.289 -0.0286  0.0804 -0.1224
15779W        W33303  14.694   9.993  12.689  0.1455  0.3136  0.0070
15780W        W33304  15.361  13.492  14.565 -0.1240 -0.2648 -0.2024
15781W        W33305   5.151   7.472  11.435  0.2407 -0.1285  0.3001
15782W        W33306  16.448   5.726   2.480 -0.0968  0.2009 -0.0160
15783W        W33307  10.402   1.230   2.492  0.0916 -0.2275 -0.1049
15784W        W33308   4.946  17.772  13.414 -0.4423  0.2363 -0.1434
15785W        W33309  14.305  15.591  11.639 -0.0842  0.1083 -0.3589
15786W        W33310  13.132   3.863   2.527  0.0278  0.1179 -0.1311
15787W        W33311  16.759   0.363  15.675 -0.0902  0.1282 -0.1721
15788W        W33312  11.975   1.120   0.892 -0.0817  0.2811  0.2428
15789W        W33313  11.192  11.301  16.121  0.1018  0.0951  0.0971
15790W        W33314  15.068   0.901  14.156  0.2730 -0.4975  0.0408
15791W        W33315   7.890   0.060  16.431  0.2128 -0.2782  0.0322
15792W        W33316   6.601   8.338  15.897  0.0182  0.2354 -0.2267
15793W        W33317  14.525  13.800   4.002  0.3246  0.1611 -0.1177
15794W        W33318   7.296   4.807  11.380  0.0003  0.0404 -0.0715
15795W        W33319   1.920   1.456  14.814  0.3470 -0.1085  0.0309
15796W        W33320  15.159   1.693   2.624 -0.1037  0.5197  0.0693
15797W        W33321  11.852  15.678  13.740 -0.0752 -0.0007  0.1250
15798W        W33322  14.569   8.759  12.366 -0.0902  0.0105 -0.0852
15799W        W33323   8.615   4.648  12.598  0.0461  0.0482  0.0594
15800W        W33324   6.937  17.703   3.542 -0.2826 -0.1052  0.1829
15801W        W33325  17.060   4.513  11.650  0.0019  0.3322  0.2858
15802W        W33326  11.906   3.136   3.760 -0.1311  0.2181  0.1521
15803W        W33327   8.106  14.739  16.324  0.2220  0.1130  0.1336
15804W        W33328   4.108  15.886   0.437 -0.0687  0.1976 -0.1583
15805W        W33329   6.918   2.920   4.735 -0.0275 -0.2044  0.2824
15806W        W33330   7.609  12.346  13.110 -0.1357  0.1260  0.0471
15807W        W33331   4.881   7.709   2.082 -0.1739  0.2374  0.0865
15808W        W33332   3.594  16.341   3.225 -0.0548  0.4176  0.1770
15809W        W33333   7.104  14.574   5.534 -0.2509  0.1307 -0.1484
15810W        W33334  15.411   2.210  16.439 -0.1619 -0.1588 -0.0662
15811W        W33335   1.196  17.930  12.891  0.1987 -0.0078 -0.1825
15812W        W33336   9.725  13.668  15.580  0.0234  0.1035 -0.1646
15813W        W33337   3.229   7.772   3.924  0.0691  0.1924 -0.3817
15814W        W33338  10.545  10.472   1.218 -0.1676 -0.0657  0.3020
15815W        W33339   7.843   9.600   0.914 -0.0310  0.1335 -0.3422
15816W        W33340  14.593   2.436   4.166  0.0292 -0.3499 -0.0930
15817W        W33341  12.015   5.012  11.914  0.1863  0.1358 -0.2846
15818W        W33342   9.188   9.419   3.606 -0.0242  0.2203 -0.0235
15819W        W33343  14.282  16.747  12.368 -0.1173 -0.0010  0.2504
15820W        W33344   6.064   1.278  15.559 -0.0236  0.3806 -0.2235
15821W        W33345  10.571  10.432   3.278 -0.0840  0.3384  0.1879
15822W        W33346  15.797   4.495  11.669  0.3027 -0.0391 -0.1461
15823W        W33347   4.359   7.536   2.033 -0.2059  0.0658  0.1804
15824W        W33348  16.560   9.324   1.224  0.2279 -0.3997  0.1112
15825W        W33349   2.277  12.701  16.423  0.3775  0.0747 -0.1006
15826W        W33350  11.311   7.804  11.239  0.0269  0.1839  0.0806
15827W        W33351  16.580  15.348   5.636  0.0179 -0.0296 -0.1311
15828W        W33352   3.311   2.962  11.485  0.1223 -0.1622 -0.1307
15829W        W33353   4.767   5.345  16.236  0.1612  0.0748  0.4508
15830W        W33354   1.862   0.164  14.664 -0.0711  0.0898  0.0251
15831W        W33355   6.600   9.184  12.462 -0.0497  0.1374  0.1238
15832W        W33356   5.118   1.902  12.699 -0.1052 -0.0131 -0.0153
15833W        W33357   9.948   1.623  15.176  0.1812 -0.1569 -0.2879
15834W        W33358   7.302   6.290  12.969  0.0325 -0.2941  0.0322
15835W        W33359  10.819  17.033  11.151  0.1607  0.0700  0.2798
15836W        W33360   1.220   1.860  15.328 -0.0063  0.0039  0.0352
15837W        W33361  11.024   1.240   0.568 -0.0101  0.2194  0.3061
15838W        W33362   8.530  12.328  11.626  0.2115  0.2536  0.1427
15839W        W33363   2.725  17.621   1.872  0.0591 -0.0447 -0.0557
15840W        W33364  16.071  14.839   3.354 -0.0929  0.0655  0.1818
15841W        W33365  15.531   0.018   2.608 -0.3491 -0.2005 -0.0592
15842W        W33366   2.060   0.328  11.887  0.1097 -0.1681 -0.2862
15843W        W33367   8.415  14.426   1.269  0.0220 -0.1981  0.0697
15844W        W33368   7.143   6.346  13.698  0.0437  0.0060 -0.1726
15845W        W33369  13.382  16.989   1.881  0.1841  0.1373 -0.0636
15846W        W33370  16.705   6.813   3.363 -0.0686 -0.2212  0.3715
15847W        W33371  13.605  17.645  16.021  0.1608  0.0283  0.0907
15848W        W33372  12.124  11.084  15.855  0.0948 -0.0430 -0.3704
15849W        W33373  15.169   5.477   3.077 -0.0626 -0.1604 -0.2615
15850W        W33374  12.000  17.517   0.350 -0.1038  0.0587 -0.1233
15851W        W33375   7.118   1.188   2.561 -0.0425 -0.0037  0.0963
15852W        W33376  15.588  14.299   0.570  0.2696  0.0087 -0.3357
15853W        W33377  10.364   7.092   5.098  0.0288  0.0173 -0.1354
15854W        W33378  13.644   9.136  15.089  0.5838  0.3365  0.0726
15855W        W33379   7.099   7.796  12.671  0.3654 -0.0940 -0.4180
15856W        W33380   7.123   0.199  15.988  0.3288 -0.1424  0.0489
15857W        W33381   5.709  16.165  15.105  0.2921 -0.3109  0.4236
15858W        W33382  15.318   7.545   2.831 -0.1564 -0.3283 -0.3254
15859W        W33383  12.502   1.042  14.310  0.0316  0.1776  0.1900
15860W        W33384   4.274   6.768   4.904 -0.2343 -0.0625  0.0825
15861W        W33385  12.209  10.543  14.013 -0.1743 -0.1103  0.0281
15862W        W33386   4.173  15.626   2.669  0.0793  0.0835 -0.0516
15863W        W33387   9.706  16.338  14.085  0.3966 -0.0497  0.1045
15864W        W33388  15.005   6.255   2.176 -0.4349  0.2244 -0.2868
15865W        W33389  17.653  14.701   2.170  0.3967 -0.0863 -0.2976
15866W        W33390  11.025   6.252  15.536 -0.0214  0.2540  0.1666
15867W        W33391   8.773  17.907   2.471  0.1718 -0.1202 -0.0758
15868W        W33392   7.564   3.945   5.246  0.1644  0.3062 -0.1517
15869W        W33393   7.614  14.981   0.432 -0.0712 -0.2753  0.0410
15870W        W33394   5.110   1.782   3.075  0.1671 -0.1853  0.2071
15871W        W33395   8.092  16.786  11.647 -0.2071 -0.0862 -0.0408
15872W        W33396   7.506   0.055  14.987  0.1090  0.0049  0.0154
15873W        W33397   0.541   4.938  15.843  0.3816  0.0515 -0.0127
15874W        W33398   1.783  15.913   3.174 -0.1106  0.0102  0.0355
15875W        W33399  16.475  11.585  12.512  0.0936 -0.0611 -0.0092
15876W        W33400  16.572  15.421   3.525  0.2016  0.1987  0.0143
15877W        W33401  12.979   3.159   3.142 -0.0856 -0.0018 -0.3511
15878W        W33402   5.392  15.191   3.511 -0.1260 -0.0151  0.3164
15879W        W33403   3.619   1.046   3.004 -0.1506 -0.1887 -0.2536
15880W        W33404  14.434   8.325  12.694  0.0430  0.3330  0.1564
15881W        W33405   5.447   8.200   3.021  0.0311  0.2842 -0.2015
15882W        W33406  15.534   6.187   2.475  0.2116  0.0183  0.2834
15883W        W33407  11.187  12.877   4.195  0.3381 -0.0662 -0.3050
15884W        W33408  16.226  16.153   3.964  0.1839 -0.2656  0.3536
15885W        W33409  12.372   2.307  13.092  0.1966 -0.0495 -0.1483
15886W        W33410  14.072  12.760   0.525 -0.1419  0.0347  0.0278
15887W        W33411  12.887   7.007  13.370 -0.1078 -0.1263  0.0903
15888W        W33412  11.439   6.887   1.942 -0.1945  0.1412  0.0841
15889W        W33413   5.473   3.863   0.668 -0.1270  0.1872  0.1202
15890W        W33414   3.186  15.377   4.302 -0.0989 -0.2516 -0.2627
15891W        W33415   9.782  12.390  14.191 -0.0564  0.1956  0.2154
15892W        W33416  11.560  17.664  14.274 -0.1792 -0.4408  0.0356
15893W        W33417   4.068   9.504   1.173 -0.1159  0.1361 -0.0768
15894W        W33418   4.806   8.482   0.654 -0.1880  0.3410 -0.0645
15895W        W33419   4.349   0.071  14.061  0.2501 -0.0675 -0.0935
15896W        W33420  10.810  16.645  12.149 -0.1641  0.2331 -0.0847
15897W        W33421   6.465  14.153   3.380  0.0791 -0.0639 -0.1439
15898W        W33422   3.210  10.279   2.281 -0.1332 -0.1862 -0.0781
15899W        W33423  15.568   2.871  13.400 -0.1279  0.1380  0.0485
15900W        W33424   5.248  14.832  14.173 -0.1290  0.1270  0.0219
15901W        W33425   0.577  11.087   0.796 -0.0079  0.0081  0.0290
15902W        W33426   3.065   7.635   3.119  0.1910  0.0084 -0.0576
15903W        W33427   6.307  15.578   4.228  0.2378 -0.4035 -0.0803
15904W        W33428   0.323   7.414   3.260  0.1677  0.1289  0.0674
15905W        W33429   3.359  11.876  12.366  0.2317  0.0435 -0.1006
15906W        W33430   4.780   7.749   1.587 -0.0228  0.0621 -0.3331
15907W        W33431   4.056  11.512  14.082  0.0519  0.0781 -0.1627
15908W        W33432  15.921   7.097   1.337 -0.1442  0.0396  0.1765
15909W        W33433   4.261   5.894   4.685 -0.0503  0.4004 -0.0571
15910W        W33434   2.481   5.701  16.274  0.2124  0.1244 -0.0610
15911W        W33435  17.153  14.422   0.774 -0.0769 -0.1139  0.1677
15912W        W33436  12.433   1.243  12.815 -0.1190  0.2042  0.1135
15913W        W33437  10.130   4.427  15.769 -0.1080 -0.0572 -0.0991
15914W        W33438  12.313   7.981   4.237  0.2635 -0.3119 -0.1522
15915W        W33439   0.279   8.573  12.400  0.0104 -0.1234  0.1235
15916W        W33440   7.422  13.534   4.421  0.1222 -0.0595  0.1962
15917W        W33441   6.895  15.952  14.207  0.1670 -0.1845  0.0281
15918W        W33442   1.941  17.395   0.203  0.2099  0.1223 -0.2811
15919W        W33443  16.169   9.443  12.504  0.1517  0.1978 -0.1289
15920W        W33444   8.414   5.365   4.903 -0.0972 -0.0778  0.1565
15921W        W33445  10.786   8.512  13.378 -0.1267  0.0955  0.0546
15922W        W33446   6.292   1.908   2.645  0.2475 -0.1792  0.4350
15923W        W33447   5.996   3.077   4.274 -0.0983  0.0308  0.4544
15924W        W33448  12.869   3.054  15.061  0.4603  0.0809  0.2820
15925W        W33449   6.030   4.239   3.049  0.0922  0.1886 -0.3562
15926W        W33450   6.538  10.854   3.219 -0.1102 -0.1825 -0.2364
15927W        W33451  11.278   5.875   4.739 -0.2837  0.0047  0.1707
15928W        W33452   5.884  13.125   0.227  0.0463  0.0575  0.2275
15929W        W33453   3.108   8.231  13.413 -0.0966 -0.0897 -0.1463
15930W        W33454   9.123  11.854  15.076  0.1207  0.1254 -0.1618
15931W        W33455  10.723   5.573  13.988  0.0873  0.3593  0.0475
15932W        W33456   3.205   6.892   1.872 -0.1224  0.3184 -0.1771
15933W        W33457  10.785  14.284   3.350 -0.2548 -0.2220 -0.1903
15934W        W33458   5.379   6.785   1.110 -0.0065  0.2027 -0.2222
15935W        W33459  17.146  16.445  14.780  0.0700  0.0817 -0.0166
15936W        W33460   0.955  16.146  12.836  0.0023  0.2703 -0.0153
15937W        W33461   1.800  11.802  11.425 -0.1030 -0.1164 -0.0201
15938W        W33462   3.553  13.249   4.675  0.0577 -0.4140  0.3503
15939W        W33463   4.923   5.098   0.678  0.0985 -0.3419 -0.1952
15940W        W33464   2.955  13.764  14.805 -0.1220  0.1626  0.2685
15941W        W33465   5.681   9.933   2.487 -0.0644 -0.3732 -0.0132
15942W        W33466  17.503   4.436  13.442  0.0563 -0.1142 -0.0275
15943W        W33467  10.481  11.375   3.838 -0.2317  0.2139 -0.2006
15944W        W33468   2.192   5.135  13.995 -0.0988  0.0147 -0.1267
15945W        W33469   4.525  15.943   2.866 -0.1387 -0.2892  0.1363
15946W        W33470  10.111  12.507   3.568  0.1001 -0.1139  0.1951
15947W        W33471  13.854   2.430  11.996  0.2441  0.2816 -0.0141
15948W        W33472  10.818  16.240   5.052  0.0307 -0.1620  0.1746
15949W        W33473   4.683  17.118   1.698 -0.3880  0.1639 -0.2071
15950W        W33474   2.783  15.301  12.103  0.0258 -0.0400 -0.0464
15951W        W33475  15.291   8.433   0.822  0.0654  0.1776  0.1313
15952W        W33476   7.786   2.488   0.855  0.2395 -0.1584 -0.2351
15953W        W33477  11.578   5.354   1.001 -0.0889  0.0821 -0.1235
15954W        W33478   3.666   2.704   0.478  0.0536 -0.2745  0.2702
15955W        W33479   0.120   3.651   4.857 -0.0732 -0.2160  0.1122
15956W        W33480  17.655   7.077  13.003 -0.1722  0.2824 -0.1141
15957W        W33481   1.406   0.650   1.399 -0.1153 -0.0220 -0.2285
15958W        W33482   8.066   2.836  11.246  0.3045  0.0479  0.0180
15959W        W33483  15.037   8.646  15.081 -0.1923  0.2558  0.0514
15960W        W33484   0.061   6.864  14.658  0.0611  0.0462 -0.0281
15961W        W33485   5.690   9.005   4.751  0.0379  0.1407  0.0501
15962W        W33486   7.111   0.746   3.621 -0.2793 -0.0966  0.0990
15963W        W33487   0.770   6.724   1.635  0.0672 -0.1053  0.1299
15964W        W33488  11.441  13.249   2.297 -0.2125 -0.0504  0.0137
15965W        W33489  11.452  10.930   3.076  0.1862 -0.1187 -0.0332
15966W        W33490   4.333  14.039  12.852  0.0093 -0.0846 -0.0809
15967W        W33491  12.106  17.907  14.885 -0.0814 -0.0826  0.2729
15968W        W33492  13.132   6.900  12.668 -0.0429  0.2275  0.0810
15969W        W33493   6.611   9.538  12.814 -0.0620  0.3524  0.1834
15970W        W33494   5.978   8.198  13.416  0.0506 -0.2293 -0.0758
15971W        W33495   7.952  13.317   0.026 -0.0689  0.1262 -0.1912
15972W        W33496  16.211  12.624   0.463 -0.0490  0.0541 -0.1646
15973W        W33497  11.804  13.752  12.245 -0.2325 -0.1228  0.0181
15974W        W33498  14.908   4.501  13.899  0.1585 -0.1285  0.1505
15975W        W33499  13.521  12.237  15.495 -0.0658 -0.1247 -0.2603
15976W        W33500   9.890  10.096  12.584  0.1227  0.0856 -0.0228
15977W        W33501  14.610   4.895  13.743 -0.2538 -0.2854 -0.1275
15978W        W33502  15.140  16.101   3.871  0.2476  0.0331  0.0848
15979W        W33503   7.904  15.699  13.934 -0.1667 -0.0393  0.0625
15980W        W33504  10.540  11.767  11.443  0.0405 -0.1027  0.0252
15981W        W33505   3.010  15.805   0.339  0.0373  0.1952 -0.0852
15982W        W33506   8.391  15.725   2.437 -0.0830 -0.1177 -0.2770
15983W        W33507   6.840  17.096  12.402  0.0883 -0.1424  0.1191
15984W        W33508   8.243  15.488   2.879 -0.3157  0.0984  0.2194
15985W        W33509   2.881   9.832  11.487 -0.2039  0.4492 -0.1220
15986W        W33510   4.506  12.593   1.787 -0.0960 -0.1392 -0.2515
15987W        W33511  11.731  16.613  15.444 -0.1788  0.0695 -0.1005
15988W        W33512  15.905   6.940  14.350 -0.4643 -0.2163 -0.0159
15989W        W33513  15.948   7.533   4.541  0.0576 -0.0025  0.0886
15990W        W33514   8.536  13.677  14.342 -0.3881  0.0767  0.1157
15991W        W33515   7.171   7.602   3.410  0.0308 -0.2166 -0.0699
15992W        W33516   9.246   9.285  11.512 -0.3153  0.2109  0.0991
15993W        W33517  15.978  10.861  14.665 -0.1824  0.0563  0.1408
15994W        W33518   2.666   8.329   0.078 -0.2341  0.0704 -0.3263
15995W        W33519   2.197   3.774   3.210  0.1791  0.1404 -0.1151
15996W        W33520  15.186   4.518   4.650  0.1258 -0.2106  0.0287
15997W        W33521   5.179   8.944  12.941  0.0950  0.0716  0.3092
15998W        W33522   6.044   5.095   4.580  0.1302 -0.1426 -0.1554
15999W        W33523  11.552   1.092  13.147 -0.5260  0.1828 -0.2096
16000W        W33524   6.368  16.142   4.928  0.0346 -0.0423 -0.1023
16001W        W33525   8.255  10.820   3.902 -0.1822 -0.2097  0.0316
16002W        W33526  17.704   3.614  14.630 -0.0359  0.2229  0.0489
16003W        W33527  10.733  13.432  15.749  0.1709  0.1035 -0.1673
16004W        W33528   2.279   5.854   0.785 -0.3952 -0.1705 -0.2153
16005W        W33529   0.316   4.478  12.041 -0.1210 -0.1971  0.1659
16006W        W33530  13.202   7.687   4.429 -0.0379 -0.2020  0.0197
16007W        W33531  17.710  12.930   3.167 -0.4080  0.0222  0.0062
16008W        W33532  11.362  14.170   4.487 -0.2683  0.4865 -0.1222
16009W        W33533  14.947   6.743   4.059 -0.1874  0.1572 -0.2526
16010W        W33534  12.046  12.819  12.611 -0.2801 -0.0343  0.1450
16011W        W33535  16.928  14.744   4.246 -0.0750 -0.0196 -0.3314
16012W        W33536   9.007  15.542  12.952  0.0041  0.0651 -0.0017
16013W        W33537  15.785   7.670  16.041  0.1023 -0.1406 -0.3136
16014W        W33538   3.102   1.542   1.332 -0.1503 -0.2746  0.1917
16015W        W33539   1.263  17.301   4.276 -0.0556  0.0367  0.1843
16016W        W33540   8.263   7.942  11.665  0.0501  0.2936  0.0406
16017W        W33541   2.680   4.650  14.999  0.0151  0.3696  0.0663
16018W        W33542   2.264   2.636   2.773  0.1592  0.3206 -0.0138
16019W        W33543  11.688  10.681  14.005 -0.0266 -0.2108  0.1688
16020W        W33544  16.478  17.204  13.807  0.0492  0.0889 -0.1312
16021W        W33545   3.325   7.270  13.566 -0.3898  0.2878  0.2034
16022W        W33546   0.849   4.987   3.404 -0.1933 -0.0451  0.1726
16023W        W33547   7.012   4.214   0.669  0.0145 -0.3335 -0.0895
16024W        W33548   3.936   1.514   3.674 -0.0365 -0.1363  0.0136
16025W        W33549  14.662   2.596   2.438  0.2596 -0.0056  0.0366
16026W        W33550   8.342   3.399   0.225 -0.0279 -0.0742 -0.1587
16027W        W33551   9.902   3.751   3.253 -0.1563  0.1004  0.1426
16028W        W33552  11.925  16.444  13.420  0.1023  0.0617  0.0062
16029W        W33553  12.697  17.286  15.064  0.1573  0.1301  0.1432
16030W        W33554   2.125   1.782   3.353 -0.1253  0.2953  0.2375
16031W        W33555   1.036   7.171  12.687  0.1041 -0.4195  0.0070
16032W        W33556   0.826   9.688   2.862 -0.1104 -0.1557  0.1679
16033W        W33557   2.322  14.172   0.430 -0.0621  0.3788 -0.0705
16034W        W33558   8.374   7.146   4.828 -0.3461 -0.2995 -0.1360
16035W        W33559  17.082  11.569  13.929  0.1710  0.2991 -0.1031
16036W        W33560   7.154  15.929  14.616 -0.0763  0.0901 -0.4873
16037W        W33561  16.107  12.640  13.245  0.1557  0.0048  0.1470
16038W        W33562   1.024  13.701  15.348 -0.2646  0.1048 -0.2443
16039W        W33563  13.015  10.012   0.811  0.0576  0.2962 -0.0604
16040W        W33564   6.381  11.954   3.245  0.1798 -0.2610 -0.1438
16041W        W33565   3.264   4.069   0.886 -0.0183  0.2856  0.0183
16042W        W33566  11.807  10.375  15.359 -0.1669  0.5053 -0.1697
16043W        W33567   8.019   1.828  14.476 -0.1650 -0.3230 -0.1498
16044W        W33568  11.793   0.036  12.254  0.0095 -0.2129  0.0922
16045W        W33569  15.306   9.579  14.468 -0.0429 -0.4297  0.2086
16046W        W33570  11.289  15.753  13.418 -0.0525 -0.0859  0.1664
16047W        W33571  16.599   6.131   5.772  0.2474  0.0534 -0.1780
16048W        W33572   2.689   4.455  11.757 -0.0567 -0.4477 -0.0732
16049W        W33573  12.458  16.547  12.898 -0.0942  0.4036 -0.0425
16050W        W33574  17.435   4.557   3.996 -0.1846  0.2633  0.2954
16051W        W33575   0.753   2.364   5.001 -0.0797 -0.3134 -0.2362
16052W        W33576   9.100   6.717  15.244 -0.1170  0.1687  0.1271
16053W        W33577  16.651   9.390  13.664 -0.2844  0.0809 -0.0963
16054W        W33578  12.576  16.909   4.253 -0.0296 -0.0660  0.0897
16055W        W33579   6.879   8.988  12.119 -0.1799 -0.3536  0.0236
16056W        W33580   5.602   2.530   0.543 -0.2480 -0.1620  0.1127
16057W        W33581   7.286   1.101  11.172 -0.4986  0.0216  0.0509
16058W        W33582  11.596   8.761   0.531 -0.1432  0.3209  0.3278
16059W        W33583   1.280   5.807  14.427  0.0784  0.1213  0.2654
16060W        W33584   9.250  10.702   1.641  0.3235  0.3458 -0.2377
16061W        W33585  17.051   1.174   0.392 -0.0326 -0.1134 -0.1329
16062W        W33586  11.449  13.933  15.219  0.2916  0.2303 -0.2170
16063W        W33587  12.210   0.163   4.105  0.0936 -0.3010  0.1029
16064W        W33588   4.057  17.900   5.068  0.0508  0.2351  0.2191
16065W        W33589   3.693  12.787  12.561  0.1716 -0.1002  0.1239
16066W        W33590  11.235   3.612  14.517  0.0859  0.0319 -0.0834
16067W        W33591  16.757   3.769   3.451 -0.2816 -0.0076  0.1538
16068W        W33592   9.820   2.242   1.903  0.4222  0.1897 -0.1895
16069W        W33593  10.359   6.628   4.727 -0.1253  0.0003 -0.2061
16070W        W33594  10.254   7.119  14.218 -0.2484  0.1723 -0.2406
16071W        W33595   0.196  12.138  12.904 -0.1489  0.0219 -0.0754
16072W        W33596   3.546  17.258   1.103 -0.1320 -0.0485  0.0207
16073W        W33597  11.502   9.114  14.857  0.0219 -0.0887  0.0690
16074W        W33598   6.737   9.495   4.983  0.1835 -0.3066  0.0707
16075W        W33599   6.584  14.649   3.521  0.0522 -0.4421  0.1825
16076W        W33600  15.015  15.789  14.876 -0.1615  0.4005  0.1316
16077W        W33601   6.764  16.373   2.196  0.2070  0.1040 -0.1167
16078W        W33602   1.015   1.252  14.626  0.2855 -0.1543  0.0533
16079W        W33603   2.922   6.297  14.113  0.0780  0.0130 -0.0185
16080W        W33604   7.712  15.912   3.522  0.2044  0.1653 -0.0945
16081W        W33605   2.723  17.217   1.554 -0.1674  0.3631  0.1361
16082W        W33606  14.442   0.830   4.138  0.4327  0.0342  0.2729
16083W        W33607   1.347  13.423  14.446 -0.1281 -0.1405 -0.1207
16084W        W33608   6.527   3.100   5.110  0.0376 -0.3110 -0.4135
16085W        W33609  11.610   7.239   2.311  0.3624  0.0701 -0.3296
16086W        W33610   5.198   0.513  16.465  0.1251 -0.0464 -0.1192
16087W        W33611  17.075   8.172   5.634 -0.0757 -0.0757  0.0314
16088W        W33612  11.753   3.196   5.707 -0.1663  0.1815 -0.0398
16089W        W33613   4.279   9.339  11.790  0.2031 -0.0609 -0.0789
16090W        W33614  11.734   0.285   3.492  0.0951  0.0053 -0.0796
16091W        W33615   8.735   4.598   2.365  0.1614 -0.1604  0.0417
16092W        W33616  17.680  13.868   3.345  0.2240 -0.0858  0.0550
16093W        W33617  11.347  15.776  13.950 -0.0157  0.0874 -0.1402
16094W        W33618   3.253  11.846  15.699 -0.2739  0.3798  0.0871
16095W        W33619   9.688  10.236   3.124 -0.1661  0.2054 -0.3247
16096W        W33620  10.769   5.602  11.768 -0.1511 -0.0107 -0.1178
16097W        W33621  10.446   7.934   3.719 -0.1031  0.1074 -0.0950
16098W        W33622   4.945   7.112  15.194  0.0479 -0.1278 -0.2760
16099W        W33623   3.484   9.572  11.232 -0.0313 -0.0779 -0.2973
16100W        W33624   4.621   2.355  14.113  0.1844 -0.0803 -0.1314
16101W        W33625   4.255  11.722   1.991  0.4684  0.1539  0.1399
16102W        W33626  16.177  15.233  14.843  0.1691 -0.0217  0.0562
16103W        W33627  12.678  13.423   1.604  0.2261  0.0911 -0.1104
16104W        W33628  15.276  11.575  16.326  0.0550  0.0547 -0.1007
16105W        W33629   5.149   8.891   3.667 -0.0413  0.0632 -0.0335
16106W        W33630   5.382  10.764  14.920 -0.2728 -0.0062  0.2135
16107W        W33631   9.910  16.235  13.193 -0.3309  0.0263 -0.3336
16108W        W33632   4.428   4.191  12.079 -0.0649 -0.1807  0.0957
16109W        W33633   3.875   4.144   0.104 -0.0119 -0.0331 -0.2341
16110W        W33634   2.219   2.080   2.897 -0.1440 -0.4416  0.2136
16111W        W33635   3.021   2.145  13.326  0.2748 -0.0400  0.5022
16112W        W33636  10.334   7.432   0.103  0.1362  0.2770 -0.1585
16113W        W33637   3.612   2.050   4.381  0.0136 -0.0947  0.2729
16114W        W33638   7.581  15.333  14.016 -0.1455 -0.0831  0.3384
16115W        W33639  10.626   0.170  12.407 -0.0942 -0.3572  0.2429
16116W        W33640   0.937   6.663  13.071 -0.3268 -0.0212  0.0862
16117W        W33641  16.681  11.563   2.121  0.1580  0.2182  0.2987
16118W        W33642   6.943  15.310   1.481  0.0025  0.0959  0.3147
16119W        W33643   4.277  17.769   0.609 -0.1965  0.1275  0.2096
16120W        W33644  16.261  15.880   1.010  0.0914  0.0365 -0.1375
16121W        W33645   4.681  13.333  14.015 -0.1665 -0.2026 -0.1180
16122W        W33646   3.551   6.636  14.989 -0.1683 -0.1273 -0.0331
16123W        W33647   6.134   2.436  14.538 -0.2265 -0.4500  0.1542
16124W        W33648  17.191  15.753   0.932  0.1479  0.2749  0.0087
16125W        W33649   6.943   9.784   0.296 -0.1694  0.2185  0.3100
16126W        W33650   2.544  13.669   0.715  0.1908 -0.2653 -0.4207
16127W        W33651  13.749  13.754  13.921  0.0456  0.2818  0.0198
16128W        W33652  16.857  11.587  16.028 -0.0651 -0.0649  0.3564
16129W        W33653  16.206   2.693  14.053 -0.0226  0.1333  0.1637
16130W        W33654  16.912  10.426   4.475  0.3000  0.4449 -0.0171
16131W        W33655  12.270   2.477  15.316 -0.3715  0.0775 -0.1152
16132W        W33656   4.073   8.762   0.077 -0.0403  0.2174  0.2379
16133W        W33657  13.618   5.340   1.849  0.1550 -0.1311 -0.0266
16134W        W33658  16.536  13.800  15.535  0.1017 -0.0544  0.0753
16135W        W33659   5.950  13.066   3.804 -0.2974  0.1170 -0.1532
16136W        W33660   0.098   2.241  14.108  0.2388  0.0568 -0.5329
16137W        W33661   4.568  16.250  11.798  0.2849 -0.1752  0.1929
16138W        W33662  10.006   2.233  13.276  0.0006 -0.0854  0.1302
16139W        W33663   5.924   8.615   3.383  0.0298  0.0879  0.1842
16140W        W33664   7.050  14.234   5.124  0.0552  0.2421 -0.2473
16141W        W33665  10.953   0.040  12.072  0.0369 -0.2169 -0.2937
16142W        W33666   5.152   2.216  12.269 -0.1128  0.1309  0.1565
16143W        W33667  12.161   1.910  14.547  0.1347  0.0004 -0.0539
16144W        W33668   1.322   2.951   5.019  0.0845 -0.0953 -0.2423
16145W        W33669   0.676  13.003  15.954  0.0306 -0.0604  0.1044
16146W        W33670   6.231  11.060   2.879 -0.3842  0.1685  0.0783
16147W        W33671   9.037  15.605   5.408  0.0881 -0.0750 -0.1821
16148W        W33672  11.852  15.701   0.596 -0.3067 -0.0947 -0.2058
16149W        W33673   8.266   1.030  14.027  0.1093 -0.2590 -0.0196
16150W        W33674  16.907  12.606  12.289 -0.1578 -0.2942  0.1102
16151W        W33675  15.619  14.178  12.330  0.0055 -0.0632  0.2406
16152W        W33676   7.582  17.006  16.237  0.0207 -0.0874  0.3071
16153W        W33677  10.453   5.010   0.813  0.3093 -0.2758 -0.5235
16154W        W33678  11.071   7.491   1.571  0.0977 -0.0661 -0.1382
16155W        W33679  12.819   6.804   1.240 -0.0588  0.1474  0.1617
16156W        W33680   4.267   5.862   0.849 -0.0519  0.2444  0.0745
16157W        W33681  10.165  11.340  11.987  0.0050  0.1200  0.0799
16158W        W33682   8.293  11.788  15.199 -0.0799 -0.0276  0.1931
16159W        W33683   8.712  10.217   4.034  0.1915 -0.2341  0.1379
16160W        W33684  12.886   9.594   3.145  0.0547  0.0141 -0.0525
16161W        W33685  15.425   5.122   4.929 -0.0261  0.1980  0.1012
16162W        W33686  10.154  12.801  16.021  0.0619  0.0890  0.0617
16163W        W33687   4.803  16.137   3.924  0.3836 -0.0861 -0.0405
16164W        W33688   8.788   2.550   4.092  0.0068 -0.0209 -0.2349
16165W        W33689  15.161   6.518  12.169  0.2225 -0.0474  0.1346
16166W        W33690  15.507  13.713   1.233 -0.0239 -0.0045  0.0451
16167W        W33691   1.640  14.639  11.547 -0.2232 -0.1288  0.2179
16168W        W33692   4.404  15.520  15.042 -0.0566  0.2497  0.1177
16169W        W33693   6.928   9.723   0.897 -0.2266  0.2273 -0.1136
16170W        W33694  17.338   9.468   0.034 -0.0848 -0.1450  0.0189
16171W        W33695  11.809   1.557  13.267  0.2440  0.2443 -0.1739
16172W        W33696   2.325  11.238   0.836  0.1571 -0.2566  0.1105
16173W        W33697   6.650  11.087  15.969 -0.0466 -0.1892 -0.2456
16174W        W33698   6.738  17.049   2.934 -0.2363  0.2442  0.0885
16175W        W33699   9.983  17.710  15.046  0.2172 -0.2070 -0.1180
16176W        W33700  16.818   0.088  15.003  0.0580 -0.0440  0.2228
16177W        W33701   1.654  16.941  13.282 -0.1029  0.0556 -0.0606
16178W        W33702  13.138  11.461   4.598 -0.2211  0.3394 -0.4533
16179W        W33703   1.938   5.949  16.398  0.2347  0.2036 -0.3332
16180W        W33704   4.980   0.868  13.137 -0.2255 -0.3057 -0.0315
16181W        W33705   9.462  16.098   4.748 -0.3261 -0.0594 -0.1829
16182W        W33706   0.902   1.693  13.025 -0.0834  0.1221  0.2266
16183W        W33707   2.884   2.352  11.230 -0.2799 -0.1506  0.0120
16184W        W33708   0.927  17.128   4.598  0.2125  0.1405  0.1246
16185W        W33709  17.371  12.529  11.991 -0.0207 -0.0317  0.2434
16186W        W33710  17.542   1.355   0.257  0.0657  0.1247 -0.0319
16187W        W33711   3.053   2.248  12.746  0.0657  0.2303 -0.0108
16188W        W33712  15.732  17.417   4.260 -0.1089 -0.0952 -0.1685
16189W        W33713  12.281   9.110   1.202  0.0128 -0.0994  0.1984
16190W        W33714   0.247  16.363   1.316 -0.2101  0.1873  0.0672
16191W        W33715   6.956  12.883   2.611 -0.3510  0.2357 -0.1763
16192W        W33716  10.468   7.056  13.638 -0.1422 -0.3197  0.0585
16193W        W33717  15.473  11.603   1.640 -0.1632  0.0868  0.0870
16194W        W33718   9.958  14.020  12.809 -0.0225 -0.1122  0.2585
16195W        W33719  15.222  11.153  15.141 -0.3483 -0.0821 -0.0806
16196W        W33720   6.526   6.284   4.433 -0.0970 -0.0370  0.1181
16197W        W33721  12.006  11.850   3.950  0.0216 -0.0059 -0.1790
16198W        W33722  14.473   8.927  13.439 -0.0962 -0.0219  0.1529
16199W        W33723  14.265  14.660   2.309  0.2599 -0.0510 -0.0446
16200W        W33724  16.728   2.568   4.224 -0.1222  0.1431  0.1646
16201W        W33725  12.848   9.410  11.512 -0.1324 -0.0540  0.0002
16202W        W33726   2.666  14.236  15.112 -0.1565  0.0773  0.1266
16203W        W33727   7.750   8.549  15.049  0.0899  0.1176 -0.1136
16204W        W33728   1.191  10.957  15.911 -0.0692 -0.2094 -0.2964
16205W        W33729  14.337   1.035  15.851 -0.0630 -0.0206 -0.1825
16206W        W33730  10.667   6.722   4.192  0.1897 -0.0052 -0.0915
16207W        W33731  16.228   7.273  16.457  0.0650  0.2749 -0.0977
16208W        W33732  15.578  15.122  12.472  0.0911  0.2398  0.4467
16209W        W33733  12.746  11.969  15.718  0.0064  0.1338 -0.1121
16210W        W33734   6.681  16.113   1.515  0.2989 -0.1511  0.5420
16211W        W33735  10.548  17.821   3.088  0.1183 -0.0700 -0.1548
16212W        W33736  11.330   8.677   4.607 -0.2145  0.0434  0.2009
16213W        W33737   7.122   4.564   1.571 -0.0049  0.1807  0.1225
16214W        W33738   9.308  12.345  16.114 -0.1588  0.2950  0.0274
16215W        W33739   8.035  16.324  14.678 -0.2807 -0.1413 -0.2674
16216W        W33740  13.308   4.128  14.168  0.3205  0.1901  0.0556
16217W        W33741  13.384   4.594  16.263 -0.0879  0.2802 -0.0434
16218W        W33742   1.442  14.506   4.992 -0.2596  0.0245 -0.1520
16219W        W33743  14.715  10.400  15.153 -0.2375 -0.1266  0.1699
16220W        W33744   4.471  11.740  16.161  0.2474  0.1640  0.1626
16221W        W33745   5.132  11.117   1.653  0.0426 -0.0046 -0.1738
16222W        W33746  11.714  12.189  15.989 -0.2275  0.0895 -0.2900
16223W        W33747   6.728   8.923   2.064  0.0722  0.3900 -0.2192
16224W        W33748  13.480   5.095   4.532 -0.1976 -0.0124  0.0321
16225W        W33749   7.961  10.865   4.416 -0.0380  0.2407  0.0523
16226W        W33750  11.744  13.791   4.333  0.1769  0.1195  0.0108
16227W        W33751  10.190   1.661   0.545  0.1063 -0.0026  0.0153
16228W        W33752   9.386   6.397  11.841 -0.0819 -0.1071  0.1321
16229W        W33753   1.107   0.574  11.744  0.0773  0.1690  0.1712
16230W        W33754  11.272   4.967  11.730 -0.0714  0.1179  0.3224
16231W        W33755  12.448  17.889   2.420  0.2184  0.1089  0.2893
16232W        W33756  11.527  16.457  12.748 -0.1318 -0.0292  0.2166
16233W        W33757  11.664   5.457  14.227  0.0941 -0.3033  0.2913
16234W        W33758   7.595   0.714   4.995 -0.1024 -0.0990 -0.0642
16235W        W33759   1.950   1.654  14.296  0.2478  0.0683  0.0697
16236W        W33760   6.084   2.598   4.462 -0.0716 -0.2944  0.1305
16237W        W33761   4.762  16.946   3.693 -0.2382  0.0438 -0.1717
16238W        W33762  12.170   9.844  16.102 -0.1525  0.0707 -0.0601
16239W        W33763   4.347   4.921  15.075 -0.2280 -0.0380 -0.0135
16240W        W33764  12.698   8.066  12.682  0.0295 -0.2484 -0.2668
16241W        W33765  10.917   4.027  11.925  0.1797  0.1924 -0.2110
16242W        W33766  16.687   2.503   1.964 -0.1237 -0.0687 -0.1949
16243W        W33767   6.512  10.541  12.483 -0.3906  0.1808  0.2945
16244W        W33768  14.259   7.880  14.036 -0.3424 -0.0586 -0.1321
16245W        W33769   8.928   2.373  12.433  0.0502  0.1806 -0.0248
16246W        W33770   5.437   5.430  14.333  0.0520  0.1642 -0.0048
16247W        W33771   0.761   2.479  13.458  0.1362  0.4101  0.1018
16248W        W33772  10.616   5.128   3.244 -0.2147 -0.1894 -0.2147
16249W        W33773   7.200  17.296  15.587 -0.0485  0.1558  0.3471
16250W        W33774  13.097   2.445   5.133 -0.2715  0.0347  0.0923
16251W        W33775   4.751   0.939   2.935 -0.1471  0.2587 -0.0731
16252W        W33776  14.913  14.331   4.103 -0.1395 -0.0228  0.2211
16253W        W33777   2.052   2.001   5.626 -0.4496  0.1751  0.0327
16254W        W33778   1.307  13.655   0.415  0.4493 -0.1430 -0.3810
16255W        W33779  11.300  11.967   0.001  0.2500  0.3093  0.2612
16256W        W33780   4.142   9.975   3.385 -0.2169  0.2125  0.0368
16257W        W33781   5.842  10.921  13.149 -0.2073  0.4544  0.0661
16258W        W33782  12.775  10.064   5.910  0.0036  0.2629 -0.3039
16259W        W33783  10.501   7.008  16.178  0.1182 -0.0198  0.3698
16260W        W33784   2.433  14.746  13.521  0.0687 -0.0308 -0.0516
16261W        W33785   2.666  10.411  16.159  0.0623  0.0396  0.1310
16262W        W33786   7.176  12.968   3.789  0.0344 -0.0196  0.0132
16263W        W33787   9.546   3.023  11.368  0.0345  0.1941  0.1030
16264W        W33788   8.574  13.170   1.838  0.2540  0.1426  0.0154
16265W        W33789   3.368  11.192   2.971  0.0567 -0.2985 -0.2373
16266W        W33790   1.722   3.647   5.230  0.0720  0.1916  0.2415
16267W        W33791  16.642   7.252   0.932 -0.0995 -0.0406  0.1224
16268W        W33792  13.504   5.797  15.762  0.0380 -0.1213 -0.2782
16269W        W33793   4.212   7.922   6.034  0.0887  0.1274  0.1905
16270W        W33794  17.303  16.882  14.473 -0.0252 -0.1086  0.4119
16271W        W33795  14.448  11.223   1.764 -0.0212  0.1430  0.3922
16272W        W33796   8.023  13.425  15.982 -0.0814 -0.1137  0.0607
16273W        W33797   5.001   2.410   2.375 -0.2223  0.1017 -0.1392
16274W        W33798   4.661  15.550   0.778  0.1803  0.0927 -0.4445
16275W        W33799  11.458  17.875   3.190  0.0880 -0.0814  0.1546
16276W        W33800  15.895   8.356   1.337 -0.0007 -0.2378 -0.0038
16277W        W33801  16.476  16.711  14.857  0.0035 -0.1248  0.0763
16278W        W33802  17.349  15.169   1.078  0.0017 -0.1504 -0.3771
16279W        W33803   9.378  11.711   4.284 -0.0407 -0.3773 -0.0219
16280W        W33804   7.723   5.036   5.135 -0.1155 -0.1637  0.1173
16281W        W33805   5.076   5.094  11.881 -0.0339 -0.3336 -0.0011
16282W        W33806  12.091   7.296  12.855  0.1899 -0.1457 -0.0122
16283W        W33807  11.272  14.848  13.704 -0.0407  0.0575  0.1435
16284W        W33808  16.505   1.389  13.224 -0.4258  0.1250 -0.1455
16285W        W33809   9.078   5.947   0.501  0.0983  0.1772 -0.0045
16286W        W33810  16.994   3.705   2.339 -0.2293 -0.0498 -0.0970
16287W        W33811  15.907   4.525   3.445 -0.0387 -0.0085  0.1338
16288W        W33812  14.368   5.679  12.125 -0.2619 -0.0422 -0.0295
16289W        W33813   3.084  11.835   3.564  0.2369  0.0515 -0.0497
16290W        W33814  11.919   2.151  16.443  0.0178  0.0139 -0.1311
16291W        W33815  11.579   0.332   1.314  0.1541 -0.1741  0.4373
16292W        W33816  17.408   4.000  14.892 -0.1314  0.2877 -0.0762
16293W        W33817   8.961  10.445   4.712  0.0603  0.2107  0.1163
16294W        W33818  13.555  11.832  12.023  0.2393  0.3107  0.0392
16295W        W33819  15.030  12.309  14.832  0.0646 -0.0963  0.1019
16296W        W33820  17.168  11.915   3.421  0.1699  0.2283  0.2203
16297W        W33821   1.033   2.903  13.456 -0.0639  0.0120  0.3764
16298W        W33822  13.330  11.698   1.141  0.1901 -0.2468  0.2563
16299W        W33823  15.353  14.087  11.499 -0.1563 -0.3008  0.1837
16300W        W33824  13.972  15.298   1.595  0.0507 -0.1802  0.0485
16301W        W33825   3.436  14.940   0.351 -0.1596  0.0905 -0.2976
16302W        W33826  10.282  15.127  15.480  0.1978 -0.0390  0.0890
16303W        W33827   8.708  15.587   1.094  0.1288 -0.0250  0.0267
16304W        W33828   3.752  14.450   4.963  0.1134 -0.2781  0.1538
16305W        W33829  14.375  11.459  13.963  0.0636 -0.0272 -0.1457
16306W        W33830  12.584   5.170   3.418  0.0558  0.2641 -0.1318
16307W        W33831  14.062   4.937  11.982  0.1271 -0.0997 -0.3842
16308W        W33832   1.032   0.048  14.970 -0.1766  0.2337  0.4209
16309W        W33833  10.788   6.451  13.944  0.0219  0.2399  0.3752
16310W        W33834  15.932   4.253   1.546  0.0153  0.0429  0.1768
16311W        W33835  17.544  15.789  12.260 -0.0193  0.0637  0.0901
16312W        W33836   6.751   7.254  15.017 -0.0093 -0.3246  0.0457
16313W        W33837  15.550   0.259   4.008  0.0036  0.3183 -0.0920
16314W        W33838   6.816  17.925   4.713 -0.1544  0.1196  0.0174
16315W        W33839   6.537   6.895   3.812 -0.2095 -0.0617 -0.0369
16316W        W33840  10.282   5.500   3.244 -0.1241  0.1140  0.1553
16317W        W33841  11.402  10.477  14.957  0.0189 -0.1133 -0.0321
16318W        W33842   5.187  12.033  15.921 -0.0429 -0.1790 -0.0790
16319W        W33843   4.993  16.453   5.104 -0.2308  0.0430 -0.0990
16320W        W33844   6.448  17.815  11.148  0.1768 -0.1627  0.2726
16321W        W33845  14.401   3.848   1.389 -0.0806  0.1193 -0.0761
16322W        W33846  15.687  10.282   4.301  0.0309  0.4811 -0.0336
16323W        W33847   7.042   3.573  14.333 -0.3075  0.0344 -0.2149
16324W        W33848  16.563  15.583  14.000 -0.2120 -0.1386  0.2304
16325W        W33849  17.171  11.630   4.515 -0.1569  0.0093 -0.1650
16326W        W33850  14.129   7.652  13.422  0.3049 -0.2245 -0.4226
16327W        W33851  11.090   6.704  15.412 -0.1229 -0.0682  0.1027
16328W        W33852   5.026   0.267   0.918  0.0309 -0.1166 -0.0314
16329W        W33853  16.374   4.867  13.468  0.2920 -0.2128  0.0956
16330W        W33854   8.263   9.532   3.962 -0.0791 -0.0441 -0.1264
16331W        W33855  16.210   2.308   1.744 -0.0478 -0.1076  0.0811
16332W        W33856  15.129  16.624  12.969  0.2386 -0.1017  0.0211
16333W        W33857  13.084  11.794  14.831  0.0039  0.1516 -0.2698
16334W        W33858  14.930  13.758   2.697  0.2977  0.1860 -0.0198
16335W        W33859   0.438  12.877   1.940  0.2921 -0.1506 -0.2322
16336W        W33860   0.605   9.669  12.558  0.1608  0.0053 -0.1643
16337W        W33861   1.013   9.998  12.500  0.0563  0.0048 -0.1290
16338W        W33862   0.861  13.970  13.711  0.0644 -0.1014 -0.2038
16339W        W33863  14.198   3.432  15.185 -0.1591 -0.0001  0.0905
16340W        W33864   2.205  15.725  15.902  0.2312  0.1144  0.0304
16341W        W33865  16.493  12.953  13.110 -0.2792  0.0901 -0.0412
16342W        W33866   7.634   6.463   1.188  0.0033  0.0126  0.1402
16343W        W33867  16.696  14.708   0.038 -0.2172  0.0774 -0.2456
16344W        W33868   0.078  14.110   2.529  0.0292 -0.1502  0.0115
16345W        W33869   4.864  15.094   0.958  0.1244  0.1494  0.0735
16346W        W33870  16.618   5.034   2.561  0.0433 -0.4638 -0.3357
16347W        W33871  15.991  17.502   2.335 -0.0879  0.1380  0.1005
16348W        W33872  12.905  16.467   4.305 -0.0358  0.2392 -0.0682
16349W        W33873  10.831  12.211  12.015 -0.3606  0.2114  0.6467
16350W        W33874   9.245   2.925   4.832 -0.1182 -0.2762 -0.2133
16351W        W33875  16.041  13.002   0.166  0.4185 -0.1858 -0.1683
16352W        W33876   8.449   8.439  16.167  0.0348 -0.1579  0.0031
16353W        W33877  12.600  16.224  15.073  0.1757 -0.0814  0.3684
16354W        W33878  17.469   6.454  11.472  0.0073  0.0337 -0.1595
16355W        W33879   7.805   5.656   3.019 -0.1716 -0.0008  0.1562
16356W        W33880   7.083  14.937   2.189  0.0710  0.1000  0.0381
16357W        W33881   1.606   1.075   3.187  0.3210 -0.0779  0.2486
16358W        W33882  16.145   7.230   2.997 -0.2666  0.1162  0.0411
16359W        W33883   0.690   3.693  13.524 -0.0409  0.1008 -0.0331
16360W        W33884   5.013   6.650  13.962 -0.1078  0.1696  0.0803
16361W        W33885   7.116   9.141   0.279 -0.4612 -0.1092 -0.2693
16362W        W33886  14.437  13.399   4.379 -0.0010 -0.1384  0.2077
16363W        W33887  10.405  16.645   5.125 -0.0035  0.0375 -0.0654
16364W        W33888  14.663  14.815   4.181 -0.0148  0.0722  0.2625
16365W        W33889  17.425   6.910  14.907 -0.0361 -0.2489  0.2067
16366W        W33890  14.775  13.845  13.341  0.1417  0.1032  0.2409
16367W        W33891  15.308   9.568   1.976 -0.4167 -0.2768 -0.3779
16368W        W33892   9.014  10.313  14.064 -0.0638  0.1526 -0.0125
16369W        W33893   7.109   1.952   2.716 -0.1445 -0.1079  0.3399
16370W        W33894   8.401  17.692   0.581 -0.0737  0.2826 -0.1572
16371W        W33895  10.622   3.182   2.999  0.1011  0.1702 -0.0734
16372W        W33896   8.797  15.204   4.678  0.0529 -0.2132 -0.0878
16373W        W33897   2.660  12.537   4.566 -0.1033  0.1436 -0.0760
16374W        W33898  11.472   7.221   1.470 -0.2305 -0.1031  0.2560
16375W        W33899  14.370   9.364   4.745 -0.0940 -0.0477  0.1119
16376W        W33900  12.308   3.528   2.850 -0.4049 -0.0686  0.2816
16377W        W33901   1.490  17.166  15.455  0.2585  0.0422 -0.0714
16378W        W33902   1.547  13.285  16.107 -0.0259 -0.0031  0.2569
16379W        W33903   4.445  12.082  11.267  0.1691 -0.0524 -0.2742
16380W        W33904   5.956   5.291   1.060  0.4074  0.1371  0.0867
16381W        W33905  10.846   0.760   3.774  0.1683  0.0811 -0.0438
16382W        W33906  11.537   6.500  11.740 -0.1557 -0.1050 -0.1081
16383W        W33907  15.121  11.957   3.724 -0.2382  0.0879  0.0551
16384W        W33908  13.511   5.994  12.482 -0.0585 -0.0851  0.0571
16385W        W33909  16.762   6.515   4.000 -0.1311  0.2875  0.2184
16386W        W33910  17.783  14.289   1.433 -0.4234  0.3780  0.0312
16387W        W33911   5.436   5.464   2.760 -0.2812 -0.1155 -0.2023
16388W        W33912   4.504   2.924  14.214  0.0413 -0.1901 -0.0858
16389W        W33913  15.018   9.962  16.441 -0.0662  0.2218 -0.0442
16390W        W33914  11.628   3.110  15.811 -0.2186 -0.0212  0.2426
16391W        W33915  14.049   4.407  14.468 -0.1782  0.2329  0.2879
16392W        W33916   7.697   1.773  11.409 -0.0092  0.0051 -0.2339
16393W        W33917   1.830   4.315  16.245 -0.1059  0.1309  0.3185
16394W        W33918   4.121  16.551  14.222  0.5077 -0.1900 -0.1294
16395W        W33919   7.554   9.814   1.384  0.0675  0.0925 -0.0690
16396W        W33920  14.842   8.152  10.298 -0.0655 -0.1088  0.1061
16397W        W33921  14.650   8.976  14.623  0.4992 -0.0425 -0.0947
16398W        W33922   9.077  10.570   3.974  0.1274 -0.0429 -0.1629
16399W        W33923   9.603   1.089   0.809  0.0273 -0.1434  0.2043
16400W        W33924  17.020  16.927   3.518 -0.0552  0.0248  0.0295
16401W        W33925  10.070   6.026   3.418  0.1796 -0.0856  0.1056
16402W        W33926   0.962   6.405  14.757  0.1302  0.0147 -0.2247
16403W        W33927  10.779   4.699  15.124 -0.0434 -0.1119 -0.0549
16404W        W33928   7.466  11.137  15.051 -0.0256  0.1245 -0.1855
16405W        W33929   0.465   9.254  15.392  0.0278 -0.2339  0.1876
16406W        W33930  15.633  13.596  13.161  0.0436 -0.0354 -0.1239
16407W        W33931   8.520   9.032  16.315  0.1479 -0.3591 -0.0690
16408W        W33932   3.037   9.401   2.470 -0.2103 -0.0407  0.0729
16409W        W33933  14.321   8.073  13.143 -0.0208  0.2002  0.0937
16410W        W33934  12.793  12.083   0.233  0.1227 -0.1206  0.1579
16411W        W33935  16.187  10.339   3.396  0.0623 -0.0020  0.1073
16412W        W33936   6.374   3.862  15.252  0.2891  0.1563  0.0842
16413W        W33937   7.048  13.377  11.248 -0.2430  0.1072  0.4038
16414W        W33938  12.844   9.278   1.392  0.0268 -0.2310  0.1354
16415W        W33939  11.460  17.129   3.389 -0.1179 -0.0989  0.0210
16416W        W33940   7.588  16.935  12.801 -0.1871 -0.1630 -0.0674
16417W        W33941   6.080   7.193   3.165 -0.0250  0.1610 -0.0513
16418W        W33942   7.131   5.775  11.958  0.0079 -0.1100  0.1525
16419W        W33943  12.876   0.664  14.172 -0.3126  0.2763 -0.1205
16420W        W33944   0.597  14.807   1.008  0.1539  0.0252 -0.2399
16421W        W33945   8.707   1.853  12.497 -0.1934  0.1361 -0.0859
16422W        W33946  13.635   7.972   3.245 -0.1389 -0.2398  0.1476
16423W        W33947   4.509   5.454   0.614 -0.2472 -0.1506 -0.1062
16424W        W33948   0.980   7.494  13.857 -0.2848 -0.0408  0.4306
16425W        W33949  16.513  11.071   2.284 -0.2017 -0.1164 -0.1143
16426W        W33950  16.943  11.768   1.277  0.1367  0.2229 -0.2935
16427W        W33951   0.951   2.829  14.023 -0.0385  0.1024 -0.1664
16428W        W33952  11.355  12.454  12.313 -0.2009 -0.0500 -0.1118
16429W        W33953  14.419  15.590   0.421 -0.1377 -0.0015  0.0699
16430W        W33954   8.288  15.488   1.348  0.2855  0.1455 -0.1310
16431W        W33955   6.076   2.046   2.078 -0.1212  0.0482 -0.1990
16432W        W33956   1.362   4.316   4.761  0.2497  0.1494 -0.2843
16433W        W33957  11.244   2.146   1.206  0.3281  0.0369  0.0634
16434W        W33958   9.297  16.756   3.702  0.2819 -0.1044 -0.0966
16435W        W33959  12.494   3.792   3.228  0.1300 -0.0083 -0.2241
16436W        W33960  14.525  15.220  15.498 -0.0191  0.1964  0.2440
16437W        W33961   8.394   0.376  14.290  0.2118  0.2571 -0.2569
16438W        W33962   3.596  11.545  12.137  0.0074  0.0239  0.0972
16439W        W33963  17.832  11.779  11.667 -0.0738 -0.3048  0.0002
16440W        W33964   4.700  14.385   5.226  0.0839 -0.0932 -0.1917
16441W        W33965   3.908   4.937   1.676 -0.2241  0.1973 -0.0933
16442W        W33966   6.497  16.831  13.876 -0.1593 -0.0497 -0.2445
16443W        W33967   8.879  16.467   2.251 -0.1004 -0.0418  0.0797
16444W        W33968  12.876  12.116   1.719  0.0193  0.0389  0.3055
16445W        W33969   4.425  10.717   2.250  0.2421 -0.0069  0.1907
16446W        W33970   4.061   5.686  13.004  0.1014  0.2278  0.2204
16447W        W33971   8.154  13.942  15.938  0.1344 -0.3747  0.1348
16448W        W33972  12.807   2.598   4.560  0.2640  0.0914  0.1094
16449W        W33973  13.185  16.226  15.707  0.1653  0.0036 -0.1808
16450W        W33974   2.083  11.664  11.967 -0.1161  0.1256  0.0520
16451W        W33975   8.975   1.629  15.725 -0.2608 -0.2640  0.0365
16452W        W33976   0.525   8.988  14.159  0.0828  0.2122  0.0775
16453W        W33977   1.166  16.332  11.946  0.0782 -0.0857  0.0061
16454W        W33978  14.369  17.558  10.704  0.1182 -0.2410 -0.0086
16455W        W33979   2.400   6.707   1.663  0.2026 -0.1306 -0.0728
16456W        W33980   0.470   6.067   1.097 -0.0387  0.0232 -0.1774
16457W        W33981  16.436   0.828  15.966 -0.0183  0.0038  0.2789
16458W        W33982   0.283  10.870   0.388  0.1642  0.1443  0.0934
16459W        W33983   4.984   0.480   1.592 -0.4379 -0.1018 -0.0791
16460W        W33984   4.612   5.926   0.442  0.1695 -0.3374  0.1471
16461W        W33985   0.619   0.203  14.570  0.0782  0.1673  0.0182
16462W        W33986  10.602   4.578  13.765  0.2667  0.0163 -0.4711
16463W        W33987  12.630  11.344  13.175  0.1152 -0.0430  0.1957
16464W        W33988   5.079  17.366  15.337  0.3116 -0.1108  0.0334
16465W        W33989  11.815   4.089  13.894  0.0547 -0.2220  0.1491
16466W        W33990  15.192  15.885  15.376 -0.0836 -0.1271  0.1897
16467W        W33991   7.422   1.859  14.628 -0.0285  0.0436 -0.0010
16468W        W33992  17.482   8.268  12.441 -0.0567 -0.3642  0.2187
16469W        W33993   7.260   8.904   4.912 -0.2550  0.0384 -0.0639
16470W        W33994   4.939   0.599  12.674  0.0212 -0.1027  0.0212
16471W        W33995   9.568   9.915  13.411 -0.2254  0.0399  0.1409
16472W        W33996  13.261  14.041   4.716 -0.0491  0.4316 -0.1851
16473W        W33997   1.758   5.031   1.972 -0.0101 -0.0319  0.2253
16474W        W33998   8.465   9.434   0.258  0.0051  0.2715  0.0856
16475W        W33999  11.699  16.362   4.743  0.2146  0.0276  0.2828
16476W        W34000   1.973   3.054  12.572 -0.1677  0.2702  0.1791
16477W        W34001  15.315  11.128   0.242  0.4344 -0.0853 -0.3422
16478W        W34002  11.641  17.522  12.827 -0.3268 -0.0614  0.0335
16479W        W34003  14.817  15.057  12.354  0.1019 -0.1613  0.2522
16480W        W34004  12.538   8.227   2.425 -0.0861  0.1393  0.2639
16481W        W34005   1.711  15.268  15.967 -0.0531 -0.0231  0.0692
16482W        W34006   5.848  11.857  14.975  0.0142  0.0035 -0.1246
16483W        W34007   6.315   6.767   0.846  0.0169 -0.3861  0.1792
16484W        W34008   4.456   6.614  11.697 -0.0922 -0.0945  0.0543
16485W        W34009  15.601  17.435   0.416  0.0205 -0.0169 -0.0969
16486W        W34010   0.352  15.966  14.323 -0.2551  0.0394 -0.2382
16487W        W34011  16.257   9.890  13.779  0.1560  0.3842  0.0462
16488W        W34012  14.608  11.263   4.230  0.1171  0.0057  0.1670
16489W        W34013   4.298  10.244  14.874 -0.0572 -0.0514  0.1875
16490W        W34014  15.757   3.397  14.140  0.1078  0.0899  0.1256
16491W        W34015   3.596  12.349   0.642  0.1515 -0.0700  0.2509
16492W        W34016   9.051   1.348   5.092 -0.0611  0.1862  0.2554
16493W        W34017  17.074   5.072  12.317  0.3148  0.3833  0.0425
16494W        W34018   2.179   0.211   3.343  0.0473  0.0026 -0.1517
16495W        W34019   9.867   3.399  12.108 -0.0191 -0.1841  0.2671
16496W        W34020  11.716  16.959   4.894 -0.2543 -0.1709  0.0540
16497W        W34021  13.097   6.705  13.752 -0.1667 -0.0914  0.0905
16498W        W34022   5.710   5.007   0.274  0.1033 -0.1983 -0.2263
16499W        W34023  14.153  12.306  15.835  0.0738  0.0816 -0.0072
16500W        W34024  16.313  10.628  15.614 -0.2969  0.3045 -0.1293
16501W        W34025  16.890   4.818  14.633 -0.2298 -0.1703 -0.4858
16502W        W34026   8.169  15.722   3.319  0.2177  0.0625 -0.3137
16503W        W34027   6.118  17.136   5.162  0.0058  0.1046  0.1921
16504W        W34028   9.836   2.158  13.793  0.0299 -0.2509 -0.0832
16505W        W34029   5.947   4.609  11.981  0.0882  0.1370  0.0065
16506W        W34030  11.192  16.500   1.830 -0.1068  0.2580 -0.1868
16507W        W34031   2.144   1.674  12.471  0.2631 -0.1758 -0.1446
16508W        W34032   8.120   5.681   1.752  0.0576 -0.0232 -0.2861
16509W        W34033   1.518  11.279   1.819  0.1296 -0.1333 -0.2616
16510W        W34034  14.719  14.807   2.624  0.1854  0.2633  0.3601
16511W        W34035   8.592  15.264   2.580  0.0517 -0.2700  0.1145
16512W        W34036  16.416  14.372   1.856  0.1755  0.3210 -0.0786
16513W        W34037   8.547  12.950   0.903  0.1898 -0.1378 -0.2800
16514W        W34038   1.440   2.081  14.950 -0.3887 -0.1373  0.0751
16515W        W34039   0.933  13.310   0.283  0.0028  0.1508 -0.2501
16516W        W34040   5.883   8.010   3.076 -0.3960 -0.0327  0.1939
16517W        W34041   8.156   1.613   1.635 -0.2645  0.2961 -0.1117
16518W        W34042  10.267   6.741   2.887  0.0309  0.1501 -0.0317
16519W        W34043   9.837  16.315   3.009  0.0468 -0.2132 -0.0218
16520W        W34044   2.767   1.899  13.672 -0.2246  0.1618 -0.1871
16521W        W34045  11.833  16.665  14.865  0.1598  0.2464 -0.1147
16522W        W34046   4.940  10.680  13.420  0.0102 -0.0904 -0.2622
16523W        W34047  15.750   2.724   2.290  0.1159  0.0830  0.0166
16524W        W34048  10.416  10.446  13.761 -0.0603 -0.0567 -0.2164
16525W        W34049  13.101   9.332   3.500  0.1246 -0.0502  0.3370
16526W        W34050   6.580   9.055   3.806  0.1860  0.0455  0.0928
16527W        W34051   2.563  15.679   3.909  0.0047  0.1527 -0.0444
16528W        W34052   6.344   4.412   4.696 -0.0670  0.2721  0.0410
16529W        W34053   0.235  12.536   2.815 -0.1489 -0.0955 -0.1175
16530W        W34054  14.720   5.733   5.929 -0.1582  0.0158 -0.0702
16531W        W34055   9.903   3.433  14.803  0.1204  0.0277  0.0977
16532W        W34056  10.629  14.119  15.125  0.1593 -0.2015 -0.2018
16533W        W34057   8.203   8.207   2.846  0.0860 -0.1906 -0.0450
16534W        W34058  10.267  14.217   1.615 -0.0233  0.1099 -0.0976
16535W        W34059   4.479  15.211  13.104 -0.1821 -0.3193 -0.2910
16536W        W34060   0.512   7.714  13.885  0.1393  0.0933  0.0158
16537W        W34061  11.507  12.605  14.404 -0.1833  0.0710  0.2260
16538W        W34062  16.816   1.520  14.203 -0.3107 -0.0029  0.1588
16539W        W34063  14.198  14.913   3.317 -0.0364  0.2655  0.2963
16540W        W34064  16.290   7.663   1.336 -0.0016  0.3803 -0.1471
16541W        W34065  15.889  14.460  13.583  0.2853 -0.1683 -0.0351
16542W        W34066   9.567  14.565   5.190  0.0100  0.2337  0.1577
16543W        W34067   7.591  14.812  11.716 -0.0657  0.0080  0.0943
16544W        W34068   1.433  15.615   3.889 -0.2567 -0.0196  0.0453
16545W        W34069   2.707   3.557   2.073 -0.1978  0.2103  0.0880
16546W        W34070   7.502  12.440  14.332 -0.0299  0.0915 -0.0682
16547W        W34071   6.725   7.184  13.864  0.0526  0.1628  0.0925
16548W        W34072  12.886  11.255   0.458  0.1317 -0.1884 -0.2827
16549W        W34073  16.721   3.804  12.832  0.0184 -0.0665  0.0668
16550W        W34074  13.165  16.354   3.043  0.1435 -0.1250  0.1419
16551W        W34075   1.865   5.679   0.516  0.2412 -0.0658  0.1550
16552W        W34076  17.223   8.423   0.453  0.0461  0.1456  0.0976
16553W        W34077   0.133   2.197  12.023  0.0657  0.0383  0.2007
16554W        W34078  10.399  12.163  14.891  0.0145 -0.3313 -0.2255
16555W        W34079   3.133   8.768  10.244 -0.0842 -0.0191  0.0722
16556W        W34080   5.639  12.943   1.075  0.0283 -0.2972  0.0153
16557W        W34081  16.335   6.800   2.798 -0.1781  0.2658 -0.0849
16558W        W34082  14.919   6.156  16.349  0.1306 -0.1403 -0.0862
16559W        W34083   7.482   1.396   2.024 -0.2193 -0.3393 -0.1217
16560W        W34084  17.724   8.763   3.386  0.3404  0.0689  0.0796
16561W        W34085  17.840   8.440   5.049 -0.2629  0.1316  0.2049
16562W        W34086   0.643   2.349  11.465  0.1098 -0.0441 -0.2793
16563W        W34087   2.472  13.190  16.418 -0.0556  0.3611 -0.0573
16564W        W34088   7.582  12.453   5.228 -0.2105 -0.0216  0.1969
16565W        W34089   3.604  12.520  12.996  0.0336 -0.1589 -0.3974
16566W        W34090   4.941  15.670   0.134  0.0092  0.1924 -0.3441
16567W        W34091   8.000  15.435  12.231  0.1102 -0.5866 -0.0972
16568W        W34092   5.317   6.204  11.537 -0.1978 -0.1445 -0.2020
16569W        W34093   2.819  10.051   3.223  0.1866  0.2766 -0.2430
16570W        W34094   8.503  11.243  12.760  0.2426 -0.0284  0.2948
16571W        W34095  12.515   4.147   2.202  0.0738 -0.2233  0.1485
16572W        W34096   4.657   0.801   3.480  0.3084 -0.1550  0.0082
16573W        W34097  16.926   6.958   1.548  0.0947  0.0048  0.1082
16574W        W34098  11.933  16.191  16.295  0.1372  0.2303  0.1365
16575W        W34099   1.254   9.774   3.455  0.1136 -0.3259  0.0885
16576W        W34100  13.353   2.076   2.864 -0.2087  0.1866  0.0829
16577W        W34101   7.928   9.854   0.061 -0.0198 -0.0044  0.0219
16578W        W34102  15.355   5.949   2.864  0.0702 -0.4398  0.1201
16579W        W34103  10.934  13.737   1.135 -0.2791  0.0756  0.0042
16580W        W34104   6.552   8.888   1.001  0.1218 -0.4357 -0.1089
16581W        W34105   4.859   9.399  14.846 -0.1656 -0.0026  0.1646
16582W        W34106  13.622   0.884   5.048 -0.0419 -0.1891 -0.0099
16583W        W34107   7.134  13.163   3.183  0.4226  0.2564  0.1830
16584W        W34108   8.088   4.095   2.436 -0.2380  0.1521 -0.1809
16585W        W34109   3.176   3.569  11.786  0.0123  0.2218  0.3467
16586W        W34110   2.217  12.746  13.141  0.1429 -0.1327 -0.0216
16587W        W34111   5.840  12.449   2.871 -0.1139 -0.3032 -0.2319
16588W        W34112   4.804   3.690  14.032  0.1416 -0.2017 -0.1588
16589W        W34113  10.471   7.115   0.973  0.0237 -0.1608 -0.4906
16590W        W34114   2.303   9.469  12.999 -0.2968 -0.0687  0.1448
16591W        W34115   7.526  15.359  12.422 -0.0127  0.0797  0.1488
16592W        W34116   6.376  16.819   2.336 -0.0896  0.0822  0.0004
16593W        W34117   8.442   3.719  14.179  0.2219  0.0570  0.1470
16594W        W34118   4.708   1.016  13.565 -0.2387  0.6200  0.0443
16595W        W34119   1.413   4.156   3.791  0.0599 -0.1097 -0.0902
16596W        W34120  17.904  17.236  12.559  0.1787  0.0420  0.1768
16597W        W34121  15.533   0.691   2.802 -0.2471  0.1387  0.0013
16598W        W34122   8.985  12.572   4.618 -0.2370 -0.0723 -0.4031
16599W        W34123   0.184   6.049  15.351  0.0007 -0.0930  0.3153
16600W        W34124   3.750   8.418   0.107 -0.0293 -0.2656 -0.2015
16601W        W34125   0.414  11.741  11.621  0.0797  0.1026 -0.3735
16602W        W34126   6.494   9.781   0.101  0.3104  0.0778  0.0544
16603W        W34127   6.444  13.275  12.999 -0.0068 -0.1547 -0.2205
16604W        W34128   9.142   3.420  16.014 -0.1950  0.0731  0.1370
16605W        W34129   1.299   0.578   5.274  0.1145  0.0048 -0.4167
16606W        W34130   4.551   8.068  11.450 -0.2483 -0.2115  0.0152
16607W        W34131  16.165   4.176   5.171 -0.0814 -0.0293 -0.2839
16608W        W34132   3.742  17.139   4.233 -0.2052 -0.0783  0.2293
16609W        W34133  14.837   3.884   0.700 -0.0362 -0.2466 -0.2784
16610W        W34134   1.904   1.567   0.545  0.1998  0.2521 -0.2885
16611W        W34135  17.048   9.564  11.530  0.1886  0.4180 -0.0022
16612W        W34136  13.355   8.666   2.406 -0.1193  0.0137  0.2052
16613W        W34137  12.351   0.731  15.091 -0.3784 -0.1701 -0.0955
16614W        W34138  16.245   8.353  14.409 -0.1297 -0.1740  0.2398
16615W        W34139   2.457  14.894  12.502  0.2801 -0.0175  0.1824
16616W        W34140   0.765  11.882  15.012  0.0447  0.0905  0.0592
16617W        W34141   8.263   7.429  16.265  0.1404 -0.4391  0.1585
16618W        W34142   1.922  17.462  13.425 -0.1870  0.2476 -0.0012
16619W        W34143  13.018   5.500  14.185  0.1815  0.1930 -0.1042
16620W        W34144   5.826   3.968   3.434  0.0397  0.0484 -0.3145
16621W        W34145  14.833  10.165   1.342 -0.0524  0.2381 -0.1065
16622W        W34146   2.394   3.135   2.940 -0.1259 -0.1660 -0.1559
16623W        W34147   7.240  13.656  12.027 -0.3500 -0.2853  0.2061
16624W        W34148  12.647   2.300  12.026 -0.1645 -0.0763  0.0532
16625W        W34149   8.863  15.988  12.993 -0.1873 -0.3161 -0.2380
16626W        W34150   8.880   3.438   3.249  0.1753 -0.3215  0.1825
16627W        W34151  13.175   3.284  15.439 -0.3562 -0.0364  0.3798
16628W        W34152   3.749  17.580  15.330  0.0744  0.3669 -0.0662
16629W        W34153   4.984   7.297  14.685 -0.0509 -0.1580  0.2631
16630W        W34154  15.433   7.129  14.252  0.1410 -0.1028 -0.0282
16631W        W34155  16.078  17.417   3.082  0.2415 -0.2854 -0.1423
16632W        W34156  11.092   0.411   1.528  0.1886  0.1008 -0.1523
16633W        W34157   0.454  15.572  13.556  0.0711 -0.2698 -0.0448
16634W        W34158  17.412   7.653   1.598 -0.2724 -0.1193  0.1512
16635W        W34159   3.770   8.450  11.997  0.1566 -0.2030  0.2938
16636W        W34160   2.280   7.262  13.893 -0.4172  0.2667  0.4206
16637W        W34161  13.134   1.829   4.191  0.0390 -0.0234  0.1869
16638W        W34162  13.392   6.801   4.666 -0.1537  0.2253 -0.0222
16639W        W34163   3.865  14.767  15.497 -0.1031  0.3427  0.2278
16640W        W34164  10.669  15.806  15.478 -0.4101 -0.3009  0.0815
16641W        W34165   6.869  10.378  15.452 -0.1284  0.1426  0.0703
16642W        W34166  13.445  13.896  14.779  0.2112 -0.1661 -0.2654
16643W        W34167   6.344  17.410  15.949  0.0065 -0.0010 -0.1119
16644W        W34168   5.526   7.621  12.962  0.1316  0.2937 -0.2383
16645W        W34169  14.361  16.792  13.986 -0.2932 -0.0830  0.0337
16646W        W34170   4.602   9.731  15.407 -0.0088  0.1244 -0.2859
16647W        W34171  10.184   6.568  15.286  0.1904  0.1203  0.0884
16648W        W34172  11.937   2.626   4.625  0.2548 -0.0866  0.0594
16649W        W34173   6.813  12.263  15.662  0.0202 -0.0450  0.1197
16650W        W34174   1.760  17.201   1.739 -0.2569  0.0147  0.3740
16651W        W34175  16.127   6.298   1.843  0.1476 -0.3198  0.2083
16652W        W34176   3.558  13.543  15.494 -0.1827  0.1838  0.2475
16653W        W34177  13.888   8.601  14.412  0.1248 -0.0595  0.1101
16654W        W34178  14.752   4.054   2.537 -0.0089 -0.0649  0.2133
16655W        W34179   9.977   5.931  12.342 -0.2049  0.0572 -0.4579
16656W        W34180   9.805   9.525   1.330 -0.1493  0.1382  0.0295
16657W        W34181   9.017   0.932   4.729 -0.0210  0.0281  0.2971
16658W        W34182   5.377   0.859   4.070  0.0514  0.0483  0.0413
16659W        W34183  13.765   0.870   0.012  0.1893  0.0283  0.1657
16660W        W34184   7.067  10.734   4.397 -0.0526 -0.0341  0.1593
16661W        W34185  16.164   9.801  13.237 -0.1190 -0.1251  0.1421
16662W        W34186   8.799  12.329   0.453  0.0012 -0.1787 -0.0023
16663W        W34187  12.965  15.964   4.565 -0.2474 -0.2800 -0.2679
16664W        W34188   3.865   8.223   3.137 -0.1643 -0.0243  0.3741
16665W        W34189   3.728   6.106  10.294  0.0475  0.1289  0.2159
16666W        W34190  12.736   1.468   0.425  0.2774 -0.1561  0.0500
16667W        W34191  16.029  10.245  14.613  0.0873  0.0771 -0.2880
16668W        W34192   1.394   5.223   0.382 -0.2205  0.3601  0.1585
16669W        W34193  16.894  11.664  11.960  0.1804 -0.2306  0.0945
16670W        W34194  17.365   7.497  13.681 -0.1159  0.0730  0.0657
16671W        W34195  10.697  15.950   4.065  0.0561  0.1731 -0.0697
16672W        W34196  10.814  12.160  16.391  0.3860 -0.0431  0.0535
16673W        W34197  11.580  10.651   3.528  0.0672  0.0492 -0.0750
16674W        W34198   9.261  11.058  14.605  0.0930  0.0210  0.0876
16675W        W34199  17.629   2.596   1.098  0.1219  0.1005  0.1535
16676W        W34200  17.767   9.909   2.443  0.3994  0.0894 -0.1997
16677W        W34201   8.844   0.159   3.977 -0.0010 -0.2065  0.0222
16678W        W34202   9.475   7.376  12.522  0.2610  0.1157  0.0352
16679W        W34203   4.511   0.563  12.922 -0.0188 -0.0782 -0.0466
16680W        W34204  17.718   5.040   3.977  0.3568  0.0576  0.2926
16681W        W34205  11.893   9.943   0.113 -0.1574  0.1832  0.1106
16682W        W34206   7.265   6.991   4.799  0.1757  0.3669 -0.1969
16683W        W34207   8.639  10.679  12.042  0.1069  0.0229  0.0684
16684W        W34208  11.787   9.515   0.426  0.0190  0.1107 -0.0768
16685W        W34209   4.246  14.246   2.766 -0.0799 -0.2017  0.4346
16686W        W34210  15.963   1.491  11.297 -0.2171 -0.2270 -0.0045
16687W        W34211   0.861  12.208   4.774 -0.1657  0.1810 -0.4540
16688W        W34212   5.661   2.615   2.200  0.2047  0.1720  0.0881
16689W        W34213  10.517  15.411  14.560  0.2766 -0.1123 -0.0376
16690W        W34214   0.009   8.689   1.053  0.0435 -0.1171 -0.2112
16691W        W34215   9.806  15.982  12.321 -0.2136  0.1720 -0.1172
16692W        W34216   1.455   1.723   4.584 -0.0525  0.0407  0.0629
16693W        W34217  10.491   5.004  10.546 -0.0825 -0.0122 -0.0705
16694W        W34218   1.363  15.711   3.374 -0.0947  0.0909 -0.3344
16695W        W34219  14.389   7.180  14.254 -0.3408 -0.0275 -0.0378
16696W        W34220   4.403   1.095  12.379  0.3209 -0.0441  0.0587
16697W        W34221   6.684  15.204   3.403  0.0461  0.0037  0.0318
16698W        W34222   9.230  15.073  13.157  0.1786 -0.2109 -0.0229
16699W        W34223   6.404  17.701  12.790  0.0261 -0.0946 -0.2205
16700W        W34224   3.157  10.644  13.410 -0.0184 -0.4577  0.1676
16701W        W34225  11.528  14.291  12.768  0.1420 -0.3404  0.2355
16702W        W34226  13.892   1.111  14.064 -0.0797  0.0936  0.3004
16703W        W34227  17.070   7.410   1.830 -0.1076  0.1760 -0.1872
16704W        W34228  15.739  16.576   0.800  0.2093  0.3314 -0.0520
16705W        W34229   7.121   8.698   4.459  0.2276 -0.1565 -0.1429
16706W        W34230   3.162  17.925   1.648  0.1326  0.0784 -0.1291
16707W        W34231  17.616   8.540   4.192  0.0389  0.3053  0.0664
16708W        W34232   2.210   4.345  11.969 -0.1819 -0.1299  0.1841
16709W        W34233   4.677  13.636  12.236 -0.2777 -0.0086 -0.2457
16710W        W34234   9.855   4.750  15.266  0.2190 -0.2680 -0.2406
16711W        W34235   0.240  15.520  15.717 -0.1776  0.1399  0.0504
16712W        W34236  13.265   2.822   4.710 -0.0548  0.2501  0.1189
16713W        W34237   8.285  11.317   1.898  0.0045  0.0274 -0.1043
16714W        W34238  15.847   1.973   5.035  0.0610  0.0037 -0.0797
16715W        W34239   1.039  16.666   4.665  0.6142  0.0753  0.3045
16716W        W34240   7.894  10.294  12.706 -0.0507  0.0066 -0.2006
16717W        W34241  14.191   6.035   1.407  0.2525 -0.1086  0.0971
16718W        W34242   2.955  17.386   3.916 -0.1668  0.0910 -0.0035
16719W        W34243  13.066  15.174  15.841 -0.2086 -0.2129 -0.4154
16720W        W34244   1.240   7.468   4.329  0.1487  0.1133 -0.1464
16721W        W34245  16.771   6.764   4.471 -0.0761 -0.0831 -0.2520
16722W        W34246   3.924   6.859   0.080 -0.0137  0.1124 -0.1931
16723W        W34247   1.513   8.184   0.842  0.6096  0.2672  0.3849
16724W        W34248  12.224  12.741   6.107 -0.0244 -0.1266 -0.2094
16725W        W34249   1.829   2.463   0.794  0.1733  0.6869 -0.1434
16726W        W34250  17.079  13.603  15.450 -0.1607 -0.2656 -0.3542
16727W        W34251  13.122   1.953  11.338  0.0734  0.0700  0.0340
16728W        W34252  14.821   5.215  11.402  0.2776 -0.1033  0.0317
16729W        W34253  14.511  13.381   0.757  0.4101 -0.0159  0.4424
16730W        W34254  14.872  17.098  13.146 -0.1791 -0.1073 -0.0296
16731W        W34255   5.347   5.245  12.434 -0.0368 -0.0474 -0.0053
16732W        W34256   7.005   8.188  13.084  0.3239  0.1702 -0.1286
16733W        W34257  12.184   6.663  13.739 -0.2991 -0.0261 -0.0227
16734W        W34258  15.166  11.194   5.324  0.1421  0.1828 -0.0883
16735W        W34259   8.046  17.161   3.623 -0.0950  0.1458 -0.1736
16736W        W34260   0.207   1.153  14.148  0.2764 -0.0549 -0.1182
16737W        W34261   3.377   5.088   2.604  0.1377 -0.2638  0.1723
16738W        W34262   3.187  17.189   0.681 -0.3893 -0.2822  0.1952
16739W        W34263   4.161   2.680  13.405 -0.0742 -0.1280  0.0561
16740W        W34264  10.537   5.163  13.617 -0.1355  0.1177 -0.0479
16741W        W34265   6.973   6.692   4.500 -0.2556  0.0894 -0.0988
16742W        W34266  12.581   6.553  14.429 -0.0229 -0.0219  0.2078
16743W        W34267   9.484   7.340  11.048  0.3032  0.0268 -0.0678
16744W        W34268  12.127   4.995   1.832 -0.0089  0.0896 -0.1220
16745W        W34269   9.197  12.508   4.140  0.1422  0.1280  0.4192
16746W        W34270   7.647  12.216  13.911 -0.1738 -0.0438 -0.1392
16747W        W34271  14.442   5.388  10.689 -0.0145  0.2287  0.2655
16748W        W34272   0.343   9.670   3.585 -0.0647 -0.1520 -0.4001
16749W        W34273   3.848   7.655   3.291 -0.0165  0.2354  0.3757
16750W        W34274  13.162  15.318   1.047  0.3074 -0.3679 -0.1529
16751W        W34275  16.913   7.613  15.255 -0.0725  0.1889 -0.2242
16752W        W34276   3.752   1.710  13.566  0.4136 -0.0609 -0.1489
16753W        W34277   0.673  17.558   4.735  0.0478  0.1304  0.0818
16754W        W34278   1.170   8.219  13.516  0.1019  0.0487  0.2098
16755W        W34279  17.732   2.611   4.901  0.0175  0.1510  0.0476
16756W        W34280  16.732   6.000  16.079 -0.2208 -0.0218 -0.1413
16757W        W34281  16.759  10.710   0.515 -0.0809 -0.3009 -0.0441
16758W        W34282   4.208   3.616   1.774  0.2655 -0.0278 -0.2374
16759W        W34283  15.157  12.023   0.133  0.0426 -0.3323 -0.3842
16760W        W34284   6.493  10.259  13.439  0.3042  0.2428 -0.0204
16761W        W34285  15.498   7.590   4.209 -0.0291  0.1532 -0.0785
16762W        W34286   6.617   8.436   2.071 -0.2113  0.2380  0.0159
16763W        W34287   1.584  15.842  13.587 -0.0841 -0.1394  0.2208
16764W        W34288   7.862   4.012  14.651 -0.0449  0.0593 -0.2199
16765W        W34289  13.628  14.330  16.076  0.0286 -0.1631  0.1609
16766W        W34290   7.409  13.612  15.344  0.1396  0.0047 -0.2786
16767W        W34291   2.791  15.944  13.050  0.2013 -0.1880 -0.0881
16768W        W34292  10.460  14.058   2.674 -0.2306  0.1430  0.2562
16769W        W34293   5.741  11.842   4.243  0.0705 -0.0806 -0.1119
16770W        W34294   3.659   4.391  11.682 -0.0234 -0.2009  0.2600
16771W        W34295  15.366  12.913   4.176  0.1633 -0.2864 -0.0800
16772W        W34296  15.101   1.131   3.578  0.0775  0.0379 -0.0661
16773W        W34297   7.906   3.169  15.276 -0.1089  0.0275  0.2273
16774W        W34298   8.875   3.627   3.915 -0.0214  0.1236  0.2326
16775W        W34299  14.087  16.729  13.555 -0.2748 -0.1403  0.2439
16776W        W34300   4.945  11.035  12.008  0.1322 -0.0365 -0.1940
16777W        W34301   6.673   1.787  12.839  0.2621  0.2039  0.1990
16778W        W34302   6.900   6.948  11.450  0.0896 -0.0450  0.0432
16779W        W34303   8.305   4.810   4.981 -0.1110 -0.1356 -0.4317
16780W        W34304  17.629   5.464   5.225  0.0988  0.0241  0.2919
16781W        W34305  14.704   1.424  15.727  0.1605  0.0048  0.1085
16782W        W34306  15.113   6.800   1.412  0.0521  0.0983 -0.0533
16783W        W34307   2.538  16.710  15.508 -0.0236 -0.1029  0.2049
16784W        W34308   1.377   9.187  15.927  0.1694 -0.0850 -0.1640
16785W        W34309  10.465   5.877   5.123 -0.0078 -0.0463 -0.0689
16786W        W34310   0.831   9.093  11.194  0.3743  0.2051  0.0796
16787W        W34311  11.364   5.440  11.706  0.4430 -0.1394 -0.1677
16788W        W34312   2.990   0.789   1.123 -0.3141 -0.0307 -0.2979
16789W        W34313   7.372  14.320  13.157  0.1883 -0.1150  0.2983
16790W        W34314   4.034   3.981   2.901  0.2771 -0.0099 -0.0273
16791W        W34315  15.703  16.107   3.860  0.1867 -0.1638 -0.2085
16792W        W34316  12.356  10.109   1.503 -0.0044 -0.2332 -0.0484
16793W        W34317   7.299  17.953   2.604 -0.1369  0.1583 -0.0979
16794W        W34318  17.650   2.568  16.183  0.0231  0.2331 -0.2046
16795W        W34319  10.097   0.920  12.541  0.2290 -0.2529 -0.0139
16796W        W34320   9.295   7.215   0.741 -0.0703 -0.0904 -0.2193
16797W        W34321   2.763   6.107   2.348  0.1378 -0.6194 -0.4089
16798W        W34322  14.256  10.065   3.615 -0.0604 -0.0588  0.1614
16799W        W34323   3.067   3.109   5.818  0.0054 -0.1943  0.1089
16800W        W34324   7.949  10.159   1.633  0.0211  0.1610 -0.0862
16801W        W34325  15.226  17.269   4.260 -0.1566  0.3038 -0.0306
16802W        W34326  17.625  17.952   2.180  0.0946  0.0548 -0.3707
16803W        W34327   7.022   8.469   4.889 -0.2100  0.1553  0.1039
16804W        W34328   0.456   4.563   2.767  0.1886  0.0648  0.2004
16805W        W34329  17.012  16.033   5.036 -0.0266  0.0328 -0.0934
16806W        W34330   4.246  12.973   4.061  0.0704  0.0419  0.3316
16807W        W34331   1.025   8.048   0.617  0.3077 -0.1646  0.1742
16808W        W34332   2.236  17.824  13.143  0.1674 -0.0968 -0.0497
16809W        W34333   2.792  15.761   2.075 -0.0643 -0.2436 -0.2223
16810W        W34334  13.464   0.737  11.997 -0.1866 -0.0674 -0.3596
16811W        W34335   6.963   6.436   0.549 -0.4650 -0.1392 -0.2085
16812W        W34336   7.054   3.685  13.289 -0.0749 -0.1539  0.0730
16813W        W34337  16.573  15.319  15.219  0.6149  0.1804 -0.2339
16814W        W34338   6.681  13.765   4.718 -0.0426 -0.2822 -0.1208
16815W        W34339  12.279   7.887  12.227  0.0595 -0.0377 -0.0513
16816W        W34340  17.606   4.861   2.965  0.0671 -0.1114 -0.0637
16817W        W34341  15.370  13.236   1.396  0.3851  0.0697  0.0800
16818W        W34342   9.165   6.245  12.359  0.0952 -0.0874  0.3325
16819W        W34343   5.065  14.322   4.495 -0.2639  0.0326 -0.0049
16820W        W34344   2.863  17.082   2.664 -0.0285  0.0664  0.0098
16821W        W34345   0.810   0.391   0.232  0.0478 -0.0272 -0.1527
16822W        W34346  17.438  13.003   4.090  0.0216 -0.2373  0.0980
16823W        W34347  11.732  16.803   3.953  0.0087  0.0698 -0.1712
16824W        W34348  14.805   9.656   1.881  0.3887  0.1897 -0.1788
16825W        W34349   2.452  13.885   1.888  0.1331 -0.0207 -0.0683
16826W        W34350  15.421   2.297  15.597 -0.0362 -0.0877  0.3409
16827W        W34351   5.661   8.397  12.257  0.1654  0.0720 -0.1145
16828W        W34352  13.572   7.588  15.309 -0.1262  0.0302 -0.0356
16829W        W34353   4.179   1.462  14.884 -0.0397  0.0738 -0.0783
16830W        W34354   0.480   0.099  15.011  0.2345 -0.1793  0.1424
16831W        W34355   3.443  10.717   0.970 -0.2332 -0.2018  0.1751
16832W        W34356  17.874   1.142   4.956  0.0578 -0.1670  0.2000
16833W        W34357   4.874   8.046  14.168  0.1897 -0.0727  0.2002
16834W        W34358   2.471   5.282  12.032  0.0607  0.4079 -0.0139
16835W        W34359  12.422  15.662   1.054  0.0916 -0.3488  0.0651
16836W        W34360   6.050   7.062   5.444 -0.0299  0.1098  0.2904
16837W        W34361  10.836   8.435  16.306 -0.0253  0.1085 -0.0102
16838W        W34362   5.629   7.481   1.889 -0.2381  0.0979  0.0129
16839W        W34363   2.585  13.923   3.549 -0.0118  0.0553 -0.1954
16840W        W34364  15.316   2.753  15.625 -0.1015 -0.2675  0.0164
16841W        W34365   4.856  15.536   2.705  0.2399 -0.1675  0.0466
16842W        W34366   0.012   0.900   1.549 -0.1555 -0.0069  0.1052
16843W        W34367   8.712   6.009  12.301  0.3614  0.2805 -0.1341
16844W        W34368   7.171   5.089   4.183 -0.3204 -0.0449  0.0300
16845W        W34369   1.227   0.385  10.641  0.2293  0.0747  0.0927
16846W        W34370   0.630  14.549  12.517  0.0003 -0.3152  0.3703
16847W        W34371  12.373  12.066   1.606  0.2013 -0.2892  0.1597
16848W        W34372  16.863  14.229   1.203 -0.0185 -0.0809 -0.0153
16849W        W34373   0.085   4.137   5.039  0.0010  0.1526  0.0399
16850W        W34374   1.915  15.496   2.551  0.0631 -0.5526 -0.0911
16851W        W34375  12.256  15.900   1.900 -0.3058  0.0735 -0.0728
16852W        W34376   6.290   5.170  16.101  0.0023 -0.0283 -0.3115
16853W        W34377  17.590   1.789  14.492 -0.0030 -0.4323  0.0171
16854W        W34378   6.335  17.231   0.757  0.0799  0.0175  0.0939
16855W        W34379  11.823  12.659   5.229 -0.1828 -0.4290 -0.0981
16856W        W34380   9.833   5.304  13.817  0.0283 -0.1515  0.1319
16857W        W34381   6.536  15.293   0.537  0.0444 -0.0921 -0.0022
16858W        W34382  17.784   8.626   1.906  0.0482 -0.0537 -0.2326
16859W        W34383   5.396   6.637  12.710  0.0827 -0.0543  0.0124
16860W        W34384  17.887  17.641   0.604 -0.0296 -0.1659  0.0741
16861W        W34385  12.971  15.597   1.836 -0.0654 -0.4128  0.0968
16862W        W34386   9.432  10.821   1.108  0.0282 -0.0991 -0.0022
16863W        W34387  13.358   4.610   3.746 -0.1233 -0.1871  0.0679
16864W        W34388  17.813  12.553  11.755  0.1228  0.0704  0.0519
16865W        W34389   2.974  10.659   5.082  0.2248  0.2620  0.1034
16866W        W34390  17.054   2.769   3.450  0.0171  0.1766 -0.2358
16867W        W34391  11.259   0.981  15.688 -0.1570  0.0252 -0.0267
16868W        W34392   2.444  16.802  14.519 -0.3578  0.1616  0.1247
16869W        W34393  10.396  16.861  11.040  0.0991  0.0681 -0.0369
16870W        W34394  11.618   3.601  15.978 -0.4501  0.1670  0.0609
16871W        W34395   3.164   1.906   4.086 -0.0151  0.2219  0.0435
16872W        W34396  16.034   4.333  12.075  0.1142  0.0853 -0.1760
16873W        W34397   2.129   9.906   0.402  0.0026  0.1430  0.0184
16874W        W34398   0.721  17.886  15.360  0.0946 -0.0009 -0.1894
16875W        W34399   1.189  17.944   2.807  0.2813 -0.0158  0.1714
16876W        W34400   4.512  11.076  12.317  0.4309  0.1587  0.0717
16877W        W34401  12.849  14.302   5.456  0.0848 -0.3936  0.0059
16878W        W34402  14.255   1.991   4.865 -0.1426  0.0096 -0.0555
16879W        W34403   6.706  13.527   1.768 -0.0461 -0.0092  0.3280
16880W        W34404  17.832  14.952  15.740 -0.0515  0.0567 -0.2362
16881W        W34405   4.223   7.405   0.253 -0.1081 -0.2577  0.0430
16882W        W34406  12.454  14.720   2.954  0.1326  0.0800 -0.2736
16883W        W34407   5.752  12.878   5.186 -0.0964 -0.0226  0.0533
16884W        W34408   0.397   2.324   3.531  0.1698 -0.5541  0.1394
16885W        W34409   1.289  16.807  12.119  0.3018 -0.3619  0.1777
16886W        W34410   5.818  13.591  16.171  0.0390  0.0213 -0.1605
16887W        W34411  12.350   3.580  13.318 -0.1144  0.1542  0.1157
16888W        W34412   6.352  13.373   2.935  0.0153 -0.0515  0.0355
16889W        W34413  10.576   9.083   3.864  0.0557  0.1736  0.0345
16890W        W34414  10.005   8.682   4.008  0.0176 -0.0129 -0.0649
16891W        W34415  10.522   3.085  12.596 -0.2771 -0.0347  0.0267
16892W        W34416  16.332   2.364   4.429  0.0545 -0.1296 -0.2513
16893W        W34417   6.389  15.596  10.827  0.0935 -0.2817 -0.0578
16894W        W34418   3.212  16.803  12.955 -0.0403  0.2962 -0.0245
16895W        W34419   4.083   3.234   0.434 -0.0488  0.2899  0.0399
16896W        W34420  17.380  13.343   2.337  0.0248  0.2249  0.0850
16897W        W34421  11.678   1.752  14.516 -0.0052  0.0517 -0.1708
16898W        W34422  14.965   4.184   5.045  0.1175 -0.2593 -0.0221
16899W        W34423   6.419   9.364  11.988 -0.0549  0.2875  0.1026
16900W        W34424  10.343  11.825   0.697 -0.4054 -0.0070 -0.0378
16901W        W34425  10.387  17.509  11.243  0.2425 -0.2727 -0.1635
16902W        W34426   7.670   2.978   0.784 -0.0163  0.2212 -0.1011
16903W        W34427   3.707   2.556  13.656 -0.0384 -0.2835 -0.1668
16904W        W34428   6.214   7.682  14.388 -0.0715  0.2428  0.0878
16905W        W34429  13.900  11.121  13.031 -0.1163  0.4035 -0.0220
16906W        W34430   8.813   8.104   4.685  0.0970  0.2280  0.2162
16907W        W34431  15.169   0.404  15.747 -0.2670  0.2319 -0.2448
16908W        W34432   0.561  11.046   4.258  0.0068 -0.1178 -0.0140
16909W        W34433  17.548  15.410   0.676 -0.2265  0.1110 -0.1158
16910W        W34434  10.351  10.870  14.003  0.2045  0.4256 -0.3464
16911W        W34435  14.627  13.387  12.071  0.0500  0.2048  0.2316
16912W        W34436   9.150   9.206   4.059 -0.0339 -0.2299 -0.1755
16913W        W34437  14.294   7.790   5.268 -0.2328  0.4111  0.1436
16914W        W34438  12.918  16.689  12.772  0.3260  0.1711  0.4149
16915W        W34439   1.103  15.368  12.268 -0.2293  0.3985 -0.1771
16916W        W34440  17.055   2.996   5.254  0.3121 -0.1273 -0.1188
16917W        W34441  17.053  10.888  15.401  0.2652 -0.1316 -0.1426
16918W        W34442   8.306   3.915  11.595  0.2223  0.0237 -0.1073
16919W        W34443  11.693  10.629  14.497  0.1270  0.0206  0.1446
16920W        W34444  14.443   3.070   2.380  0.1662  0.1359 -0.1197
16921W        W34445   1.916  10.025  15.016 -0.1574  0.0118 -0.1366
16922W        W34446  11.711  11.916  14.742  0.0925  0.1355  0.0560
16923W        W34447   8.649  14.384  14.904  0.3913 -0.1959 -0.1218
16924W        W34448  12.402  16.087  16.072  0.0774  0.0210  0.1480
16925W        W34449   6.813  11.938   5.152 -0.0661  0.0185  0.3280
16926W        W34450   4.269  17.667   4.700 -0.0124  0.0657 -0.1321
16927W        W34451   1.593  10.366  14.051  0.2740  0.1971  0.1407
16928W        W34452   8.919  10.572  16.106  0.0213 -0.0674 -0.0990
16929W        W34453   2.050  14.493  15.908 -0.0682 -0.3560  0.1799
16930W        W34454  11.986   4.575   3.201 -0.0633  0.0568 -0.0569
16931W        W34455   9.600  12.973  11.356  0.0677 -0.0414  0.0539
16932W        W34456  10.888   4.386  14.719 -0.0800 -0.0741 -0.3280
16933W        W34457   2.402   0.487  11.145 -0.1086  0.0576  0.0700
16934W        W34458   2.361  16.896   1.967 -0.1095 -0.1636 -0.1753
16935W        W34459  14.764  14.590   0.521  0.0948 -0.3890  0.2823
16936W        W34460  11.288   0.734  10.649  0.0069 -0.0196 -0.3796
16937W        W34461  17.299  11.722   0.847 -0.1285 -0.1912 -0.1246
16938W        W34462   7.748   5.054   0.062 -0.3111 -0.3083 -0.0525
16939W        W34463  14.718   3.475  11.878  0.0457  0.0435 -0.1484
16940W        W34464  15.395  10.426   2.838  0.1246  0.0183 -0.2088
16941W        W34465  15.954  16.950   0.023  0.0301 -0.1022 -0.4115
16942W        W34466  11.968   2.920  12.984 -0.0674  0.1352 -0.0717
16943W        W34467  10.686  13.330  12.716  0.1655 -0.1069 -0.1059
16944W        W34468   7.536  17.102   3.697  0.1532  0.0697 -0.0930
16945W        W34469   1.036  11.364  13.777 -0.1431  0.1429  0.3083
16946W        W34470   0.914   7.352  14.316  0.1464  0.4435  0.2392
16947W        W34471  10.973   6.456  12.999 -0.2071 -0.1463 -0.0238
16948W        W34472   8.661   6.770   1.017  0.3055  0.0189 -0.1118
16949W        W34473  17.463   2.120   4.054 -0.2492 -0.1058 -0.1981
16950W        W34474   1.177   7.820   1.062 -0.1397 -0.1460  0.1600
16951W        W34475   0.528   3.702  16.121 -0.1585  0.1709  0.0114
16952W        W34476  15.640  10.505   5.097 -0.0548 -0.2631  0.0196
16953W        W34477   8.793   6.569  12.151  0.0142 -0.2472 -0.2442
16954W        W34478   7.417  16.769   0.227 -0.1006 -0.1420 -0.0808
16955W        W34479   3.530  15.664  14.665 -0.1712 -0.3991 -0.0791
16956W        W34480  12.743   3.958   0.469  0.0940  0.0271 -0.0948
16957W        W34481  16.178   7.748   0.180  0.1521  0.5303  0.1673
16958W        W34482   3.779  15.869   2.033 -0.0534 -0.1425 -0.0244
16959W        W34483  12.366   5.134  14.370 -0.1934  0.3497  0.0736
16960W        W34484  11.277   2.376  11.970 -0.1914  0.3061  0.4971
16961W        W34485   3.363  15.807   0.735 -0.3409  0.2330 -0.0027
16962W        W34486   0.806  16.618  12.977  0.0376  0.2810 -0.0080
16963W        W34487   9.173   6.373  16.391 -0.1269  0.1663  0.2543
16964W        W34488  14.204  11.736   0.337  0.0683  0.0553 -0.0472
16965W        W34489   3.748  10.707   1.670  0.1003  0.1816  0.0256
16966W        W34490  16.710  16.170   4.118 -0.1239 -0.1651 -0.3994
16967W        W34491   1.606  11.582  14.878 -0.4993 -0.1099  0.0370
16968W        W34492   1.614   4.516   3.481  0.0076 -0.1627 -0.1075
16969W        W34493   4.089  16.071  16.294  0.0650 -0.3429 -0.0849
16970W        W34494   4.513  16.983   2.672 -0.4071 -0.0966  0.3769
16971W        W34495   3.723  16.146  11.991  0.0281 -0.0667  0.0310
16972W        W34496   2.308  16.880   3.977  0.2945 -0.1494  0.1198
16973W        W34497   1.172   2.458  13.188  0.1029  0.1366  0.2129
16974W        W34498   3.392   5.640   5.072 -0.2975  0.1228  0.2264
16975W        W34499   0.934   9.095   4.061  0.2015 -0.1329  0.3658
16976W        W34500  13.546  14.806  13.140 -0.3302  0.1139 -0.2138
16977W        W34501  16.472  10.083   5.171 -0.1457  0.1023  0.0427
16978W        W34502  15.075  12.754   2.994 -0.1836  0.0856 -0.1936
16979W        W34503   9.679   8.640   0.428  0.1302 -0.0424 -0.1051
16980W        W34504  16.145  14.907  13.488  0.0521  0.0201 -0.1363
16981W        W34505   7.511  13.191  14.013  0.0673 -0.2981 -0.1480
16982W        W34506  17.261   8.493  13.794  0.2818  0.0248  0.0821
16983W        W34507  11.714  17.228   4.392 -0.1625 -0.0180  0.2343
16984W        W34508  15.203   6.993   0.964 -0.0513 -0.3394  0.0968
16985W        W34509   3.426  13.993   2.219  0.2862 -0.1402 -0.2310
16986W        W34510   3.433  12.477  14.349  0.0657  0.0306 -0.1922
16987W        W34511   8.008   5.920   0.403  0.1326  0.1936 -0.1823
16988W        W34512   8.306   3.740   1.250 -0.0577 -0.1336 -0.3904
16989W        W34513   1.519  15.018   3.257  0.3134 -0.0933 -0.1276
16990W        W34514   4.299   9.391   2.522 -0.1141  0.1000  0.0438
16991W        W34515  12.226  17.568   4.562  0.0589 -0.0340 -0.0750
16992W        W34516  14.811  10.942  15.353  0.2625  0.2846  0.1066
16993W        W34517  13.075   2.990   0.504  0.3121 -0.0366  0.5298
16994W        W34518   1.589  11.753   0.553 -0.1908 -0.0013  0.0099
16995W        W34519  13.484  14.980  12.079 -0.1534 -0.2140 -0.0956
16996W        W34520   2.933  13.532   0.243  0.1962 -0.0234 -0.0730
16997W        W34521   3.765   7.615   5.137  0.0314 -0.0684 -0.1744
16998W        W34522   9.950   9.619  15.998  0.0652  0.4376  0.1996
16999W        W34523   0.411  10.501   2.550 -0.3491 -0.0301  0.3923
17000W        W34524  13.208   2.858   2.262  0.2167 -0.2558 -0.1399
17001W        W34525  12.565   2.754  16.064 -0.3071  0.0836 -0.0220
17002W        W34526  15.548   8.687   0.491 -0.1130  0.0976 -0.0754
17003W        W34527  10.493  14.904  14.469  0.0402  0.0527 -0.0506
17004W        W34528   8.421   8.521   3.680 -0.1281  0.1756 -0.0478
17005W        W34529   0.988  13.504   4.116  0.0240 -0.0606  0.2797
17006W        W34530  14.176  13.499  14.203  0.1362 -0.1744  0.0368
17007W        W34531  15.372   4.272   1.560  0.1061 -0.3779  0.0378
17008W        W34532   9.880   1.581   1.386 -0.0829 -0.0220 -0.0766
17009W        W34533  15.449   1.625   0.966  0.0939  0.0224 -0.3107
17010W        W34534  13.154   6.319  16.321  0.1523 -0.0085  0.2590
17011W        W34535   6.667  11.186   1.326  0.2679  0.0924 -0.1347
17012W        W34536  17.356   2.530  11.638  0.2098 -0.1672  0.2152
17013W        W34537  10.708   8.864  11.913  0.1625  0.2014 -0.2161
17014W        W34538   5.411  10.528   3.854 -0.1899 -0.0526 -0.1784
17015W        W34539   1.693  14.265   4.348 -0.1711  0.2298  0.3967
17016W        W34540  12.965   7.405   3.525 -0.0381  0.0162 -0.0602
17017W        W34541  13.196  10.961  11.927 -0.1696  0.0440 -0.2242
17018W        W34542  12.522   5.605  13.075  0.0332 -0.2588  0.1160
17019W        W34543   3.435  14.369   1.041  0.3084 -0.2683 -0.2168
17020W        W34544  10.675   4.992  12.441  0.4637 -0.1412  0.1126
17021W        W34545  14.552  15.682   4.625  0.1805 -0.1834  0.1079
17022W        W34546   9.883   3.397  11.202 -0.0449 -0.0054 -0.2905
17023W        W34547  14.618   9.591  11.743  0.0057 -0.0684 -0.0150
17024W        W34548  11.125   9.765  14.401 -0.1452 -0.1057 -0.1121
17025W        W34549  14.558   3.548  14.282 -0.0718  0.1575 -0.1670
17026W        W34550  17.034   0.560  15.243  0.0227  0.1249 -0.3378
17027W        W34551  11.049  17.145  12.182  0.0428 -0.2551  0.2054
17028W        W34552   0.798  14.130   4.707 -0.0918 -0.3888 -0.0654
17029W        W34553  14.903  13.641   3.235 -0.0463  0.0163  0.1947
17030W        W34554  15.458  15.735  13.254  0.0899 -0.1217 -0.1120
17031W        W34555   6.238   8.556   1.092 -0.0686  0.1845 -0.4654
17032W        W34556  10.159   1.675  12.506 -0.0213 -0.0647 -0.2613
17033W        W34557  14.014   2.995   1.415  0.0871 -0.0265 -0.1609
17034W        W34558   7.642   6.035   4.619  0.3612 -0.3502 -0.0375
17035W        W34559   8.898   6.017   2.258 -0.1620  0.0207  0.0653
17036W        W34560   2.557   6.924  14.557  0.1832  0.1921 -0.0857
17037W        W34561  14.244   4.579   2.332  0.0724  0.0536 -0.1889
17038W        W34562   5.176   1.619  13.571  0.0498  0.1426  0.1600
17039W        W34563   6.564   7.589  11.891  0.2701  0.1501  0.0204
17040W        W34564  14.468   0.256   3.706  0.0101 -0.2289  0.1570
17041W        W34565  15.184   8.903   3.608  0.2310 -0.1912 -0.0104
17042W        W34566   2.464   2.580   2.090 -0.2290  0.2970  0.0323
17043W        W34567   3.371   5.117  13.010 -0.1460  0.4030  0.0066
17044W        W34568  10.052   7.305  16.093 -0.1311 -0.1397  0.1854
17045W        W34569   0.649   5.449  14.896  0.0110 -0.0448  0.1166
17046W        W34570  16.589   2.994   4.351  0.3319 -0.0876 -0.0745
17047W        W34571   3.398  12.563   4.820  0.1407 -0.0935  0.0828
17048W        W34572  14.944  16.464   2.905  0.4101  0.0913 -0.1351
17049W        W34573   6.362  12.123  12.149  0.0358 -0.0480  0.1919
17050W        W34574  13.319  17.878  12.293 -0.0570 -0.4550 -0.0885
17051W        W34575  15.621  15.861  14.255 -0.2243 -0.0010 -0.1642
17052W        W34576   5.629  14.204   2.710 -0.4150  0.0238  0.2562
17053W        W34577   2.260  12.085   1.841  0.2524  0.1140  0.0057
17054W        W34578   5.033   1.299   0.764  0.0703 -0.1412  0.1319
17055W        W34579  11.941  12.297  12.441 -0.0457  0.3695 -0.0542
17056W        W34580   1.814   5.340   2.372 -0.0771  0.1422  0.0875
17057W        W34581  12.400   4.086  15.315 -0.1570 -0.0639 -0.0070
17058W        W34582  16.694  11.269   3.110  0.3087 -0.2282  0.1378
17059W        W34583   6.039   0.911   4.929  0.2470  0.1928  0.1236
17060W        W34584   6.850  15.800  15.991 -0.0217 -0.0557 -0.1291
17061W        W34585  16.119   6.466  14.337 -0.0456 -0.0792 -0.1944
17062W        W34586   5.052   4.324   2.958 -0.2697 -0.2482  0.0531
17063W        W34587  17.807  11.971  14.986 -0.0842 -0.3258 -0.2407
17064W        W34588   6.091   0.479  14.206  0.0082  0.0318  0.1865
17065W        W34589   1.155  14.108   2.430 -0.0147  0.1576 -0.2537
17066W        W34590  15.835   6.313  11.669 -0.1005 -0.1179 -0.1353
17067W        W34591   8.483   6.607   6.163 -0.1799  0.2694 -0.1314
17068W        W34592  14.733  13.678  14.397  0.1013 -0.1078 -0.2060
17069W        W34593  11.236  16.255   1.088  0.1169 -0.1639 -0.0302
17070W        W34594   2.445  14.372   1.820 -0.0104  0.1327 -0.2644
17071W        W34595  14.921  17.460   2.428  0.1114  0.3673 -0.0733
17072W        W34596  16.927   6.331   1.954 -0.0275  0.1481  0.1499
17073W        W34597   7.337  13.341  16.278  0.0323  0.1149  0.2250
17074W        W34598  11.031  16.922  16.158 -0.3638 -0.2456  0.0552
17075W        W34599   4.809  15.202   0.436 -0.1882  0.2922  0.2552
17076W        W34600   9.689   6.074  15.450 -0.1240 -0.1144 -0.0532
17077W        W34601   0.561   9.626  15.794 -0.0810 -0.1381 -0.0778
17078W        W34602  12.202   6.667   2.913  0.2001  0.1247  0.0066
17079W        W34603  13.548   8.147  15.265 -0.0204  0.1490 -0.1326
17080W        W34604   4.650   9.592  11.514 -0.0481  0.0124  0.2348
17081W        W34605  15.931  13.961  15.265  0.0052  0.0734 -0.3181
17082W        W34606  13.876   7.481  12.978  0.0672  0.1065  0.0807
17083W        W34607   8.000   2.841  12.573  0.0249 -0.0144 -0.0692
17084W        W34608  13.405  15.141  15.420 -0.0037 -0.0055 -0.1877
17085W        W34609  11.019   7.284  14.504  0.2328 -0.1547 -0.3181
17086W        W34610   4.807   0.571   4.051 -0.2404 -0.2666  0.3091
17087W        W34611  10.001  17.369   1.913 -0.0841  0.0094  0.0620
17088W        W34612   1.970   6.848   4.681  0.2503 -0.1399  0.0220
17089W        W34613  14.159  12.142   1.997 -0.0648 -0.2864 -0.2423
17090W        W34614   3.318  16.696  15.672  0.1010  0.0523  0.1519
17091W        W34615  10.274   8.503  13.088 -0.0561  0.1614 -0.1211
17092W        W34616   7.999   5.108   1.613 -0.0357  0.0455 -0.2210
17093W        W34617  12.106   0.048  11.831 -0.0030  0.1451 -0.0476
17094W        W34618   2.874  14.615   3.116 -0.1427  0.1377  0.0611
17095W        W34619   8.556  13.166  14.021 -0.1117 -0.1264  0.0401
17096W        W34620  13.053   4.503  11.325  0.1472  0.3494  0.2464
17097W        W34621   9.718   8.948  11.702 -0.1807  0.0755  0.0378
17098W        W34622  10.100   2.948  14.996  0.1410 -0.0796  0.1306
17099W        W34623  16.926  16.595  13.988  0.0864  0.0231  0.0008
17100W        W34624  11.842   9.697   2.808  0.0985  0.0936  0.1419
17101W        W34625   4.673   5.747  12.914  0.0660 -0.0870 -0.0141
17102W        W34626   9.172   1.646   3.456 -0.0904  0.2155  0.0129
17103W        W34627  12.837  13.201   2.378 -0.1134 -0.2867  0.0109
17104W        W34628   8.752  10.077  10.534 -0.0388  0.0764  0.3208
17105W        W34629  11.359  17.316   4.748  0.0760 -0.2042  0.0656
17106W        W34630   5.674  10.032   4.166 -0.2368 -0.1455  0.0341
17107W        W34631  11.358   5.331  13.723  0.1702  0.0378  0.0539
17108W        W34632  13.868  17.162  16.220  0.3328  0.2864  0.0044
17109W        W34633  12.082   4.067   2.873  0.0558  0.3931  0.1418
17110W        W34634   5.645  15.941   4.670  0.4586 -0.0321  0.1909
17111W        W34635  12.989   7.045   0.678 -0.0924 -0.1579 -0.2360
17112W        W34636   0.711  11.821   2.784  0.0276 -0.0388 -0.2246
17113W        W34637  16.363   2.351   3.841  0.2618 -0.1472 -0.0876
17114W        W34638  10.449   1.528   4.021  0.0474 -0.1537 -0.4320
17115W        W34639  10.061   6.805  13.646  0.3290  0.4152 -0.0565
17116W        W34640  15.773  14.773  13.239  0.2008 -0.1966  0.2319
17117W        W34641   3.672   3.776   4.049  0.1796 -0.0233 -0.0124
17118W        W34642   4.585   0.098   0.912 -0.0261  0.0158 -0.1235
17119W        W34643  11.279   2.340   2.171 -0.3044  0.0559 -0.2975
17120W        W34644  12.352   5.485   1.799  0.0066  0.0837 -0.1866
17121W        W34645  12.978  16.617  13.675  0.0729 -0.1102 -0.0292
17122W        W34646  12.654   8.193  12.133  0.1747  0.0517 -0.3364
17123W        W34647  12.345   6.202  13.281 -0.0952 -0.1486 -0.3617
17124W        W34648  11.710  15.810  15.972 -0.1609 -0.1984  0.1317
17125W        W34649   3.793  10.892  15.597 -0.1018  0.0500 -0.1496
17126W        W34650   5.686  12.867   2.627 -0.1982  0.0683 -0.2668
17127W        W34651  10.433  11.745  15.244  0.3034 -0.1822  0.0018
17128W        W34652  12.715  11.288  16.328  0.1911  0.0009 -0.1569
17129W        W34653  11.511  12.346   2.834  0.2334  0.1897 -0.0205
17130W        W34654   2.651   5.703   3.449 -0.1494 -0.4221 -0.0252
17131W        W34655   3.648  12.084  15.887  0.1792  0.0657 -0.1798
17132W        W34656   4.140   5.963  16.232 -0.0156 -0.1596 -0.2901
17133W        W34657   8.984   6.544   1.387  0.2694  0.1846  0.2790
17134W        W34658  10.430   1.185   5.346  0.3693  0.1789  0.2193
17135W        W34659  13.041   3.648  11.883  0.0884  0.0485  0.0130
17136W        W34660  15.623  17.630  11.969 -0.0819 -0.0358 -0.0381
17137W        W34661   0.826   3.320  15.235  0.0455  0.1702 -0.3393
17138W        W34662  11.202   6.928   0.336 -0.2286  0.0020  0.1027
17139W        W34663   0.008   9.403   2.382 -0.0086 -0.0738 -0.2071
17140W        W34664  11.555  16.749  11.621 -0.2836  0.3285 -0.1267
17141W        W34665   0.076   1.942  14.963 -0.4727  0.2090  0.0026
17142W        W34666   1.814   0.966   4.541 -0.3197  0.2271  0.1847
17143W        W34667   6.736   6.624   0.120  0.3044  0.2330 -0.0447
17144W        W34668  10.291  10.848  12.200 -0.0222 -0.0856 -0.4649
17145W        W34669  12.088   2.018   0.989 -0.3086  0.2658 -0.0304
17146W        W34670   8.666   2.612   0.412 -0.0327  0.1123  0.1742
17147W        W34671   1.597  16.528  15.651 -0.0665  0.1953 -0.2100
17148W        W34672   6.285   1.999   3.887 -0.0179  0.0445  0.1610
17149W        W34673   2.927   7.238  15.537  0.1638  0.0829  0.0375
17150W        W34674   6.490   4.176   2.266  0.3649 -0.0800  0.3337
17151W        W34675  15.713  11.860  14.572 -0.1225  0.1636 -0.0238
17152W        W34676   1.088  15.659   2.919  0.1150 -0.2420 -0.0561
17153W        W34677   7.225  10.280   2.184  0.2816 -0.3632  0.2101
17154W        W34678  10.061   8.066   4.780 -0.0187  0.0046 -0.1174
17155W        W34679  12.042  13.677   2.048 -0.0347 -0.1283 -0.1068
17156W        W34680   8.198  17.122   1.891 -0.0801 -0.0849  0.0342
17157W        W34681   3.862   2.755  13.031 -0.3984  0.1230 -0.2251
17158W        W34682   8.716   6.395   0.184 -0.0666 -0.2606  0.0060
17159W        W34683   6.570   9.326  15.653  0.1866 -0.0848  0.2837
17160W        W34684   9.737   6.093   5.194  0.0738 -0.1781 -0.1138
17161W        W34685  16.451   6.641  12.903  0.0331  0.0401  0.1667
17162W        W34686  14.496  15.640   2.719  0.2285 -0.3530  0.0962
17163W        W34687  14.174  13.690  13.563  0.0376  0.1000 -0.4055
17164W        W34688  17.399   5.038   1.316  0.0015  0.2128 -0.1697
17165W        W34689  13.507   9.686  12.106  0.3344  0.2700 -0.5862
17166W        W34690  15.840  12.288  15.954 -0.0251  0.1787 -0.3143
17167W        W34691   6.455  12.585   0.268 -0.3676  0.1317 -0.1084
17168W        W34692   5.244   3.850   2.608  0.2250  0.1172  0.0134
17169W        W34693   7.536   7.990   4.106  0.0768 -0.0589 -0.1012
17170W        W34694   7.747   0.270  13.152 -0.1952  0.1622 -0.0530
17171W        W34695   2.197   1.824   2.501  0.1959  0.0981 -0.1626
17172W        W34696   7.520   8.920   3.241 -0.4606  0.2445  0.0220
17173W        W34697   0.112   9.517  11.466 -0.2045 -0.0637  0.3303
17174W        W34698   0.260  17.463   0.273 -0.0489  0.0848 -0.0189
17175W        W34699  12.956   9.140  11.881 -0.4506 -0.1955 -0.0697
17176W        W34700  12.375   1.232  13.798 -0.0725  0.0681 -0.2289
17177W        W34701   4.905   6.428   0.435 -0.0496 -0.0518 -0.0185
17178W        W34702   2.013   7.499  16.419  0.2064 -0.1101  0.0799
17179W        W34703   2.094   8.356  15.597  0.0004  0.1051  0.0341
17180W        W34704   7.378   7.614   1.920  0.2929  0.1506 -0.1874
17181W        W34705  12.036   0.996   3.064 -0.0057  0.1017 -0.1455
17182W        W34706   3.842   2.289  12.871  0.0893 -0.1144  0.0748
17183W        W34707   4.978   9.211  13.339 -0.3045  0.6358 -0.1934
17184W        W34708   2.968  14.697   4.009 -0.4402  0.1028  0.1134
17185W        W34709   4.029   4.646   0.789  0.2208 -0.3110 -0.0660
17186W        W34710   3.786  12.767  14.499  0.0843  0.3908 -0.1405
17187W        W34711   4.398  12.869   4.513 -0.1968  0.0865 -0.0728
17188W        W34712   8.968  14.944   2.229  0.0216 -0.2596 -0.1349
17189W        W34713   3.472   0.548   3.780  0.0343 -0.2321 -0.2018
17190W        W34714  16.391  15.791   3.232  0.1168 -0.1568 -0.0657
17191W        W34715   7.902   4.811   1.252  0.0121  0.0956 -0.1208
17192W        W34716  13.432   3.610  14.014 -0.1150  0.0467 -0.4007
17193W        W34717  13.095   0.567   0.081 -0.2270  0.2611 -0.1116
17194W        W34718   0.852  11.447   0.031 -0.1120  0.1333  0.1514
17195W        W34719   4.458   5.221  15.669  0.0009 -0.0149 -0.0551
17196W        W34720   9.157  17.723   4.154  0.0798  0.3520 -0.2360
17197W        W34721   3.432   2.961   5.437  0.1131  0.0547 -0.0204
17198W        W34722  16.141  11.120  11.783 -0.2289  0.0753  0.2162
17199W        W34723   7.760   1.180   1.612 -0.0049 -0.2251  0.0948
17200W        W34724  17.410   9.931   3.886  0.1610  0.0528 -0.0312
17201W        W34725  16.563   1.568   1.609  0.3425 -0.1448 -0.2751
17202W        W34726   1.617  10.684  13.396 -0.2514 -0.0780  0.1525
17203W        W34727   2.656  14.015  16.012 -0.0993 -0.0523 -0.1534
17204W        W34728   8.028  11.456  16.117 -0.0599 -0.0122  0.1583
17205W        W34729   3.353   6.897  15.387 -0.2186  0.0648  0.0532
17206W        W34730  15.786   9.616  13.701 -0.0206 -0.3005 -0.2603
17207W        W34731  15.851   7.096  13.470 -0.0145 -0.0169 -0.1181
17208W        W34732   3.823  10.657  11.968 -0.1177  0.0780 -0.1543
17209W        W34733  17.287   2.027  16.145  0.0520  0.0469  0.3283
17210W        W34734   6.769   3.988  13.523 -0.1128  0.1519  0.2094
17211W        W34735   4.665  17.325  15.042  0.1472 -0.1974 -0.0075
17212W        W34736   4.364  17.108  12.843 -0.0174  0.2306 -0.1040
17213W        W34737   4.441   9.193   0.082  0.0022  0.4208  0.3841
17214W        W34738  15.811  14.353   0.141 -0.1116  0.0404  0.0343
17215W        W34739   4.877  10.395  13.899  0.0376 -0.0879  0.0993
17216W        W34740   6.019  16.399   0.072 -0.0183 -0.1791  0.1158
17217W        W34741   2.650   3.596  13.895  0.1088  0.0285 -0.1789
17218W        W34742   0.575   5.546  13.920  0.0546 -0.1216 -0.1057
17219W        W34743   4.232   1.012   3.075 -0.0575  0.1261  0.1712
17220W        W34744   0.213  17.890  14.667  0.0525 -0.0455  0.1262
17221W        W34745  13.260  12.158   3.811  0.1255  0.1674  0.2503
17222W        W34746   9.912  10.675  15.059  0.0851  0.1361  0.2181
17223W        W34747  11.269  15.454  15.228  0.0888  0.1920  0.0293
17224W        W34748  16.956   0.193   4.397  0.0601  0.2802 -0.2666
17225W        W34749   5.919   0.230  14.669  0.1014 -0.1270 -0.1321
17226W        W34750   2.264   2.196   5.995 -0.0971  0.1037 -0.4414
17227W        W34751  12.456   4.548  13.568 -0.3624 -0.2610  0.0716
17228W        W34752  13.499  15.706   3.205  0.0428 -0.2041  0.3021
17229W        W34753   9.262   2.007  11.848  0.2868  0.1231 -0.0888
17230W        W34754  14.128   7.427  13.897 -0.1069 -0.0574 -0.1078
17231W        W34755   7.846  12.217   1.483  0.0022 -0.4567  0.0469
17232W        W34756  12.068   7.092   4.536 -0.1807 -0.2424  0.0094
17233W        W34757   6.209   3.323   0.598  0.0573 -0.3716 -0.0742
17234W        W34758   5.130   9.407   0.951 -0.0292  0.0115  0.2453
17235W        W34759  17.386   0.377  16.464 -0.0844 -0.0831 -0.1425
17236W        W34760   0.627   1.956  14.149 -0.1980  0.0529  0.2325
17237W        W34761  13.536  14.394  14.680  0.0045 -0.1800 -0.4039
17238W        W34762   5.936   7.834   2.071  0.3337  0.1546 -0.0628
17239W        W34763   4.145   5.380   3.002 -0.1287 -0.5627 -0.2617
17240W        W34764  12.492   3.166   3.214 -0.1457 -0.0894 -0.1154
17241W        W34765   9.632   9.495   3.944 -0.0087  0.1273  0.0193
17242W        W34766   1.481  15.928   2.742  0.0448  0.0514  0.1459
17243W        W34767   8.903   6.504   2.431  0.0697 -0.1855 -0.0352
17244W        W34768  17.833   5.598  13.437  0.0339 -0.1439 -0.0202
17245W        W34769   7.051   1.193   3.833  0.0241  0.1532  0.0209
17246W        W34770   7.023  16.751   2.000 -0.1487  0.1419 -0.0821
17247W        W34771   2.651   3.111   4.790  0.1596 -0.1536 -0.1967
17248W        W34772   7.361   0.053  14.323  0.0293  0.0773 -0.4420
17249W        W34773   3.970  10.084   1.112 -0.1254  0.2629 -0.0090
17250W        W34774  17.327  15.453  15.237 -0.1636 -0.0813 -0.1741
17251W        W34775  16.690   3.820   1.020  0.2064  0.2615  0.0527
17252W        W34776  12.231   3.804  14.871 -0.2445  0.2054 -0.0466
17253W        W34777  15.496   9.993   0.972 -0.0428  0.1953 -0.0072
17254W        W34778  16.228   8.749   4.500 -0.0664  0.2377  0.0845
17255W        W34779   6.749  11.895  14.650  0.2819 -0.2594  0.2310
17256W        W34780  13.495   7.753   5.007  0.2484  0.0577 -0.0669
17257W        W34781  13.200  13.768  15.477  0.0747 -0.2231  0.0289
17258W        W34782   7.943   3.365  10.819  0.0759  0.0772 -0.0380
17259W        W34783   6.092  12.003   4.825  0.0714  0.0377  0.1193
17260W        W34784   7.237   0.472  15.220  0.0329  0.0307  0.3397
17261W        W34785   9.644   3.347   2.693 -0.2412  0.0446 -0.2735
17262W        W34786   0.863   2.607  12.400  0.0006  0.2181  0.0509
17263W        W34787  11.644   9.912   2.278  0.1197  0.0782  0.0305
17264W        W34788   4.312  14.135   3.894  0.2969  0.2445  0.0503
17265W        W34789  16.357   8.513   0.953  0.2628  0.0229 -0.1471
17266W        W34790  15.703   0.733   3.642 -0.1302 -0.0583 -0.3354
17267W        W34791  13.155  17.392  14.383  0.0823  0.0186 -0.2231
17268W        W34792   5.389   6.734  13.524  0.1900 -0.1092  0.2578
17269W        W34793  16.535   1.086  14.160  0.2793  0.1206 -0.0331
17270W        W34794   4.762  17.846   4.829  0.2379 -0.2160  0.1582
17271W        W34795   7.905  14.981   2.101  0.0575  0.0161 -0.1840
17272W        W34796   4.116   7.431   1.068  0.2548 -0.2649  0.0153
17273W        W34797   7.818   6.100   0.861 -0.1263  0.0426 -0.0332
17274W        W34798  16.771  14.800  12.309  0.1316 -0.2250 -0.1437
17275W        W34799   6.076  11.147  13.763 -0.2167 -0.0541  0.1776
17276W        W34800   6.637  10.074  12.529  0.0031  0.0674 -0.4407
17277W        W34801   9.364  17.227  13.869  0.3772  0.1750 -0.3955
17278W        W34802   5.746  14.069   3.261 -0.0874 -0.1862  0.1718
17279W        W34803   0.786  13.375  11.721  0.3051 -0.0442 -0.1987
17280W        W34804   1.328  13.563  11.511  0.0974 -0.2292  0.0740
17281W        W34805   5.556  15.728  12.530 -0.0447  0.0062 -0.2942
17282W        W34806  12.844   8.059   2.108 -0.2531  0.1598  0.0912
17283W        W34807  17.665  15.118  11.710 -0.0602  0.0103  0.3772
17284W        W34808   5.399   9.383  13.038 -0.1137 -0.0491 -0.0932
17285W        W34809  10.415   8.305  15.394  0.1978  0.2086  0.0682
17286W        W34810   7.916   8.087  15.307  0.0116  0.1125  0.0908
17287W        W34811   8.802  15.408   4.170 -0.0470 -0.0794 -0.2501
17288W        W34812   6.593  17.659  16.318  0.0408 -0.0052  0.2172
17289W        W34813   4.283   2.237   1.117 -0.0969  0.0509  0.2651
17290W        W34814  14.246   5.663   1.081  0.0246 -0.0057 -0.2079
17291W        W34815   2.238   0.307   5.123 -0.0979 -0.0687  0.2362
17292W        W34816   2.161   2.674   3.750  0.1188  0.0068 -0.0602
17293W        W34817   8.933   0.042   3.489 -0.1114  0.4268  0.1017
17294W        W34818   6.341  13.627  14.623 -0.3172 -0.1578  0.1795
17295W        W34819  16.165   7.815  14.313  0.2677  0.2182  0.0241
17296W        W34820  17.269  10.004  16.357  0.1477  0.0385 -0.0801
17297W        W34821   7.661  14.676   4.387 -0.1090 -0.1562  0.0954
17298W        W34822  12.086   7.860   1.746 -0.1042  0.2659  0.1526
17299W        W34823  17.959   2.810  15.007 -0.1180 -0.0880  0.1089
17300W        W34824   6.762  12.432   1.768  0.2464 -0.1207 -0.1709
17301W        W34825  13.481   7.029   2.903 -0.0760  0.2017  0.3740
17302W        W34826  17.257  16.695  12.011  0.3146 -0.0992 -0.2983
17303W        W34827   7.931   9.433  13.036 -0.1121 -0.0035  0.1252
17304W        W34828   3.407  14.638   0.016  0.2703  0.0824 -0.1742
17305W        W34829   7.857   1.927   0.249 -0.2612  0.1394  0.0362
17306W        W34830  17.309   4.710  13.803  0.0721  0.1030 -0.3567
17307W        W34831  14.415   5.825   4.319  0.3827 -0.0317 -0.3712
17308W        W34832   7.909  15.513   1.895 -0.1834 -0.2504 -0.0003
17309W        W34833   0.042  10.524   3.513  0.0827  0.0171  0.3535
17310W        W34834   2.004   3.741   4.414  0.0380  0.0602 -0.2876
17311W        W34835  17.249  10.294   4.749  0.0693  0.0892  0.0849
17312W        W34836   9.743   3.923  14.929  0.2863  0.1136  0.1311
17313W        W34837  11.991  17.186  12.590 -0.1711 -0.2871 -0.0961
17314W        W34838  12.431   0.833  15.771 -0.0777 -0.0579  0.1790
17315W        W34839   3.450   9.790   0.533  0.2010  0.1562 -0.0899
17316W        W34840   4.295  14.491  12.591 -0.1501  0.3139 -0.1375
17317W        W34841   3.116   3.228   1.624 -0.1954 -0.0326  0.1287
17318W        W34842  13.065   4.661  15.202 -0.1234 -0.0971  0.0501
17319W        W34843   7.261  13.165  12.110 -0.0758 -0.0868 -0.2228
17320W        W34844  12.866  13.210  13.077  0.0231  0.0615 -0.0184
17321W        W34845  12.636  17.487   0.951 -0.0056 -0.0418  0.0162
17322W        W34846   1.426   7.902  11.054 -0.1610  0.0464  0.3178
17323W        W34847  13.342   2.974   1.722 -0.1515  0.3210  0.1160
17324W        W34848   0.056   3.812   3.711 -0.0123  0.0718  0.2980
17325W        W34849  11.067   9.036  11.642 -0.1431  0.1629 -0.3058
17326W        W34850   8.912   9.345  12.898  0.3109  0.0036  0.4423
17327W        W34851   3.840  17.376  13.984 -0.2642  0.2354  0.2529
17328W        W34852   8.855  15.304  15.296 -0.1306  0.1298 -0.2223
17329W        W34853  15.688   4.344  13.904 -0.2243 -0.0004  0.0788
17330W        W34854  17.635   3.478   1.510  0.0037 -0.0478 -0.0225
17331W        W34855  14.254  15.759   0.868 -0.2879  0.4475 -0.1325
17332W        W34856   2.048  13.642  12.003 -0.0566 -0.2782  0.0910
17333W        W34857  15.285   6.538   2.691 -0.3907 -0.2563 -0.0224
17334W        W34858   8.392   6.807   1.811  0.3685 -0.3706 -0.0576
17335W        W34859   5.880  12.206  14.594 -0.4905  0.0242  0.1862
17336W        W34860  14.081   7.566  15.765  0.0327  0.0956  0.2166
17337W        W34861  17.760   3.826  15.582 -0.0335  0.2709 -0.0144
17338W        W34862   2.698  12.983  15.413 -0.0511 -0.1724 -0.2527
17339W        W34863  10.168  13.176   4.496 -0.1123 -0.0209 -0.1071
17340W        W34864  12.769  14.692  13.446  0.1756  0.4960  0.0398
17341W        W34865   9.235  16.525  11.854 -0.1130  0.3234 -0.0140
17342W        W34866   1.179   3.683   2.853 -0.1392 -0.2035  0.0347
17343W        W34867   5.381   4.916  15.115  0.2928 -0.1424 -0.1184
17344W        W34868  15.959  15.477  13.421  0.0673  0.0076 -0.0395
17345W        W34869  12.732   1.753   0.058  0.0607  0.1379 -0.1543
17346W        W34870   9.511   1.021  16.256 -0.1034  0.0869 -0.4563
17347W        W34871  16.565   1.253   5.200 -0.2828 -0.0713 -0.2440
17348W        W34872  13.090  11.421  12.968 -0.4228 -0.1101  0.3865
17349W        W34873  13.056  11.383  13.505 -0.0564 -0.0727 -0.0151
17350W        W34874   1.394  12.976   1.413  0.0566  0.2559 -0.1612
17351W        W34875  17.612  12.194  12.947 -0.0418 -0.1072  0.0136
17352W        W34876  15.586   3.374   0.535 -0.2138 -0.1202 -0.2162
17353W        W34877   5.687  13.737   0.767 -0.0211 -0.0685 -0.2999
17354W        W34878  15.644  16.591  15.815  0.1861  0.2699  0.0321
17355W        W34879   0.717   6.878   1.186  0.2279  0.0963 -0.2594
17356W        W34880  11.186  17.562  11.869  0.6547  0.2428  0.1281
17357W        W34881   2.481   7.396  13.089 -0.0362 -0.0684  0.1037
17358W        W34882  17.739   2.414  13.630 -0.1285  0.1709 -0.1052
17359W        W34883   8.708   4.991  14.407  0.0513  0.2662  0.2637
17360W        W34884  17.525   6.590  13.755 -0.3473 -0.1134 -0.1373
17361W        W34885  11.153   3.059  14.645  0.1681 -0.4061  0.1202
17362W        W34886   0.126  11.569   4.645 -0.0745 -0.3393 -0.2019
17363W        W34887  14.015   8.129   2.949  0.0228 -0.0999  0.0449
17364W        W34888   8.454   7.135  12.072 -0.1948 -0.1689 -0.1711
17365W        W34889   8.904   2.326  11.590  0.0682  0.0656  0.0193
17366W        W34890   6.116   1.356  16.050  0.1109 -0.1104  0.3963
17367W        W34891   5.154  14.622  11.428 -0.2766  0.0500 -0.2351
17368W        W34892  15.604  16.809  15.235 -0.2349 -0.0530 -0.0982
17369W        W34893  15.485   6.163  13.754 -0.0621  0.1710  0.0135
17370W        W34894   3.987  16.842   0.767  0.0599  0.0781  0.3497
17371W        W34895   5.363  11.630   3.515 -0.0017 -0.0707  0.0050
17372W        W34896  12.710  12.373  12.130  0.1562 -0.3487  0.2480
17373W        W34897  17.146   3.663  12.318 -0.5760  0.0174  0.1883
17374W        W34898   1.131   6.331   3.620  0.4701 -0.0329  0.2190
17375W        W34899   4.226   1.280  12.837 -0.0660  0.2101 -0.0359
17376W        W34900  14.968   1.978   4.724  0.3962 -0.2425  0.0573
17377W        W34901   6.819  16.642   2.599 -0.0049 -0.1026 -0.2136
17378W        W34902  17.456   6.269  14.140  0.0501 -0.0344 -0.1859
17379W        W34903  13.753   9.431   1.384 -0.3786 -0.0406  0.0240
17380W        W34904   9.057   8.420  11.753 -0.2974 -0.0635 -0.0323
17381W        W34905   5.324   9.558   0.029  0.0645  0.0232  0.0002
17382W        W34906  15.113   6.945  13.906 -0.0690  0.1286 -0.1347
17383W        W34907   0.724  16.264   3.458 -0.0385  0.0279  0.2973
17384W        W34908   4.389   9.254   1.690 -0.2821 -0.0650  0.1341
17385W        W34909   9.600   9.597  12.482 -0.2536 -0.0455  0.0514
17386W        W34910   8.450   3.027   1.886  0.1589 -0.1175 -0.0159
17387W        W34911   8.734   2.140  14.786 -0.1940 -0.0079 -0.3013
17388W        W34912   8.317   8.302   4.523  0.2525  0.0747 -0.0576
17389W        W34913   5.979  11.249   4.006  0.0987  0.1394  0.2688
17390W        W34914  14.870  12.526  16.181 -0.0334  0.2903 -0.2039
17391W        W34915  16.459   0.418   2.859 -0.0157 -0.3135 -0.3317
17392W        W34916  10.440   2.505   1.503  0.1091 -0.1857  0.1750
17393W        W34917   1.874  16.356   4.433 -0.1708 -0.0764 -0.3425
17394W        W34918   8.143   5.898   3.358 -0.0665  0.1572  0.1588
17395W        W34919   6.444  15.037  11.657 -0.1708 -0.1282  0.0163
17396W        W34920   2.952   0.996  12.653 -0.1327 -0.1755 -0.0562
17397W        W34921  17.233   9.083  11.502 -0.2690  0.0198  0.2701
17398W        W34922  15.171  17.702  12.686 -0.0569 -0.0326  0.1566
17399W        W34923   1.167   8.974   0.788  0.0942 -0.4099  0.1136
17400W        W34924   2.077   4.979  13.084  0.0984  0.2831  0.2719
17401W        W34925  13.433   6.924   0.517 -0.0897  0.1317 -0.1604
17402W        W34926  16.964   4.385   4.858 -0.0965  0.0231  0.0293
17403W        W34927  11.243  11.947  12.129 -0.0278 -0.0453  0.0813
17404W        W34928  14.283   6.732   1.806 -0.1174 -0.0972 -0.2156
17405W        W34929   5.797   4.547   4.717 -0.0981 -0.1833 -0.0016
17406W        W34930  15.967   1.067  15.815  0.0620  0.4779  0.0137
17407W        W34931   8.913  14.485  13.911  0.1358  0.0955 -0.1375
17408W        W34932   8.578  13.700   2.487 -0.1098  0.1274  0.2730
17409W        W34933   2.058   2.221  14.261 -0.3549  0.1823  0.1971
17410W        W34934   6.745  15.288   0.020  0.1356 -0.1464  0.2157
17411W        W34935   1.761  14.727   2.938  0.1611 -0.1446 -0.2757
17412W        W34936  17.123   3.219   4.195  0.0743  0.0183  0.3263
17413W        W34937   2.447   9.951  11.371 -0.1711  0.0290  0.0354
17414W        W34938  15.830   5.311  14.163 -0.2981 -0.0899 -0.1781
17415W        W34939  16.722  12.282  14.731 -0.3076 -0.0384  0.1497
17416W        W34940   7.779  11.395   1.792  0.1412  0.0764  0.0039
17417W        W34941  10.897  15.452   4.744  0.1541 -0.2513 -0.2504
17418W        W34942   3.458   6.911   2.813 -0.1748  0.1557 -0.4374
17419W        W34943  16.370  12.888  14.001  0.1085 -0.2273 -0.3708
17420W        W34944  17.286  14.096  15.598 -0.0115  0.1085 -0.0875
17421W        W34945   6.848   6.931   0.945  0.3827  0.0169 -0.1829
17422W        W34946   6.467   0.853   3.272  0.0998 -0.0436 -0.0081
17423W        W34947   2.310   4.759   1.906  0.2216  0.0415  0.0261
17424W        W34948  10.095   9.194   4.152  0.0538 -0.2875 -0.0198
17425W        W34949  12.792  10.000   5.015  0.0217  0.1886  0.0376
17426W        W34950  16.686  13.247  14.224  0.0957 -0.0163 -0.1432
17427W        W34951  13.505   9.317   4.456  0.0165 -0.0164  0.0613
17428W        W34952   3.314  12.886   2.736  0.1048 -0.2423 -0.0883
17429W        W34953   9.611   4.661  14.461 -0.1714  0.0903 -0.0552
17430W        W34954   1.367  15.228   2.016 -0.0601 -0.1003  0.2623
17431W        W34955  15.982   4.863  12.079  0.2829 -0.0319  0.2165
17432W        W34956  17.344  11.781  10.736  0.1288 -0.1219  0.0467
17433W        W34957   7.172   2.422  13.606 -0.1857  0.3111  0.1388
17434W        W34958  13.244   1.382  15.423 -0.0033 -0.0385  0.1004
17435W        W34959  10.145   1.635   2.755 -0.2305 -0.0488 -0.1717
17436W        W34960  11.862  12.942   5.636  0.0209  0.1514  0.0203
17437W        W34961   8.706  10.416   2.281 -0.1269  0.0898  0.1110
17438W        W34962  15.185  13.718  14.156 -0.4761  0.1034  0.0199
17439W        W34963   3.011   6.513   0.196 -0.2931 -0.0728  0.0575
17440W        W34964  14.279   9.895  15.051  0.1959  0.0123  0.1082
17441W        W34965   6.667  15.802  12.263  0.1522 -0.0327 -0.0729
17442W        W34966  17.939   0.628   4.043 -0.2239 -0.0373 -0.0004
17443W        W34967  14.068   3.436   2.321  0.3416 -0.2906 -0.1804
17444W        W34968   8.906  16.127   4.443 -0.1541  0.2729 -0.1549
17445W        W34969   7.483  12.211   1.008 -0.1387 -0.0416 -0.1717
17446W        W34970   2.255   5.270   2.101  0.1710  0.0926  0.0393
17447W        W34971   0.645  11.877   5.117 -0.3376 -0.1263 -0.2191
17448W        W34972   9.778  16.949  14.999 -0.0564 -0.0921 -0.1858
17449W        W34973  11.552  12.749   1.379  0.1849  0.1447 -0.2857
17450W        W34974  14.506   2.011   1.173  0.1338 -0.2107  0.1197
17451W        W34975   1.003   4.467  11.437 -0.0168 -0.0682 -0.0580
17452W        W34976   5.638   2.352  10.970 -0.2304  0.0469 -0.2690
17453W        W34977   2.868  17.617  13.986 -0.0186  0.2799 -0.0425
17454W        W34978   2.281  11.097  12.224 -0.0041  0.2246 -0.3011
17455W        W34979   5.759  13.805   1.293 -0.4024  0.1203  0.1318
17456W        W34980  14.748   5.515  14.946  0.2179 -0.1493  0.0084
17457W        W34981   8.872  16.873  15.289 -0.0957 -0.0197 -0.0256
17458W        W34982  14.048   1.220   1.849 -0.3696  0.1216  0.0762
17459W        W34983   6.893   9.877   3.575  0.0449 -0.0753  0.0416
17460W        W34984  13.203  14.917  13.490  0.1911  0.1605 -0.2348
17461W        W34985   9.349  11.174   1.950 -0.2342 -0.3139 -0.2555
17462W        W34986   9.095   6.855   4.184  0.0256 -0.0022 -0.0204
17463W        W34987  16.489  10.151   4.682 -0.1349  0.1418 -0.1393
17464W        W34988   2.463   7.959   3.657  0.0498  0.2365 -0.0990
17465W        W34989  16.129  11.549  13.593  0.1403 -0.1026  0.1858
17466W        W34990   8.124  14.797   4.500  0.1016  0.2732 -0.0531
17467W        W34991   2.165   6.434   4.906 -0.2039  0.2817 -0.3154
17468W        W34992   1.081  12.988   4.001 -0.0089 -0.0331  0.1433
17469W        W34993   3.128  13.624  13.767 -0.1252  0.0691  0.2167
17470W        W34994  12.553   1.543  15.492  0.1347  0.1037  0.1545
17471W        W34995  12.142   2.701  13.964 -0.2832 -0.1422 -0.0557
17472W        W34996  13.946  11.890   0.799 -0.0934 -0.2533  0.3177
17473W        W34997   9.812   4.537   0.749  0.3044 -0.0554 -0.0718
17474W        W34998  11.880  10.760   2.061  0.0620 -0.0841 -0.0176
17475W        W34999  10.399   9.028   3.253  0.1184 -0.7313 -0.2376
17476W        W35000   3.013   7.351   1.612 -0.1751  0.0398  0.4514
17477W        W35001   9.997   9.042  12.606 -0.3759 -0.0900 -0.1074
17478W        W35002   5.263   8.888  11.412  0.1651 -0.0912  0.1052
17479W        W35003  15.466   3.245   4.969  0.1205  0.1274  0.0991
17480W        W35004   1.191   8.559   0.601  0.0772  0.1109  0.0234
17481W        W35005   5.148   7.183   0.923 -0.1307  0.1584  0.0016
17482W        W35006  13.086  12.024  12.822  0.0205  0.1127 -0.0485
17483W        W35007  12.790  17.394  15.875  0.3360 -0.5233  0.3002
17484W        W35008  11.503   3.504   3.925 -0.0399  0.0870  0.0973
17485W        W35009   6.734   8.234   3.036 -0.1294  0.0172 -0.0471
17486W        W35010   3.523   2.991  15.361  0.0966 -0.0229  0.0679
17487W        W35011   0.935  15.804   5.241 -0.0922 -0.4910 -0.0715
17488W        W35012  14.172   9.078  11.584  0.0472 -0.2887  0.0413
17489W        W35013   0.683   5.898   4.512 -0.1965  0.0606 -0.0468
17490W        W35014   7.691  15.209   2.774  0.4256 -0.0890  0.0166
17491W        W35015   1.254   1.205  12.318  0.2227  0.0916 -0.0557
17492W        W35016  16.353   3.449  12.896  0.0747  0.0695  0.2465
17493W        W35017   7.254  11.794  15.757  0.0322  0.0037 -0.1688
17494W        W35018  14.332   8.428   4.031 -0.1358  0.0209 -0.2026
17495W        W35019  10.270   4.662   1.574  0.1302 -0.0588  0.2670
17496W        W35020   1.196   4.958  12.648  0.0896  0.0708 -0.1771
17497W        W35021  17.197   1.185   4.440  0.0731 -0.2661 -0.0435
17498W        W35022  13.523   6.951  11.707  0.3303  0.1381 -0.1652
17499W        W35023   0.442  17.118  15.285  0.1826 -0.1021 -0.0175
17500W        W35024  15.723  10.868   5.386 -0.1718 -0.1314 -0.3677
17501W        W35025   8.360   2.330  12.331 -0.1229  0.0685 -0.0206
17502W        W35026  14.180  10.457  11.881 -0.1160  0.3416  0.2310
17503W        W35027   6.558   3.014  11.461 -0.0355 -0.1760  0.0907
17504W        W35028   2.704  15.392  12.601 -0.2362 -0.0311 -0.0679
17505W        W35029   8.351   5.189  15.376  0.0602 -0.1374 -0.3490
17506W        W35030  17.250  13.596  12.037 -0.2258  0.0459  0.0192
17507W        W35031   0.488   0.161   5.546 -0.0848 -0.1769  0.1181
17508W        W35032   5.681  12.730   4.171 -0.0782  0.1059  0.2186
17509W        W35033  17.129   8.587   1.332  0.2331  0.0142  0.3711
17510W        W35034   8.069  10.377  14.206  0.0901  0.1942 -0.0419
17511W        W35035   4.902   4.893   4.837 -0.0114 -0.3108 -0.1441
17512W        W35036  11.809   4.110   3.335 -0.0359  0.0361 -0.0788
17513W        W35037   5.834   6.095  12.223  0.0645 -0.0131  0.2598
17514W        W35038  17.868  15.186   0.907 -0.1029 -0.0443  0.0078
17515W        W35039   3.852  10.509   0.747 -0.0894 -0.2143  0.0312
17516W        W35040  12.514   4.752   4.460 -0.1008 -0.0327  0.0676
17517W        W35041  17.376   2.518   3.158  0.0071  0.1289  0.0351
17518W        W35042  14.959  15.029   0.772 -0.1215 -0.0317  0.2686
17519W        W35043   5.879   3.245   4.730 -0.1614 -0.1126  0.2216
17520W        W35044   2.217   6.225   0.507 -0.0425 -0.0451  0.0870
17521W        W35045   0.048   0.345  14.505 -0.1120  0.1439 -0.0624
17522W        W35046  14.781   3.360   3.656 -0.1249  0.1320  0.0427
17523W        W35047   2.284   8.087   3.232  0.1311 -0.2448  0.1765
17524W        W35048  14.871   3.865   1.291 -0.2765 -0.3624 -0.1274
17525W        W35049  12.458   6.480   4.018  0.0087 -0.0114  0.0304
17526W        W35050  16.603  17.154   3.371 -0.2476 -0.2089  0.0896
17527W        W35051  11.296  11.409   0.481 -0.1454 -0.1648  0.1081
17528W        W35052   9.819   6.394   1.986 -0.0176  0.1343  0.0824
17529W        W35053  17.060   1.246   2.280 -0.1874  0.1744 -0.2174
17530W        W35054  14.408  16.697   0.574 -0.1345 -0.4289 -0.1961
17531W        W35055   0.382   5.247   3.323 -0.2711  0.0636 -0.2964
17532W        W35056  11.049   6.508  11.957 -0.2829  0.0690  0.1013
17533W        W35057  12.370   8.374  16.090 -0.3366  0.0735  0.1042
17534W        W35058  17.407   4.556   0.120 -0.0288  0.0838 -0.0899
17535W        W35059   6.709  16.730   0.956  0.0216  0.2012  0.1180
17536W        W35060  10.376  16.562  11.854 -0.1959  0.0066  0.2222
17537W        W35061   8.985  12.302   5.026 -0.1270  0.1068 -0.1755
17538W        W35062  15.278   8.035  11.517 -0.3095  0.3856  0.2520
17539W        W35063   1.614  15.790   1.686 -0.1043  0.1444 -0.0649
17540W        W35064   5.588  17.584  15.217  0.0088  0.0450  0.1380
17541W        W35065   9.950   1.825  12.988 -0.2256 -0.2810 -0.1861
17542W        W35066  15.547  15.006   4.357 -0.1040 -0.2349  0.4280
17543W        W35067   7.006  10.077   3.120 -0.5734  0.0601  0.2384
17544W        W35068   1.230   5.316   3.191  0.0410 -0.0504  0.2540
17545W        W35069  12.568  14.357   2.448 -0.1543 -0.1729 -0.0331
17546W        W35070   9.428  13.771  11.652 -0.1246  0.0841  0.3522
17547W        W35071   2.651   9.815   0.981 -0.0030 -0.1197  0.0358
17548W        W35072  16.985  14.720   3.044  0.0383 -0.1198 -0.0601
17549W        W35073  16.131  12.806  12.757 -0.0957  0.2656 -0.1642
17550W        W35074   7.870  10.982  14.761 -0.1243 -0.2390  0.2541
17551W        W35075   2.961   4.024  11.789 -0.0520  0.0236 -0.1896
17552W        W35076  17.479   8.027   3.997 -0.3104 -0.1184 -0.2079
17553W        W35077  10.131   5.783   4.296  0.1205  0.2901 -0.0350
17554W        W35078  10.075  16.010   4.805  0.0894 -0.0242  0.2682
17555W        W35079   5.592   0.192  12.230 -0.1083  0.1947 -0.2659
17556W        W35080   2.524  11.071   2.270 -0.3526  0.0739  0.0627
17557W        W35081   1.076  12.294   0.697  0.2796 -0.2639 -0.3448
17558W        W35082  13.093   0.287   1.432  0.4394 -0.1658  0.0491
17559W        W35083  12.445   7.978  14.367 -0.2053  0.0153 -0.0034
17560W        W35084  13.300   8.627  13.371  0.4940 -0.1234  0.0039
17561W        W35085  10.476  12.465  13.412  0.0965  0.2135  0.2144
17562W        W35086  12.703   1.672  12.657 -0.0460  0.0675  0.0636
17563W        W35087   3.771   3.423  15.261 -0.0043 -0.1493 -0.1108
17564W        W35088   8.898  13.014   2.231 -0.1880  0.2042 -0.0501
17565W        W35089   8.212  12.511   1.251  0.1634 -0.0791 -0.1591
17566W        W35090   6.937  14.111  14.033  0.0872 -0.0627 -0.0488
17567W        W35091  16.697  15.878   0.813  0.2427 -0.0428  0.4141
17568W        W35092   0.598   5.120   0.710  0.0400  0.0266 -0.1199
17569W        W35093  14.431  10.924   0.048  0.2017 -0.1640  0.2754
17570W        W35094   6.785  12.574  15.180  0.0443 -0.0631 -0.1882
17571W        W35095   7.942   3.149   2.146  0.1655 -0.2114 -0.0840
17572W        W35096   3.364   6.111   2.443 -0.1525  0.0246  0.2315
17573W        W35097   4.573   2.158  16.135  0.0443 -0.0066  0.3038
17574W        W35098  12.495  15.180   4.638  0.4364  0.0890  0.0561
17575W        W35099   3.461  17.245  12.747 -0.0454  0.0386 -0.2724
17576W        W35100  12.015   5.667  14.967  0.2007  0.0040 -0.1398
17577W        W35101  12.013   1.108  15.786  0.0541  0.3006 -0.2708
17578W        W35102   3.364   5.501  16.443  0.1785 -0.0414 -0.0633
17579W        W35103   4.299  13.598  16.150 -0.0302  0.0896  0.2883
17580W        W35104   6.139   9.136  15.495  0.1049 -0.2978 -0.1427
17581W        W35105   9.821  10.174  14.967 -0.0228 -0.1904 -0.1702
17582W        W35106  10.560   0.910  12.759 -0.1598  0.0173  0.2144
17583W        W35107   1.217   0.305   4.237 -0.0637  0.2191  0.1939
17584W        W35108  14.867   0.173  11.879 -0.3483  0.0602  0.0903
17585W        W35109   8.694  11.713  12.483 -0.3162 -0.1853  0.3145
17586W        W35110  15.689  17.860   2.029  0.0224 -0.3409 -0.0558
17587W        W35111  16.501   5.978  11.316 -0.0886 -0.0385  0.0217
17588W        W35112  15.789  14.003  16.259  0.0173  0.1271  0.0608
17589W        W35113  15.343   4.825  13.812  0.0501  0.0615  0.0871
17590W        W35114   2.169   1.043   1.958  0.2381 -0.1819  0.0678
17591W        W35115  17.702  10.778  11.105 -0.1793 -0.1699  0.0004
17592W        W35116  12.708   9.214  15.064  0.0829 -0.0166  0.0333
17593W        W35117  10.906   7.426  11.718 -0.3052  0.0451  0.1753
17594W        W35118  15.234  10.411   4.677 -0.2058 -0.3783 -0.0101
17595W        W35119   2.206  12.739  12.344  0.0191  0.2269  0.2585
17596W        W35120   8.296  12.301  15.258 -0.1657  0.3319  0.0852
17597W        W35121   9.185  10.340   2.157 -0.0537 -0.2718 -0.2060
17598W        W35122  10.890   8.764   2.592  0.1645 -0.3000 -0.3897
17599W        W35123   2.883  14.146   1.852 -0.0442  0.3299  0.0187
17600W        W35124   1.446   0.958  13.233 -0.2185  0.0963 -0.2133
17601W        W35125  15.093   4.211  15.436 -0.1122  0.1768  0.0520
17602W        W35126   8.236  14.698  15.088 -0.0000  0.1374  0.1340
17603W        W35127  10.401  15.772   0.912 -0.0970 -0.2651 -0.1173
17604W        W35128  16.736   3.634  11.927  0.2224  0.0117  0.1741
17605W        W35129  12.940   2.124   4.663  0.0268  0.2032  0.0250
17606W        W35130  14.376   6.763   3.236 -0.1608 -0.1040  0.0214
17607W        W35131   6.979  14.222   3.588 -0.2063  0.3249  0.0482
17608W        W35132   7.326  10.060   5.112  0.0529 -0.0499  0.1167
17609W        W35133  12.121  12.425  13.249 -0.2470  0.2367 -0.2624
17610W        W35134  15.258   3.930   3.964 -0.0158 -0.0405  0.2015
17611W        W35135  13.203   8.799   2.908  0.2103  0.2041  0.0203
17612W        W35136   5.403   1.878  14.069  0.0225 -0.2207  0.0639
17613W        W35137  11.015  10.671   3.200  0.0826  0.1238  0.2031
17614W        W35138  11.861   8.440   1.893  0.0331  0.2500  0.0349
17615W        W35139  16.779   1.257  16.029  0.1859  0.0264  0.1650
17616W        W35140  10.818  10.925   1.027  0.2070  0.5154 -0.0453
17617W        W35141   9.222  14.111   0.788 -0.2517 -0.1941 -0.3060
17618W        W35142  13.216  17.030  13.004  0.0022 -0.0719 -0.0376
17619W        W35143  11.809   9.792  15.750 -0.2980 -0.0495  0.1642
17620W        W35144  12.922   9.977   4.023 -0.0922  0.2127  0.4853
17621W        W35145   3.070   8.112  15.488 -0.0359  0.2442 -0.1286
17622W        W35146  13.081  14.260  14.652  0.0708 -0.2805 -0.0728
17623W        W35147  15.462   8.059   0.388 -0.0343 -0.1167 -0.3122
17624W        W35148  15.924   4.875   2.017 -0.0075  0.0746  0.1115
17625W        W35149   9.608  12.801  13.260 -0.0424  0.4218 -0.3486
17626W        W35150   8.398   4.398   4.785  0.3142 -0.0704 -0.0374
17627W        W35151   6.683   0.262   0.769 -0.0659 -0.1166 -0.0844
17628W        W35152   9.449  13.826   0.438  0.1401 -0.0042 -0.3016
17629W        W35153  13.296   0.360  13.186  0.2145 -0.1763  0.0632
17630W        W35154  13.632  17.929   3.763  0.0109 -0.0715 -0.0215
17631W        W35155   4.308  14.413  12.070  0.0541  0.3795 -0.1058
17632W        W35156  11.686  14.480  14.957  0.1880 -0.0957 -0.0139
17633W        W35157  13.038   5.572   3.475  0.0852 -0.3049 -0.1793
17634W        W35158   5.318  14.236  13.000 -0.3503 -0.2253 -0.3384
17635W        W35159   4.687  14.369  15.037 -0.1152 -0.1388  0.1030
17636W        W35160   3.723   1.012  13.990  0.2037 -0.2211 -0.0080
17637W        W35161   9.004   5.485   0.626 -0.1634 -0.0996 -0.0766
17638W        W35162  11.736  14.997   1.695  0.2762  0.2121 -0.1758
17639W        W35163   9.152   3.526   1.724 -0.2280 -0.0055 -0.5304
17640W        W35164  15.083   0.743  15.392 -0.1571  0.1707  0.0901
17641W        W35165  15.237   8.948   1.928 -0.1228 -0.0562 -0.1162
17642W        W35166   8.851   8.229   0.865  0.4044  0.0284  0.1825
17643W        W35167  10.173   7.819  12.997  0.0536 -0.0603 -0.0899
17644W        W35168   6.122  15.963  15.356  0.1803  0.2330 -0.0053
17645W        W35169   3.093  15.571  14.429 -0.1049  0.1709  0.0445
17646W        W35170  15.793   2.398   0.460 -0.3311  0.0641  0.0140
17647W        W35171   9.632   6.367  16.131 -0.0334  0.0795 -0.0423
17648W        W35172   2.479   7.909   4.895 -0.2018 -0.0068  0.0742
17649W        W35173  17.814  14.177  15.733 -0.0587 -0.1099  0.1111
17650W        W35174   1.884   0.844   3.588  0.2741 -0.0321  0.1399
17651W        W35175   5.121   8.592   0.290 -0.2585  0.1931 -0.1540
17652W        W35176   4.075   7.235   4.950  0.1984 -0.0645  0.0509
17653W        W35177  14.862  13.315  14.824 -0.0269  0.0088 -0.1870
17654W        W35178   9.454   7.782  13.421 -0.2948  0.0875 -0.0719
17655W        W35179   4.808  17.934   2.581  0.1249  0.1997  0.0830
17656W        W35180   3.162  13.970   0.825  0.0009  0.2193 -0.0432
17657W        W35181   2.232   0.837  12.052  0.0231  0.1470 -0.1478
17658W        W35182  12.597  17.084   3.028 -0.2243 -0.0670  0.0897
17659W        W35183   6.544   0.013   4.202  0.0167 -0.2986  0.0931
17660W        W35184   8.939   6.547  12.709  0.3996  0.0761  0.0815
17661W        W35185   7.336  10.867  14.651  0.0061 -0.1643 -0.2336
17662W        W35186   9.404  17.276  15.003 -0.3180  0.4337 -0.0237
17663W        W35187  17.220  14.318   3.401 -0.1510 -0.1362  0.0389
17664W        W35188  10.440   7.821   1.468 -0.0516 -0.2020  0.0136
17665W        W35189   7.035   2.936   1.666 -0.3579  0.1747  0.0211
17666W        W35190  15.112   7.734   4.935  0.1278 -0.0264 -0.1239
17667W        W35191  16.336  15.400   1.285 -0.0788  0.0989  0.1423
17668W        W35192   1.394   4.815  15.612 -0.1311  0.0885 -0.0310
17669W        W35193   0.659   2.360   6.207  0.3485 -0.2017  0.2452
17670W        W35194   1.191  11.632  13.375  0.2888 -0.2331 -0.1587
17671W        W35195   9.334   4.752  16.249 -0.0498 -0.0237 -0.2998
17672W        W35196   4.009   3.476  11.789  0.2921  0.4662  0.0034
17673W        W35197   6.103  13.588  15.729 -0.0573  0.2854  0.2450
17674W        W35198   0.158  10.997  13.978 -0.0218 -0.0291  0.0235
17675W        W35199   7.568   4.698   4.398 -0.0739 -0.1633  0.2275
17676W        W35200  15.511  16.445   5.993  0.2003  0.2469  0.2495
17677W        W35201  10.874   1.925   4.744  0.1067  0.3285  0.1535
17678W        W35202   7.192   1.983  15.812  0.0395 -0.1007  0.2232
17679W        W35203  16.628   9.292   3.047 -0.2612 -0.1579  0.2546
17680W        W35204   6.726  16.276  12.066 -0.0411 -0.0031 -0.1573
17681W        W35205  11.839  17.476   5.511 -0.2569 -0.2165  0.2218
17682W        W35206  17.300  11.307  12.754  0.1484  0.0527 -0.1881
17683W        W35207  15.450   0.097   0.252  0.0070  0.1361 -0.1524
17684W        W35208  16.112   7.040   4.354 -0.1705 -0.1786 -0.0505
17685W        W35209   2.688  14.425   5.040  0.2356  0.1193 -0.2679
17686W        W35210   6.212  10.688  13.333  0.0665  0.1222  0.1465
17687W        W35211  14.994   3.239   2.311  0.1692 -0.0846  0.1760
17688W        W35212   0.475   2.651   4.141 -0.2869 -0.0703  0.2557
17689W        W35213  14.685   8.314  14.841  0.5497 -0.1315 -0.0630
17690W        W35214   6.776  13.749  12.110  0.3005 -0.0473 -0.0102
17691W        W35215  16.989   0.170  16.158 -0.1012  0.2547  0.2202
17692W        W35216   6.590  14.897   2.995  0.0139 -0.1623  0.0457
17693W        W35217  11.743  11.561   0.788 -0.0265 -0.3139  0.2153
17694W        W35218   0.570   2.897  13.138  0.0680  0.0125  0.0058
17695W        W35219  13.401  15.068  12.549 -0.0676  0.1220 -0.1555
17696W        W35220   1.958   6.428   1.571  0.1126  0.1870  0.2154
17697W        W35221  12.456   4.086  12.715 -0.3501  0.1755 -0.0249
17698W        W35222  16.414  10.111   2.538  0.1610 -0.2474 -0.0598
17699W        W35223   3.677  16.695  13.016 -0.1304 -0.3384  0.1957
17700W        W35224  12.196   9.864  12.729 -0.0559  0.0850 -0.5054
17701W        W35225   2.724   1.716   3.896 -0.0480  0.0032 -0.0894
17702W        W35226  11.861  14.578  14.445 -0.2544  0.2022 -0.2700
17703W        W35227   0.950   0.106  16.281 -0.0371 -0.3242 -0.0115
17704W        W35228  16.798   2.489  13.768 -0.0599 -0.1284 -0.1988
17705W        W35229   3.309   3.746  14.006 -0.1252  0.4033 -0.2590
17706W        W35230   6.386   2.264   3.427 -0.1385 -0.0712  0.0157
17707W        W35231   4.406   8.228   3.887 -0.4063  0.0260 -0.1745
17708W        W35232  12.766   5.414   4.818  0.1295 -0.0325  0.0078
17709W        W35233   1.210   6.939   1.420  0.1351 -0.0139  0.1108
17710W        W35234  11.677   8.753  14.541 -0.0051 -0.1411  0.2269
17711W        W35235  17.513   6.504   2.913  0.1830 -0.1129 -0.1258
17712W        W35236   9.458   5.571  14.132  0.4128  0.0052  0.0078
17713W        W35237  15.188   5.278   0.285 -0.3581 -0.1405  0.0294
17714W        W35238  15.459   5.050   1.096  0.0167  0.0117 -0.0387
17715W        W35239   8.624   7.159   0.086 -0.0122 -0.2074 -0.0550
17716W        W35240   9.952   9.984   3.900 -0.2932 -0.1521  0.0417
17717W        W35241  10.158  14.779  11.710 -0.0538  0.0337  0.0248
17718W        W35242   8.877  14.292   4.617 -0.1768  0.0053 -0.1024
17719W        W35243   4.919   8.125  12.724  0.1206 -0.2301 -0.0147
17720W        W35244   9.945   6.540   1.473  0.0665 -0.0956  0.2685
17721W        W35245   0.308   0.918   3.706 -0.2187  0.1990 -0.2165
17722W        W35246  13.636  11.471   0.087  0.1151  0.0549 -0.1186
17723W        W35247   0.099   9.071   1.982  0.0764  0.2176 -0.0474
17724W        W35248  15.007   4.777  14.537 -0.0740  0.0004 -0.1417
17725W        W35249   6.017   7.175  15.939  0.0505  0.1617  0.2157
17726W        W35250   8.387   5.415  12.123 -0.0705  0.3997  0.2736
17727W        W35251   1.550  16.140  12.323 -0.0512 -0.0139  0.1866
17728W        W35252   0.267   2.506  14.540  0.0064 -0.0091  0.2738
17729W        W35253   8.389   3.664   2.118  0.1387 -0.2619  0.1082
17730W        W35254   6.473   9.994  14.415  0.0354 -0.1305  0.2871
17731W        W35255  16.437  10.910  16.032  0.1342  0.2809 -0.1793
17732W        W35256   7.844   5.554   3.929  0.4109 -0.2156  0.1341
17733W        W35257  13.081   7.339  12.465 -0.3299  0.0090 -0.1376
17734W        W35258  17.404  15.520  16.328 -0.0321  0.2018  0.0601
17735W        W35259   1.199  16.201   2.286  0.2613 -0.2451 -0.0595
17736W        W35260   5.303   5.060   2.183 -0.2485 -0.3291 -0.1499
17737W        W35261  16.024  11.985  12.359 -0.0375 -0.3798  0.2197
17738W        W35262  16.721   1.717   3.114 -0.0121 -0.1810  0.4796
17739W        W35263  12.237  12.313  14.055  0.0456  0.3457 -0.0866
17740W        W35264   9.804  11.311   2.214  0.0658  0.4463 -0.0119
17741W        W35265  13.782  12.703  14.463  0.0017 -0.0836 -0.3924
17742W        W35266  10.059  11.464  14.471  0.0925 -0.0839 -0.1986
17743W        W35267   3.800   5.041   3.793  0.2176 -0.2230  0.2849
17744W        W35268  12.084  14.623  13.971 -0.1033  0.0159 -0.2928
17745W        W35269  17.227  16.293   4.074  0.1883  0.0522  0.0595
17746W        W35270  12.137  15.334   1.949 -0.2263  0.3237 -0.1334
17747W        W35271  15.710  14.537  16.155 -0.2357 -0.0466 -0.0776
17748W        W35272   0.053   1.212   3.109 -0.2642 -0.2307 -0.0315
17749W        W35273   2.913  16.970  14.785  0.0886  0.1112  0.0860
17750W        W35274   1.872   6.312  11.648  0.0902  0.2029 -0.1501
17751W        W35275   0.966   4.153  16.422  0.1563 -0.1038 -0.0287
17752W        W35276   2.469   2.429   1.374 -0.2503  0.2212 -0.0711
17753W        W35277   1.200   9.605   3.923 -0.1195  0.0178  0.0680
17754W        W35278   7.594   3.104   2.833  0.1685  0.0871  0.1849
17755W        W35279  16.240   6.298  16.120 -0.0329  0.1982  0.3429
17756W        W35280  17.273  10.115  14.117  0.1812 -0.0781  0.3801
17757W        W35281   3.339   2.074  15.970  0.0677 -0.3387  0.2629
17758W        W35282   5.862   1.023  14.562  0.4082  0.0700 -0.1673
17759W        W35283   4.389   0.017   0.153 -0.1326  0.0743  0.1418
17760W        W35284  11.294  14.543   3.376 -0.1103  0.0701 -0.1205
17761W        W35285   2.171  11.851  13.360  0.0792  0.2597  0.1273
17762W        W35286   6.425   9.445  14.542 -0.0594 -0.0111  0.1606
17763W        W35287   5.372  15.180  13.409 -0.0140  0.0628 -0.1412
17764W        W35288   1.974  10.962   3.651 -0.1356  0.1444 -0.0725
17765W        W35289  13.902  17.315   0.728 -0.1772  0.2594  0.0875
17766W        W35290   5.633  10.843  13.657  0.0001 -0.1956 -0.0098
17767W        W35291   5.113  11.043  14.299  0.0056 -0.1871 -0.0380
17768W        W35292   1.263   7.467  10.921 -0.1076 -0.2147 -0.2725
17769W        W35293   6.856  11.731  15.546 -0.1364 -0.1185 -0.0931
17770W        W35294  17.481  12.099   0.099 -0.0693  0.2344  0.2195
17771W        W35295  11.730  13.886  11.701  0.3249  0.1937 -0.1998
17772W        W35296  17.760   4.438  15.787  0.1546  0.2938 -0.2601
17773W        W35297  15.311   9.575   0.715  0.1175 -0.0638 -0.1296
17774W        W35298  17.888  12.972  13.057 -0.0218  0.0237 -0.0366
17775W        W35299  11.955   9.304  11.711 -0.2689 -0.0161  0.3465
17776W        W35300  14.530  14.302   2.637  0.1109  0.0669  0.0864
17777W        W35301  12.112  17.906  12.607  0.1348 -0.1538  0.0674
17778W        W35302   1.416   2.440   1.102 -0.2101 -0.1402  0.1621
17779W        W35303  14.439  12.262  14.055 -0.1733  0.0648  0.1937
17780W        W35304   4.291   2.744   3.546 -0.1447  0.1260  0.2324
17781W        W35305   8.255  11.345   3.144  0.1489 -0.0752  0.3554
17782W        W35306  15.181   9.814  11.813 -0.0166  0.0879  0.0539
17783W        W35307  17.809  14.256  16.220 -0.0883 -0.3566 -0.1069
17784W        W35308   5.115  11.613  12.045  0.1131 -0.0864  0.3351
17785W        W35309  15.573  12.823   2.092 -0.0678  0.2388 -0.2969
17786W        W35310  16.803  13.901   0.210 -0.2745 -0.2587  0.0954
17787W        W35311   1.885  16.698   2.843  0.0751 -0.1552 -0.0815
17788W        W35312  14.315  15.035   4.956 -0.1696  0.4201 -0.1951
17789W        W35313  16.609   5.757   4.990 -0.0499  0.4617 -0.2130
17790W        W35314   5.961  12.389  15.733  0.0967 -0.3051 -0.1254
17791W        W35315   0.223  15.973  13.813  0.2375 -0.0402  0.2239
17792W        W35316   6.733   4.581   1.911 -0.1304 -0.2176  0.0843
17793W        W35317  14.975  15.030  14.299  0.0588 -0.3512 -0.0221
17794W        W35318  11.256   4.616  15.010 -0.1316  0.0880  0.0612
17795W        W35319  15.043  16.111   1.072 -0.0357 -0.3616 -0.1248
17796W        W35320   7.914  13.106  11.766 -0.0706 -0.2040  0.0662
17797W        W35321   2.756   6.862  11.971 -0.2728  0.2389  0.2062
17798W        W35322   9.272   2.810  12.386 -0.0212  0.0356  0.1649
17799W        W35323   3.375   5.696   2.690  0.2508  0.1924  0.2467
17800W        W35324   5.914  16.624   5.477  0.0461  0.4094 -0.2227
17801W        W35325   0.275   6.442  15.841  0.0810 -0.1678 -0.1914
17802W        W35326  13.509   7.452  14.436 -0.1891  0.1545  0.1721
17803W        W35327  15.359   6.373   4.330  0.0586 -0.0763  0.1823
17804W        W35328  11.934   4.844  12.393  0.2077 -0.1138 -0.2681
17805W        W35329   0.131  14.523  12.778  0.1356  0.3450  0.0225
17806W        W35330  16.234  12.118  14.046 -0.1387 -0.0949 -0.0333
17807W        W35331  12.680  10.197   2.644 -0.0758 -0.1632 -0.2697
17808W        W35332   2.076  11.374  12.996  0.0573 -0.2090  0.2651
17809W        W35333   6.459   6.871   3.345  0.1240  0.0775  0.0322
17810W        W35334   1.117  12.623   2.390  0.1759 -0.0834  0.1712
17811W        W35335  13.958  17.648  16.341  0.2708  0.2397 -0.2521
17812W        W35336   1.043   0.750   2.380  0.1677 -0.0932 -0.0197
17813W        W35337   2.028  10.116   2.089 -0.1651  0.0038  0.1811
17814W        W35338  17.190   2.261  13.721  0.0416 -0.0535  0.1456
17815W        W35339   6.649   7.346   0.814  0.0477  0.0433 -0.0837
17816W        W35340   9.396  17.444  12.032  0.1370  0.1375  0.1331
17817W        W35341   7.347  12.940  11.515  0.0959 -0.0129  0.3478
17818W        W35342   3.201  13.019   3.252  0.3096  0.0846  0.1778
17819W        W35343  10.045  11.803   5.307 -0.0182  0.0870 -0.0619
17820W        W35344   6.818   9.072  15.994 -0.0241 -0.1073 -0.1630
17821W        W35345   9.116  15.402   2.488  0.0341  0.0605  0.0362
17822W        W35346   7.898   5.713   1.243 -0.4233  0.2665  0.0056
17823W        W35347  13.206   2.477   3.598 -0.1135 -0.3682  0.2061
17824W        W35348   6.693   0.276  11.089 -0.2071 -0.3602  0.2949
17825W        W35349  11.432   2.117  15.307 -0.5803 -0.1606 -0.0237
17826W        W35350  11.196   8.668  15.665  0.0369 -0.0129  0.2541
17827W        W35351   8.325   5.986  13.556 -0.0268 -0.0376  0.5930
17828W        W35352   2.109   6.804  13.802  0.0855  0.3003 -0.0977
17829W        W35353   7.820  13.698  12.981  0.2103 -0.0901 -0.1209
17830W        W35354   4.837   8.527  15.400  0.0149  0.0098 -0.0554
17831W        W35355  16.608   3.060  13.217 -0.0255  0.2336  0.0594
17832W        W35356   3.229  12.689   5.315 -0.1998 -0.0920 -0.2499
17833W        W35357   2.644   2.125   0.138 -0.2575  0.0386  0.0002
17834W        W35358  12.955   2.843   2.750 -0.1225  0.0267  0.1295
17835W        W35359  13.377   4.525   0.507  0.1232 -0.1799 -0.3340
17836W        W35360  11.761   2.461  16.116  0.2391 -0.0206  0.1768
17837W        W35361  15.916   0.102  11.912  0.0483  0.0879 -0.4462
17838W        W35362   5.557  10.094   3.318  0.4038 -0.1338 -0.5731
17839W        W35363   7.231   1.767   0.277  0.0019  0.1930  0.0574
17840W        W35364   6.017  10.227  13.259  0.0851  0.2521  0.0387
17841W        W35365   7.291  11.071  14.214  0.0768  0.2939 -0.0325
17842W        W35366  16.725  14.760  13.501  0.4305 -0.0007  0.2152
17843W        W35367  11.442   0.116   1.770  0.1106  0.2508  0.1136
17844W        W35368   3.223   3.895   3.907 -0.1339  0.3572  0.1770
17845W        W35369   6.701   0.058  14.028 -0.0136 -0.0052  0.0553
17846W        W35370  17.951  11.890  16.229 -0.0182  0.0419 -0.3254
17847W        W35371  14.223   3.762  13.040  0.0010  0.1726 -0.1669
17848W        W35372  15.792   3.593   3.569 -0.0127  0.1638 -0.0430
17849W        W35373  14.826   0.100  15.879 -0.2750 -0.0192  0.0396
17850W        W35374   6.870   3.201   4.302 -0.0959  0.1392  0.1097
17851W        W35375  11.984   6.055  11.595 -0.1046  0.0725 -0.0181
17852W        W35376   0.557  12.749  15.156 -0.3521 -0.1526 -0.2451
17853W        W35377   3.102   0.791   0.092  0.1582  0.2520  0.0124
17854W        W35378  11.974  16.712   0.130  0.0316 -0.2186 -0.0917
17855W        W35379   0.351   4.527   1.568 -0.2284  0.0506 -0.1838
17856W        W35380  12.677   3.513   4.121  0.1290  0.1040 -0.2076
17857W        W35381   2.472   9.762  14.936  0.0207 -0.2980 -0.3066
17858W        W35382   5.201   0.958   3.427 -0.2256 -0.2017  0.1164
17859W        W35383  13.918  16.277   3.270  0.1754  0.3410 -0.3735
17860W        W35384  17.354   1.225   3.957  0.1397  0.3327 -0.0919
17861W        W35385  13.258   7.314   1.445 -0.1922  0.2121  0.1088
17862W        W35386   8.468   7.272   1.134 -0.3340  0.2760 -0.0828
17863W        W35387  13.532  10.821   3.394  0.1379 -0.1634 -0.0925
17864W        W35388  15.667   1.510   1.536 -0.1245  0.0146  0.0163
17865W        W35389   4.208   5.357   4.595  0.1855 -0.0196 -0.3566
17866W        W35390  17.162   5.238   0.295  0.2062  0.0237  0.0544
17867W        W35391  16.008   9.324   1.395  0.0218 -0.0607  0.0809
17868W        W35392  15.072  15.563   0.888 -0.3216 -0.2422  0.0882
17869W        W35393   4.545  13.672   1.357 -0.2708 -0.2454  0.0778
17870W        W35394  15.269  14.674   0.648 -0.0248 -0.0420  0.4031
17871W        W35395   0.177   5.882   2.217 -0.1449 -0.2027 -0.3069
17872W        W35396   2.222   2.146  12.206 -0.0698  0.1335  0.0680
17873W        W35397  10.387   3.861   4.110 -0.0317  0.2134 -0.0319
17874W        W35398  10.096   9.952   2.023 -0.0627  0.3353 -0.1221
17875W        W35399   4.334  11.330  13.659  0.0544 -0.0197  0.2441
17876W        W35400  14.829   9.870   4.126 -0.3706  0.0649 -0.0989
17877W        W35401  12.328   3.664   0.636 -0.0531 -0.0366 -0.0000
17878W        W35402  16.975  16.861  13.512  0.0997  0.0206  0.1655
17879W        W35403   5.368   7.202  12.658  0.0423 -0.2611  0.3267
17880W        W35404   8.046   4.948   3.239 -0.0010 -0.2887 -0.1965
17881W        W35405  15.836  17.110   0.858  0.0481  0.0522  0.3458
17882W        W35406   5.108  15.401  14.287 -0.1742  0.0732  0.0220
17883W        W35407   4.371   4.344   0.389  0.4890  0.0560  0.1330
17884W        W35408   3.772  13.294  11.477  0.1125  0.2388 -0.0458
17885W        W35409  14.718   6.172   3.512 -0.1653 -0.2305 -0.1049
17886W        W35410  11.686  14.968  11.579 -0.2364 -0.0990  0.0423
17887W        W35411   4.189  15.768  13.434 -0.1983  0.0586 -0.2721
17888W        W35412  16.892   1.189  14.619  0.0133  0.0093 -0.0266
17889W        W35413   5.897   5.380  14.605 -0.0649  0.1710  0.0924
17890W        W35414  15.479  15.202  13.094 -0.1013 -0.1907 -0.2731
17891W        W35415   8.566   6.780   4.034  0.3019  0.1240 -0.2996
17892W        W35416  15.688  10.179   3.723 -0.0315  0.1231 -0.1610
17893W        W35417  16.258  17.580   4.221 -0.0891 -0.1062 -0.0031
17894W        W35418  11.245  17.772  14.641 -0.0151 -0.0936 -0.0249
17895W        W35419   6.862  17.445  15.939 -0.0459  0.1933  0.0999
17896W        W35420  16.768   3.454  16.358 -0.0992  0.0991  0.3683
17897W        W35421   6.642   9.559   3.961  0.2255  0.0625  0.0002
17898W        W35422  10.492  12.890   0.674  0.0455 -0.0198  0.2779
17899W        W35423   7.630   9.955   2.369 -0.0047  0.0487  0.0340
17900W        W35424   3.705   8.557  15.327 -0.2501 -0.0216  0.1744
17901W        W35425  13.210   0.074  13.637 -0.1141  0.1436 -0.1191
17902W        W35426  12.470   8.728   2.075  0.0811  0.0015  0.2035
17903W        W35427   0.770  13.912  12.483  0.0270 -0.0394 -0.0840
17904W        W35428  16.206   4.991   2.854 -0.0909  0.1722  0.2802
17905W        W35429   4.910   3.552  14.851 -0.1864  0.1580 -0.2479
17906W        W35430  12.543  17.509  13.243 -0.2217 -0.0926 -0.1462
17907W        W35431   6.768   1.338   5.281 -0.4992 -0.1213 -0.1259
17908W        W35432  10.445   5.629  16.424 -0.1915 -0.1829  0.0905
17909W        W35433   4.388   0.925   1.362  0.0715  0.0385 -0.2208
17910W        W35434   5.120   3.424   2.850 -0.0673 -0.1204  0.1364
17911W        W35435   2.008   1.089   0.347  0.2982 -0.1029  0.1841
17912W        W35436  11.791  15.371  12.553  0.1718  0.4894  0.2129
17913W        W35437   1.066  14.250  12.254  0.0486 -0.2817 -0.4055
17914W        W35438   9.648   4.393   5.037 -0.1074 -0.1202  0.1370
17915W        W35439  14.972  12.944  12.273 -0.1699  0.1763 -0.1742
17916W        W35440  16.835   6.476  12.053  0.2713  0.0261  0.0868
17917W        W35441  10.735   5.433  12.629  0.1387  0.3556  0.0223
17918W        W35442  16.534   7.825   2.132 -0.3368 -0.0358  0.0271
17919W        W35443  17.778   8.739  10.851  0.2240  0.2061 -0.0491
17920W        W35444  17.177  16.569   1.414  0.1257 -0.0872  0.1841
17921W        W35445   8.306   9.845   0.862  0.0838  0.1124 -0.2212
17922W        W35446   9.183  16.415   1.122 -0.2068  0.3901  0.0977
17923W        W35447   6.557  15.439   4.736 -0.2435  0.1335  0.1339
17924W        W35448  15.898  11.521   3.314 -0.0214  0.0765 -0.2617
17925W        W35449  11.025   4.626   4.107 -0.0957  0.0178 -0.4240
17926W        W35450   2.395   7.200  16.268 -0.1791  0.0786  0.1268
17927W        W35451   1.728   4.006   3.440  0.0481 -0.1952  0.2563
17928W        W35452   6.005  15.464   1.905 -0.0044  0.1605 -0.3558
17929W        W35453   0.607   3.200   3.383  0.0597  0.0884  0.0151
17930W        W35454   7.162  14.126  13.581 -0.0166 -0.1003  0.0313
17931W        W35455   6.389  12.260  15.392  0.0560 -0.0692  0.1937
17932W        W35456   9.905   7.958  15.418  0.0678  0.0839  0.1159
17933W        W35457  17.911  12.609   0.646 -0.0685 -0.0827 -0.0942
17934W        W35458   7.604   4.608   3.889  0.1532  0.0008  0.1407
17935W        W35459   7.355  12.247  12.220  0.0850  0.0247 -0.0566
17936W        W35460  16.325  15.507   2.610  0.0137 -0.1509 -0.0249
17937W        W35461  17.883   2.491   5.382 -0.1225  0.0592 -0.0902
17938W        W35462   5.698  11.742  13.860  0.3123  0.1296  0.0336
17939W        W35463  17.502   2.986  11.935  0.2559  0.1125  0.1117
17940W        W35464   0.208  14.581   3.527  0.0293  0.2035  0.1864
17941W        W35465   6.293  12.322   1.070 -0.0554  0.3044  0.0421
17942W        W35466   4.833   9.316  15.642 -0.0789 -0.1173  0.0418
17943W        W35467   3.214  12.626  13.404 -0.1376 -0.1013 -0.0344
17944W        W35468  10.429   6.549  13.059  0.0552 -0.0047  0.0386
17945W        W35469   5.970   1.638   5.681 -0.1758  0.0651 -0.1168
17946W        W35470   8.579   6.151   3.053  0.1517 -0.0501  0.0586
17947W        W35471   9.987   7.525   1.477  0.0050 -0.3507 -0.0640
17948W        W35472  12.864   9.927   2.273  0.1360 -0.2416 -0.1501
17949W        W35473   5.423  15.423  15.230  0.1221  0.0054 -0.2074
17950W        W35474   6.512   3.262  10.137  0.2177  0.1956  0.0934
17951W        W35475   9.268   1.081  15.328 -0.0698 -0.2689 -0.2450
17952W        W35476   0.116   5.981   3.751 -0.2028 -0.1062 -0.0666
17953W        W35477   6.373   4.728  11.599  0.0978  0.1481 -0.1581
17954W        W35478  11.399  14.382  14.557  0.1900 -0.1125  0.0335
17955W        W35479   8.207  17.674  13.315  0.0754 -0.3725  0.0478
17956W        W35480  10.200   7.867   0.389  0.2256  0.2162  0.0246
17957W        W35481   7.911   7.892   3.110 -0.3724  0.0691 -0.4485
17958W        W35482   2.371   3.847   0.704 -0.1034  0.2891  0.0347
17959W        W35483   8.377  14.247  13.517  0.0171 -0.0580  0.1062
17960W        W35484  12.903   0.347  12.726 -0.0222  0.2570  0.0866
17961W        W35485  13.519  10.928   0.738  0.0428 -0.1216  0.1385
17962W        W35486   1.721   7.073  16.177  0.2171  0.0096  0.0698
17963W        W35487   8.792   8.745   0.893  0.3421 -0.2484 -0.1319
17964W        W35488   5.137   3.108  11.171  0.1063 -0.0590 -0.0283
17965W        W35489   0.071  10.635   0.840 -0.2368  0.0593  0.1571
17966W        W35490   0.152  16.359  14.548 -0.0718 -0.1004 -0.0819
17967W        W35491   8.812   7.200   0.648  0.0652 -0.2643 -0.0337
17968W        W35492  15.026   7.021  11.631 -0.1689 -0.1643  0.0106
17969W        W35493   8.470  11.087   4.437 -0.2354 -0.0601  0.1207
17970W        W35494   8.358  16.195   4.623 -0.3657  0.1713 -0.0155
17971W        W35495   9.853   9.575   2.179  0.0044 -0.0291 -0.0019
17972W        W35496   6.979  14.230   0.243 -0.1141  0.0182 -0.1571
17973W        W35497   9.041  11.607   4.669  0.0338  0.0269 -0.0890
17974W        W35498   8.907  14.742  10.387  0.0150 -0.0344  0.2230
17975W        W35499  12.881  13.206  14.350  0.2669  0.3048 -0.1957
17976W        W35500   0.736  11.326  14.715  0.1288 -0.0683 -0.1429
17977W        W35501   1.891  14.005   0.249 -0.0093 -0.0094  0.1599
17978W        W35502  11.276  12.955  13.636 -0.1596  0.0343  0.0030
17979W        W35503  16.161  13.624   2.877 -0.0217  0.2253  0.0428
17980W        W35504  11.319  16.519   2.896 -0.1732  0.0719 -0.1084
17981W        W35505   4.850   0.709   5.139 -0.0837 -0.2953 -0.0836
17982W        W35506   9.782  12.787  12.303  0.2213 -0.0159 -0.0157
17983W        W35507  13.480   7.687   1.166  0.0334 -0.2203 -0.0138
17984W        W35508   6.448  12.636   2.617 -0.2711  0.2527  0.1551
17985W        W35509  15.513  10.407  13.131 -0.0063 -0.2776  0.1403
17986W        W35510   2.453   3.006  11.602  0.0224  0.2169  0.2715
17987W        W35511   4.288   6.522   5.403  0.1174  0.0038  0.1885
17988W        W35512  15.486  10.747  16.306  0.2001  0.0470 -0.0815
17989W        W35513   2.279   8.949  12.996 -0.2088 -0.0289 -0.0611
17990W        W35514   3.464   9.442   4.623 -0.0938  0.1674 -0.0183
17991W        W35515   7.265  10.694   1.915 -0.0180  0.0027 -0.0944
17992W        W35516  10.482  17.771   0.609 -0.2066  0.1725  0.1398
17993W        W35517  17.665   9.204  11.187  0.1265  0.2702 -0.0026
17994W        W35518  14.337   4.551   5.845  0.2605 -0.3634 -0.0855
17995W        W35519  13.819   9.581   0.428 -0.2640 -0.1676  0.1312
17996W        W35520  13.951   9.405   2.441  0.0103  0.1620  0.0211
17997W        W35521  15.840   8.930  16.272  0.2919 -0.2232  0.1100
17998W        W35522  16.363   6.514   0.269  0.3003 -0.0726 -0.2156
17999W        W35523   4.917   4.655   3.364 -0.1949 -0.0330  0.3776
18000W        W35524   6.845  12.824   4.854 -0.2715 -0.1642  0.0946
18001W        W35525   7.498  15.878  12.544  0.1803  0.1454  0.4575
18002W        W35526   4.269   7.691  12.611  0.0514 -0.0287 -0.0636
18003W        W35527   1.449   8.776  15.063 -0.2769 -0.4427  0.0627
18004W        W35528  13.553   2.338  14.599  0.4344  0.1724 -0.3081
18005W        W35529  12.378   4.057   3.652  0.1708 -0.2849 -0.1707
18006W        W35530   7.080   2.247  16.188  0.1034 -0.0866 -0.2039
18007W        W35531  14.391  11.198   5.802 -0.2261  0.2189 -0.0546
18008W        W35532  10.642   2.769  14.904  0.1370 -0.1269 -0.0978
18009W        W35533   6.112   0.272   2.559  0.2579 -0.3690 -0.0560
18010W        W35534  10.491  13.057   4.862  0.0732 -0.2885  0.1993
18011W        W35535  10.362   6.005  10.814 -0.2653 -0.1493 -0.0535
18012W        W35536  15.085   7.315  15.507 -0.0512 -0.1775 -0.1278
18013W        W35537  11.357   5.511  15.665 -0.3036  0.0481  0.2452
18014W        W35538  14.799   7.504   5.272 -0.1327 -0.3330  0.0415
18015W        W35539   5.252   0.146   2.824 -0.1090 -0.0646 -0.2182
18016W        W35540  11.391   4.000  12.547  0.1999  0.0785  0.0133
18017W        W35541   0.500   8.884   2.360  0.1663  0.1125 -0.3324
18018W        W35542   4.863  14.278   0.771 -0.0860 -0.0037  0.2588
18019W        W35543   4.943   2.853  16.233  0.1454 -0.0542 -0.0308
18020W        W35544   3.258   9.994   4.093  0.1841 -0.1365 -0.1205
18021W        W35545   0.412   9.856  15.351 -0.1374  0.1644  0.3321
18022W        W35546   0.381  15.867   5.383 -0.0234  0.0361 -0.2123
18023W        W35547  12.384   2.585   1.836 -0.1186  0.0638  0.2438
18024W        W35548   3.099   5.709   1.075 -0.4507  0.3128 -0.0592
18025W        W35549   4.272  10.361  16.202 -0.2674  0.1373  0.0189
18026W        W35550  11.450   6.033   0.817  0.1605 -0.1821 -0.0452
18027W        W35551   8.792   9.847   1.483 -0.0772 -0.1424 -0.0357
18028W        W35552  13.584   0.449   0.241  0.2304  0.1988  0.2639
18029W        W35553   1.172   0.058  11.594  0.0145 -0.0251 -0.1160
18030W        W35554   2.342   6.751  11.597 -0.1289  0.1587  0.1310
18031W        W35555  14.009   7.353  15.293  0.2263 -0.3507  0.0058
18032W        W35556   5.624   1.615  15.968  0.1553 -0.0313  0.0449
18033W        W35557   2.863  15.138   3.378 -0.0390 -0.4114  0.0154
18034W        W35558   0.290  14.312  14.362 -0.1050 -0.0629 -0.1520
18035W        W35559   9.607   0.651   5.528  0.2553  0.0144  0.0138
18036W        W35560   8.302   6.366   0.463  0.1063 -0.0240  0.0818
18037W        W35561  16.557  12.271  11.677 -0.0444  0.0900  0.1687
18038W        W35562  11.236  11.134  12.710  0.0941  0.1668  0.1461
18039W        W35563   0.772  17.263  12.335 -0.0658 -0.0481 -0.0934
18040W        W35564  11.072  10.580  11.343 -0.0903  0.1512 -0.1120
18041W        W35565   4.002   0.512   5.388 -0.1753 -0.0041 -0.0267
18042W        W35566  15.138  16.829   3.133 -0.1439  0.0107  0.1538
18043W        W35567   7.208  17.008   4.789  0.0239  0.1325 -0.3905
18044W        W35568  13.670  14.042  15.633  0.3166  0.0779  0.0336
18045W        W35569  11.431  11.012  12.188  0.0057 -0.0530 -0.1258
18046W        W35570   0.783  15.993  14.715  0.0838 -0.0486  0.1282
18047W        W35571   2.866   8.827  11.819  0.2409 -0.1039 -0.1102
18048W        W35572   3.376   9.176  13.452 -0.3226  0.1298  0.0930
18049W        W35573   7.123   5.422  12.322  0.0411  0.2492  0.2582
18050W        W35574  16.315   4.626   4.971  0.1010 -0.0818  0.0207
18051W        W35575   7.809  11.917  13.283 -0.1259  0.0010  0.3440
18052W        W35576  16.245   0.687   4.630  0.2137 -0.0411 -0.0604
18053W        W35577  11.080  15.058  15.343  0.2577 -0.2290 -0.3908
18054W        W35578  11.709   3.705  14.744  0.0205  0.0184  0.0980
18055W        W35579  14.530   5.067   2.312  0.4332 -0.1436 -0.1703
18056W        W35580  15.955  15.494  14.382  0.1378 -0.0416  0.0365
18057W        W35581  12.382   0.671   1.038 -0.2921  0.1353  0.1131
18058W        W35582  12.360   2.633  11.677 -0.1660 -0.0315  0.1185
18059W        W35583  11.447   1.337   4.434 -0.0946  0.2240  0.1188
18060W        W35584   7.955   3.328  12.739  0.1673 -0.1826 -0.0375
18061W        W35585  13.950   9.827   1.706  0.3039  0.1254 -0.0546
18062W        W35586  13.684  15.787  13.196  0.0036  0.2785  0.0790
18063W        W35587   5.519  12.247  14.257  0.3007 -0.0663 -0.3293
18064W        W35588   6.004  10.374   5.003 -0.1858  0.1471 -0.4635
18065W        W35589   0.731   8.644  13.414  0.2593 -0.0039  0.2363
18066W        W35590  16.252  16.307   3.455  0.0708 -0.0519 -0.0183
18067W        W35591  14.108   5.331  12.382  0.1882 -0.0432  0.3107
18068W        W35592   7.817  13.531  12.014  0.1710 -0.2018  0.1338
18069W        W35593  17.910  11.890   1.051  0.0997  0.3160 -0.0591
18070W        W35594  13.636  11.156  12.359 -0.1259 -0.0872  0.0257
18071W        W35595  13.395  16.905   6.321  0.1275 -0.1200  0.2893
18072W        W35596   4.467   0.580  12.405  0.0059  0.3656 -0.0732
18073W        W35597   0.134   6.369  14.894 -0.4729  0.3625  0.1774
18074W        W35598   7.460  12.836   2.688 -0.1665  0.0772 -0.0315
18075W        W35599  13.028  15.261   5.401  0.0107  0.2331  0.0118
18076W        W35600  14.969   6.128   2.735  0.0972 -0.0781  0.0396
18077W        W35601   0.733  10.944  15.587 -0.1321 -0.0409 -0.1794
18078W        W35602  10.076   9.131  16.179 -0.2291 -0.0530 -0.2356
18079W        W35603  14.968   7.051  15.964  0.0066  0.1900  0.0835
18080W        W35604  11.126   9.621   5.102  0.2369 -0.3093 -0.2280
18081W        W35605   4.991  13.894  15.384 -0.2426  0.3630  0.0241
18082W        W35606   7.402  10.199  14.336  0.0940  0.0256  0.0880
18083W        W35607   2.535  11.220  11.743  0.1915  0.2982  0.0751
18084W        W35608   8.864   6.842  10.446  0.3499 -0.2187 -0.0235
18085W        W35609  17.180   6.421  16.215 -0.0045 -0.2413  0.1777
18086W        W35610   3.914   3.895   4.626 -0.0032 -0.0132 -0.1185
18087W        W35611  11.124   2.804   2.025  0.0476  0.0782 -0.2061
18088W        W35612   2.493   3.898  16.135 -0.0445 -0.0911 -0.0265
18089W        W35613  10.899  17.574   6.234 -0.1537 -0.1830 -0.1922
18090W        W35614   1.925  11.664  13.911  0.1169  0.1185 -0.3711
18091W        W35615  10.472   8.664   0.847  0.1525  0.1952 -0.1810
18092W        W35616   8.343   2.862   5.736 -0.2258 -0.1107 -0.0216
18093W        W35617  12.756   7.100  12.208 -0.0694  0.1459  0.1610
18094W        W35618   3.545   5.231   4.741  0.0754  0.1026  0.3078
18095W        W35619  15.480   8.142  12.659 -0.1567  0.2710  0.1588
18096W        W35620   5.405   3.148  11.896 -0.1559 -0.0029  0.3199
18097W        W35621   1.456   3.215  12.395 -0.0973 -0.2346  0.1605
18098W        W35622   8.113  15.978  15.623 -0.1728  0.1675  0.1809
18099W        W35623   8.257  16.072   5.086 -0.2731 -0.0000  0.1051
18100W        W35624   1.940  15.058   2.146 -0.3372  0.0746  0.2316
18101W        W35625   9.403   2.075  13.095 -0.3254  0.0919  0.1125
18102W        W35626  12.697  14.986   3.810  0.2159 -0.1495 -0.0703
18103W        W35627   1.057  14.757   4.852  0.2628 -0.1216  0.2005
18104W        W35628  13.570  10.648  11.536 -0.0897 -0.2825 -0.0928
18105W        W35629  16.616   0.481  12.218  0.0163 -0.1518  0.1057
18106W        W35630   1.165  14.883  13.694  0.2864 -0.1791  0.1452
18107W        W35631  16.288   4.867  11.694 -0.1710  0.1358  0.2071
18108W        W35632  14.885   4.040  12.893 -0.0463 -0.1594  0.2367
18109W        W35633  14.212   5.612  15.054  0.0256 -0.0968  0.0019
18110W        W35634   4.081   2.417  16.236  0.0732 -0.2488  0.1882
18111W        W35635   6.846  14.607  14.173 -0.0690 -0.1663  0.0458
18112W        W35636  14.794   4.581  15.939 -0.5143 -0.1178  0.0525
18113W        W35637   0.971   9.927  13.286  0.1963 -0.0259  0.0006
18114W        W35638  16.731   1.406  15.520 -0.0707  0.0854  0.3052
18115W        W35639   1.959  14.641   1.847 -0.2710  0.1234  0.0567
18116W        W35640  15.333  10.885  10.295  0.0993 -0.2496 -0.0715
18117W        W35641  14.354   6.848  14.627 -0.0932  0.3376  0.4459
18118W        W35642   8.123  13.522   3.782 -0.2462  0.1251 -0.1913
18119W        W35643   8.722  16.131  13.838  0.0546 -0.1423 -0.2698
18120W        W35644  16.744  16.725  12.237 -0.0850 -0.1853  0.1121
18121W        W35645   4.476   7.572   2.543 -0.0342 -0.1611 -0.0479
18122W        W35646   0.744  11.386  11.932 -0.1694 -0.1156 -0.2349
18123W        W35647  16.337   3.285  14.726 -0.0506 -0.0589 -0.1297
18124W        W35648  14.640   8.146  14.357 -0.1283  0.0644  0.2155
18125W        W35649   3.692   1.067  11.854 -0.0483 -0.2597  0.1967
18126W        W35650   8.673   4.546  10.918 -0.2246 -0.0675  0.2255
18127W        W35651   2.061   3.843  14.530 -0.1201 -0.1656 -0.0728
18128W        W35652  11.051   8.329  14.340  0.2325 -0.2484  0.0452
18129W        W35653   4.605  12.034   2.150  0.3915 -0.0768 -0.1154
18130W        W35654   5.815  15.331   1.318  0.0086 -0.3114  0.1318
18131W        W35655  16.552  16.703  13.631  0.0995 -0.2387 -0.2107
18132W        W35656  10.611   1.909  14.530  0.1017 -0.2213  0.1563
18133W        W35657   2.111   6.519   0.102  0.2782 -0.1900  0.2636
18134W        W35658   3.305   0.842  13.281  0.0897  0.0318 -0.3618
18135W        W35659   8.424   1.349  11.615 -0.0781 -0.4249  0.0149
18136W        W35660  17.911  16.933  14.557  0.0968 -0.1400 -0.4215
18137W        W35661  11.685  14.846   5.275 -0.1519 -0.2002 -0.0878
18138W        W35662   3.514  13.344   2.888  0.1573  0.0472  0.1182
18139W        W35663   1.061   8.161  15.780 -0.1745 -0.0124  0.2575
18140W        W35664   9.924  13.162  16.276 -0.3028 -0.2537 -0.2378
18141W        W35665  15.599  14.946  13.646 -0.1676 -0.2660  0.0833
18142W        W35666   7.611  11.448  15.758  0.1658 -0.0770 -0.1069
18143W        W35667   7.510   5.184  15.132 -0.0740  0.1398 -0.0956
18144W        W35668  13.123   8.194   3.223 -0.4306  0.3682 -0.0474
18145W        W35669  11.541   5.521   4.361 -0.0100  0.3073  0.0239
18146W        W35670  10.063  16.421  15.838 -0.0370 -0.0899 -0.0706
18147W        W35671  17.245   4.412  12.967  0.0207  0.0382  0.1933
18148W        W35672   6.629  10.289   3.568  0.0294  0.2419 -0.3575
18149W        W35673   8.152   1.196  15.819  0.0244 -0.0796  0.1390
18150W        W35674   1.596   0.667   0.365 -0.2787 -0.1900  0.0758
18151W        W35675  14.922  12.314  13.803  0.1647  0.2692  0.2362
18152W        W35676  11.119  13.554  14.284  0.0664 -0.0197 -0.0844
18153W        W35677   6.446  11.715  15.017  0.0912 -0.2078 -0.2104
18154W        W35678   1.260  10.964   4.586 -0.3990 -0.1283 -0.0588
18155W        W35679  16.571  15.594  12.714 -0.0536  0.1452 -0.0399
18156W        W35680   8.603   4.509  11.416 -0.3376  0.1025  0.1004
18157W        W35681  15.148  12.736  11.800  0.0597  0.0294 -0.3850
18158W        W35682  10.969  17.547   1.879  0.1197 -0.1025  0.4280
18159W        W35683  10.096   8.864  15.277 -0.2401  0.0377  0.0176
18160W        W35684  15.474  11.466   4.982 -0.1872 -0.1747  0.0922
18161W        W35685  13.159   5.656  15.410  0.0447  0.1089  0.0751
18162W        W35686   7.118   2.864  14.854 -0.0324  0.1943 -0.1753
18163W        W35687   1.338   1.705  12.078 -0.2517 -0.0159  0.0141
18164W        W35688   8.349   8.299  13.603  0.0617  0.0301 -0.0120
18165W        W35689   5.612  15.821  15.456  0.4685 -0.3386 -0.1791
18166W        W35690   8.457   9.036  13.079 -0.3241  0.1500 -0.2338
18167W        W35691   4.949   4.444  14.110 -0.2730  0.0409  0.0531
18168W        W35692   9.207   8.686  13.502 -0.1518  0.1503 -0.0945
18169W        W35693  17.575   7.136  11.949 -0.1789 -0.2279 -0.1498
18170W        W35694   5.836   5.907   4.930  0.3671  0.0704  0.2008
18171W        W35695  11.813   6.704   3.271 -0.0478 -0.0190 -0.1234
18172W        W35696  11.818  14.924   4.025  0.0363  0.2904 -0.1628
18173W        W35697   9.348  14.357   5.957 -0.4116 -0.1519  0.1672
18174W        W35698   5.805   1.479  14.848  0.0597 -0.0467 -0.1539
18175W        W35699   7.807   9.143  16.264  0.1686 -0.2406 -0.0544
18176W        W35700   9.294  15.555  12.211  0.0706  0.2701  0.2563
18177W        W35701  11.052  15.273   0.521 -0.0219 -0.1945  0.1851
18178W        W35702   0.857  14.239  16.408  0.2102  0.3753  0.1096
18179W        W35703   3.764   5.307  13.900  0.1695  0.2069  0.2208
18180W        W35704  16.247  17.044   4.958 -0.0752 -0.2474  0.3694
18181W        W35705  16.556  12.538   0.036 -0.1629 -0.0642 -0.3627
18182W        W35706  10.903   9.626   0.224  0.2358 -0.1459  0.0656
18183W        W35707   4.392   8.742  16.176  0.0688 -0.1554  0.1822
18184W        W35708  10.238  13.290  10.629  0.0576  0.1577 -0.0211
18185W        W35709   6.930   5.930   1.381 -0.0388  0.2577  0.0612
18186W        W35710   5.493   3.739  11.964  0.0857 -0.2618  0.1658
18187W        W35711  13.310  16.481   2.173  0.0375 -0.1509 -0.3748
18188W        W35712   5.856   5.792   2.650 -0.0727  0.0993 -0.2535
18189W        W35713  15.244  17.602   2.823 -0.0467 -0.2105 -0.0161
18190W        W35714   1.254  15.252  12.741  0.0610  0.1518 -0.0218
18191W        W35715   1.847   5.961   0.969 -0.3280  0.3006 -0.1253
18192W        W35716  15.120   1.061  14.949  0.0115 -0.0916 -0.4283
18193W        W35717  12.811   4.013  14.143 -0.0700 -0.3819  0.1210
18194W        W35718   0.228  12.649  12.724  0.0894  0.1867 -0.0218
18195W        W35719   7.795   9.909  12.988 -0.0259  0.0734 -0.0746
18196W        W35720  17.054   3.183   2.411  0.0978  0.3030  0.1660
18197W        W35721   0.140  15.711   4.653  0.1767 -0.1774  0.1269
18198W        W35722  17.773   6.648  13.302 -0.0701  0.0750  0.0753
18199W        W35723  13.791   9.219  15.928  0.0379 -0.0428  0.1884
18200W        W35724  14.170   0.427  12.076  0.1106  0.1586  0.0450
18201W        W35725   3.881   1.241   4.092 -0.0808  0.5152  0.1318
18202W        W35726   2.764   2.774  14.868 -0.1427 -0.3926 -0.3735
18203W        W35727  15.796   1.888   0.674  0.1457  0.0410  0.0258
18204W        W35728   4.798  12.820   1.327 -0.0736 -0.1241 -0.2670
18205W        W35729  13.781   3.424  12.964  0.0891  0.1360  0.4382
18206W        W35730   2.543   3.120   1.889  0.0662  0.1211  0.1117
18207W        W35731   2.595   6.138  11.202  0.0245 -0.2632 -0.1269
18208W        W35732   5.905   5.613  11.425 -0.0003 -0.0191  0.0755
18209W        W35733   8.370   9.884   0.342 -0.0836 -0.3259  0.1994
18210W        W35734   7.550  16.298  14.593  0.0788  0.0821 -0.0162
18211W        W35735   6.200  11.741  14.521  0.2239  0.0695  0.1806
18212W        W35736   3.156   0.237   5.357  0.0639  0.0955  0.0250
18213W        W35737   8.506   5.578   0.694  0.2098  0.3451 -0.1743
18214W        W35738  17.617   8.605   1.431 -0.2518  0.0574 -0.0152
18215W        W35739   4.678   1.947  13.464  0.1092  0.1327  0.2962
18216W        W35740   6.196  17.903  12.400 -0.1781  0.3270  0.3887
18217W        W35741  15.003   6.809   2.382 -0.0076 -0.1392 -0.1590
18218W        W35742   8.864   7.671  14.130 -0.2822 -0.0777 -0.1011
18219W        W35743  17.110   9.031   4.799 -0.0044 -0.3254  0.1633
18220W        W35744   7.825  17.926   2.641 -0.5596 -0.1983  0.0775
18221W        W35745  16.779  13.665  15.004 -0.1213  0.1529  0.0948
18222W        W35746  16.492   2.888   3.138  0.1679  0.3332  0.1975
18223W        W35747  11.538   3.500   1.310  0.0935  0.0942 -0.0113
18224W        W35748   5.013   7.494  14.193  0.1303 -0.1174 -0.1532
18225W        W35749   2.521  12.467   3.191  0.1025  0.2501  0.0805
18226W        W35750  15.208   3.511   0.821  0.2436  0.0322  0.1009
18227W        W35751   9.133   4.771  14.213  0.3736  0.1243  0.0337
18228W        W35752  12.469  17.567  12.606  0.1262 -0.0900 -0.1672
18229W        W35753   4.951  12.433   1.554  0.1040  0.2715 -0.0222
18230W        W35754  11.508   7.359  10.469 -0.1095 -0.2716  0.3285
18231W        W35755   2.490   0.805   5.341 -0.0830 -0.0787  0.0648
18232W        W35756  13.765   8.944  15.542  0.1354  0.1686  0.2773
18233W        W35757   2.504   7.754  15.013  0.2047 -0.1373  0.2468
18234W        W35758   6.858   7.644  16.323  0.1127 -0.0632  0.2560
18235W        W35759   4.405  13.911  13.337  0.1793 -0.1287 -0.2769
18236W        W35760  13.944  14.695  16.390  0.0345  0.0605 -0.1070
18237W        W35761   9.209  16.278   0.619 -0.3657 -0.1493  0.1218
18238W        W35762   4.037  14.556   1.907 -0.2105  0.1565  0.3598
18239W        W35763  13.416   8.377   4.209 -0.0916 -0.1564 -0.0629
18240W        W35764  14.895  17.850   5.237 -0.2492  0.1332  0.1131
18241W        W35765  14.314   4.072   4.874 -0.0757 -0.1542 -0.2442
18242W        W35766   9.114  16.706  12.445  0.1596 -0.2940  0.0064
18243W        W35767  15.136  12.203  12.999 -0.0239  0.0507  0.1266
18244W        W35768   3.146  15.897  13.911  0.0606  0.1563 -0.0201
18245W        W35769   8.510  12.431   3.529  0.2051  0.2119  0.2009
18246W        W35770  13.726  13.837   2.666 -0.0302 -0.2755 -0.0292
18247W        W35771  17.428   0.637  14.241  0.3259 -0.1148  0.2588
18248W        W35772   0.851   4.176  14.699 -0.2415 -0.0380  0.2354
18249W        W35773   1.337   0.491  13.000 -0.2841  0.1320  0.3263
18250W        W35774  13.585  15.453  12.835  0.2741  0.1625  0.0213
18251W        W35775   7.471  15.418   1.530  0.1278 -0.2056 -0.1032
18252W        W35776   8.550  11.636   4.296 -0.1662  0.0780  0.2891
18253W        W35777   2.929  12.382   1.044 -0.0080 -0.0219  0.3798
18254W        W35778   3.842   8.528  14.436  0.1548 -0.1081 -0.0797
18255W        W35779   2.209   5.337   0.099 -0.2899  0.1203 -0.1592
18256W        W35780   4.350   3.378   4.561  0.0531 -0.1027 -0.0009
18257W        W35781  13.360   4.311  15.439  0.0190  0.2806  0.2854
18258W        W35782   0.326   6.558   1.813  0.0433  0.3102 -0.4614
18259W        W35783   6.806   1.909   4.365  0.1042 -0.1132 -0.0153
18260W        W35784  16.462  11.890  14.934  0.1405  0.3457 -0.1294
18261W        W35785   7.470   4.092   4.754  0.2084 -0.0701  0.2540
18262W        W35786   9.599   4.814  13.963  0.0766 -0.0253 -0.1916
18263W        W35787   0.703   5.503   4.174  0.1020 -0.0105  0.0739
18264W        W35788   9.559   8.401   1.257 -0.3896 -0.2395  0.0364
18265W        W35789  11.622  10.102   4.862  0.1941  0.1235 -0.1076
18266W        W35790  12.600  13.032  13.500 -0.1251 -0.3235 -0.1077
18267W        W35791  12.474   2.465   4.968 -0.1090 -0.0435  0.0845
18268W        W35792  14.944   2.901  14.983  0.1155 -0.0392  0.0810
18269W        W35793   9.314   9.979  12.207 -0.0886 -0.2489  0.0811
18270W        W35794   4.564   3.235  15.164 -0.0643 -0.1427  0.3443
18271W        W35795   3.867   5.411   1.829  0.0234 -0.1622  0.2609
18272W        W35796  16.934  10.323   0.244 -0.1111  0.3809 -0.0445
18273W        W35797   4.542   3.816   0.356  0.1559  0.4985  0.3167
18274W        W35798   5.715   3.386   0.796 -0.0465  0.0735  0.2430
18275W        W35799   3.050  13.235   1.393  0.2328 -0.2194  0.1435
18276W        W35800   4.397  10.054   0.539  0.0668 -0.1370  0.1343
18277W        W35801  14.010  14.528   0.394 -0.2529  0.1730  0.0878
18278W        W35802   1.687   0.283  15.288 -0.3453  0.1924 -0.2447
18279W        W35803   9.843   3.112  13.429 -0.0530  0.0760 -0.2103
18280W        W35804   8.831   5.671   1.137 -0.2713 -0.0064  0.0938
18281W        W35805   8.747   1.633  11.878  0.1417 -0.1530  0.1659
18282W        W35806  17.730  12.020   1.750  0.0208 -0.1705  0.0563
18283W        W35807  11.409  17.273  13.237  0.2646 -0.3221 -0.0460
18284W        W35808  15.545   7.345  15.774  0.2461 -0.2002 -0.1867
18285W        W35809  10.800   6.759  13.430 -0.2120 -0.3320 -0.0656
18286W        W35810   8.300   2.682   2.221  0.4424  0.1170 -0.0068
18287W        W35811  15.431  13.259  14.127  0.0314 -0.1853  0.3216
18288W        W35812   4.165  16.664   1.918  0.1192 -0.1592  0.1578
18289W        W35813   2.155  13.545   0.354  0.0660  0.1717 -0.0486
18290W        W35814   9.950   1.595  11.687 -0.1070  0.0526 -0.1435
18291W        W35815   4.802  12.544   2.692 -0.1576  0.0040  0.1715
18292W        W35816  12.588  12.262  16.198  0.1041  0.2181 -0.2454
18293W        W35817   0.015  12.253   4.317 -0.0679  0.1895  0.0305
18294W        W35818   3.237  10.498  14.727  0.4026  0.0310  0.0491
18295W        W35819  14.761  15.970  14.020  0.5097 -0.0415  0.1661
18296W        W35820   9.384  16.945   4.159 -0.0090  0.0024  0.2297
18297W        W35821  10.809  15.069  14.074 -0.1953  0.2226 -0.1157
18298W        W35822   5.127  11.460  15.380 -0.0360 -0.2193 -0.1145
18299W        W35823   9.860  15.138  11.916  0.0813 -0.0563 -0.1640
18300W        W35824   4.297   2.833   1.583  0.0445  0.2237 -0.0250
18301W        W35825   9.376   1.593  16.372 -0.2540 -0.2638 -0.0166
18302W        W35826   6.234   5.287  13.396 -0.1383 -0.3934 -0.2467
18303W        W35827   7.587  14.226  14.855  0.2078 -0.3203  0.0525
18304W        W35828  13.371   9.653   3.165  0.3652  0.0017  0.1231
18305W        W35829   3.807  11.345  16.171 -0.2252 -0.0675  0.2209
18306W        W35830  11.976   7.569   4.191 -0.0239  0.2932  0.1254
18307W        W35831   0.773  11.717   2.333  0.1011  0.1075  0.2314
18308W        W35832  12.949  17.560  13.807 -0.0232 -0.0117 -0.1000
18309W        W35833   4.667   1.030  12.794  0.0301  0.0121  0.2471
18310W        W35834   4.390  12.479  14.065 -0.2938  0.2317 -0.1133
18311W        W35835   2.758  17.637  15.170  0.0896  0.0625  0.0476
18312W        W35836  14.317  10.269  12.821  0.2275 -0.0603  0.2828
18313W        W35837   2.720   7.798   4.081 -0.0841  0.3391 -0.1260
18314W        W35838   5.200   3.650   5.127 -0.0400  0.1909 -0.0581
18315W        W35839  11.184   8.251  13.464  0.0293 -0.1992 -0.0007
18316W        W35840  13.685  17.546  14.986  0.2051 -0.3244 -0.1271
18317W        W35841  17.586   4.319   3.101 -0.1679 -0.3420  0.0685
18318W        W35842   0.260  16.357  12.628  0.2350  0.0835 -0.2918
18319W        W35843  17.698   6.319  16.295  0.0120 -0.2885  0.1781
18320W        W35844   3.509   0.873   4.773 -0.2706  0.0963 -0.0383
18321W        W35845   2.876   1.033  15.501  0.0580  0.1957  0.1527
18322W        W35846   4.515  15.229   1.725 -0.4242  0.1433 -0.2002
18323W        W35847  11.845   1.626   2.778  0.1551  0.1683  0.1046
18324W        W35848  11.958   9.014  16.196  0.0918  0.2308  0.0724
18325W        W35849   3.261   8.877  12.120  0.0157  0.0136  0.1023
18326W        W35850   1.877  15.737  13.001  0.2663 -0.0331 -0.0569
18327W        W35851   7.642  10.661  15.176  0.1010 -0.1271 -0.0079
18328W        W35852   4.083   0.984  11.594 -0.0691 -0.2300  0.0838
18329W        W35853  15.135  11.157  13.287  0.2533 -0.1360  0.0431
18330W        W35854  12.567  12.853  12.644 -0.3688 -0.2240  0.1247
18331W        W35855  15.263  14.869   2.730  0.1765  0.2702 -0.3724
18332W        W35856   1.102  11.846   4.400 -0.2493  0.2700  0.0355
18333W        W35857   1.657   7.598  12.348  0.2111 -0.1572  0.1449
18334W        W35858   0.304   4.700   1.047 -0.0109  0.1492 -0.1001
18335W        W35859  11.346  13.185   1.339  0.0110  0.0936 -0.2594
18336W        W35860  17.800   3.770  15.082  0.0622  0.2646 -0.1819
18337W        W35861  11.448  13.228   2.823  0.2540  0.2103  0.4813
18338W        W35862   5.246   5.699   1.677 -0.0054  0.0257  0.2323
18339W        W35863   5.847   9.365   4.440 -0.0023  0.3612  0.1941
18340W        W35864  16.430   0.577  14.090  0.1184 -0.0854  0.0867
18341W        W35865   5.125   6.743  15.551  0.0125  0.1412  0.2915
18342W        W35866   3.955  14.829  14.140  0.0079 -0.0145 -0.2979
18343W        W35867   5.665   2.871   0.919 -0.3278  0.1036 -0.0004
18344W        W35868   9.496   0.313   1.882  0.2984  0.1013  0.1692
18345W        W35869   1.073   5.437   1.245 -0.1770 -0.0162 -0.2120
18346W        W35870  10.870   6.432   0.454 -0.1933 -0.1099 -0.4167
18347W        W35871   1.581   6.291  12.624 -0.0874  0.1644  0.0389
18348W        W35872  16.673  11.629  13.464  0.3939 -0.2316  0.2993
18349W        W35873   7.002  11.952   1.937  0.0030 -0.2318  0.0773
18350W        W35874   7.192   2.390   3.153 -0.0704  0.0678 -0.0015
18351W        W35875   4.343   9.974  11.556  0.0256 -0.0700 -0.2209
18352W        W35876  15.389  17.725   1.652  0.2884  0.1670 -0.0770
18353W        W35877   7.795   3.778  15.425 -0.0076 -0.0116 -0.1801
18354W        W35878   0.927   3.941   1.357 -0.0014 -0.1223  0.0566
18355W        W35879  16.743   6.547   2.432 -0.2707  0.1444 -0.1184
18356W        W35880   2.122   5.113   1.552  0.3013  0.1641  0.3959
18357W        W35881  16.814   0.028   1.085 -0.1497 -0.1065  0.0714
18358W        W35882   0.687   6.364  11.237 -0.0847  0.1141 -0.1647
18359W        W35883   2.449  12.680  14.965  0.1782  0.0969  0.1464
18360W        W35884   9.202   8.867  15.085 -0.4572 -0.4883  0.1863
18361W        W35885   1.899   8.374  16.064 -0.0370  0.0154 -0.2153
18362W        W35886   2.402  15.282   2.214 -0.0480 -0.1885 -0.1266
18363W        W35887  14.432   3.084   0.782 -0.1144  0.1905 -0.2316
18364W        W35888  16.715  14.803   2.500 -0.1714 -0.0388  0.1208
18365W        W35889  17.277  11.032  15.972 -0.2111 -0.1747  0.1729
18366W        W35890   0.860  14.350   3.882 -0.2305  0.1022  0.1682
18367W        W35891   9.013   1.110  16.380  0.0812  0.0902 -0.1146
18368W        W35892  13.371  12.465  14.506  0.0819  0.0887  0.0868
18369W        W35893  17.454  11.838  12.515 -0.0862  0.1149 -0.1725
18370W        W35894   6.844  12.584   3.950  0.1307 -0.0253 -0.3164
18371W        W35895   5.760  15.026  15.091 -0.1439  0.3077  0.0448
18372W        W35896   5.241  17.097   3.873 -0.0983 -0.0180  0.2138
18373W        W35897  14.669  14.154   3.619  0.0630 -0.2985  0.2426
18374W        W35898   8.601   0.338   5.902 -0.1847 -0.4070 -0.1694
18375W        W35899  10.683  17.052   0.135  0.2287 -0.2949  0.1334
18376W        W35900  12.484   2.835   2.265 -0.0346 -0.0332  0.1214
18377W        W35901  12.211  10.680   0.483 -0.0368  0.0211  0.1176
18378W        W35902   7.315   4.789  11.909 -0.1460  0.1230 -0.0481
18379W        W35903   6.599   3.354  14.240 -0.0314  0.0374 -0.2407
18380W        W35904   5.577  17.383   4.252  0.1099 -0.0354 -0.0764
18381W        W35905   8.765   2.398  16.374 -0.0559  0.1248 -0.0321
18382W        W35906  15.682  15.485  16.129  0.2806 -0.2854  0.2235
18383W        W35907   9.578  16.385  15.032 -0.0565  0.1521  0.3097
18384W        W35908   7.349   8.814  15.197 -0.2578 -0.3836 -0.2903
18385W        W35909  10.564  16.646  14.308  0.0493 -0.1268  0.1428
18386W        W35910   0.470   6.808   0.241 -0.2070  0.1819  0.1605
18387W        W35911   2.980  14.299   3.510 -0.0148  0.0200  0.3695
18388W        W35912   3.703  13.264  14.562 -0.1785  0.0096  0.3258
18389W        W35913  15.450   4.730   3.319  0.4361  0.0845  0.2268
18390W        W35914  12.599  11.644   0.395  0.0051 -0.0591 -0.0088
18391W        W35915   4.132   4.596  11.627 -0.0205  0.1692  0.2168
18392W        W35916   7.484   2.676  14.622 -0.0783 -0.1813 -0.0798
18393W        W35917  17.504  12.241  11.523 -0.2495  0.4556  0.0283
18394W        W35918   3.685  14.437  13.450 -0.0337 -0.0534 -0.1598
18395W        W35919  14.360   4.270   2.795 -0.1534 -0.2961  0.0942
18396W        W35920   1.474  13.892  12.027  0.0954 -0.1462  0.0419
18397W        W35921   3.159   4.032  13.145  0.3777 -0.0073 -0.1077
18398W        W35922   7.371   6.631  15.504  0.1747  0.0986 -0.2835
18399W        W35923   4.152   8.871  13.114 -0.2054 -0.2359  0.2221
18400W        W35924   0.999  12.163   1.972  0.1296 -0.2752 -0.0447
18401W        W35925   3.100   8.198   3.736  0.1562  0.3283 -0.0405
18402W        W35926  16.789   4.447   3.050 -0.0674 -0.2162 -0.0958
18403W        W35927   3.172   3.690   2.911 -0.1701 -0.2089 -0.2004
18404W        W35928   3.790   1.649   2.373 -0.4963 -0.2353  0.0541
18405W        W35929  13.988  12.031  13.307  0.1939 -0.0479 -0.5135
18406W        W35930   6.054   3.232  13.539 -0.0353  0.0102  0.2275
18407W        W35931  13.784  10.854   1.326 -0.2163 -0.3537 -0.0167
18408W        W35932   1.142   9.015   1.484  0.0326 -0.3147  0.0639
18409W        W35933  11.967   7.323  14.319 -0.0973  0.1420  0.0919
18410W        W35934   4.460   8.239   0.887  0.1142  0.1594  0.2968
18411W        W35935   5.950  15.750   1.143 -0.0901 -0.0398 -0.3375
18412W        W35936   2.766   0.479  15.813 -0.3850  0.4816 -0.1162
18413W        W35937   6.336  11.321   0.910  0.0539 -0.0971 -0.3183
18414W        W35938   5.897  15.182  13.009  0.0429 -0.1199 -0.0361
18415W        W35939   2.746   8.910   4.176 -0.2858 -0.0951  0.0577
18416W        W35940  17.627   2.922   1.551 -0.3038  0.0863 -0.0783
18417W        W35941   2.263  10.628  14.433  0.0078  0.2489 -0.0593
18418W        W35942  12.709   4.410   1.292 -0.1534 -0.0202  0.0514
18419W        W35943   3.933   1.772   4.603  0.1971  0.2658  0.1466
18420W        W35944   1.400  17.251   3.416  0.0076  0.1389  0.0921
18421W        W35945   3.052  15.727  12.197  0.2069  0.3104  0.0482
18422W        W35946  10.591  13.775  16.077 -0.0634  0.0216  0.1317
18423W        W35947   4.165  17.259  16.251  0.2102  0.0144  0.1562
18424W        W35948  10.757  17.530  12.167 -0.1115 -0.0413 -0.1947
18425W        W35949   4.309  12.393  12.303 -0.0030 -0.0731 -0.1632
18426W        W35950  12.344   8.156  10.434  0.1206  0.0532  0.3447
18427W        W35951  10.812   4.117   1.935  0.0076 -0.1037 -0.1662
18428W        W35952   8.337  16.672   0.645  0.0509 -0.1969  0.3823
18429W        W35953   5.027  10.441  15.116  0.0847  0.0318 -0.2308
18430W        W35954   3.087  14.664   2.633 -0.0184 -0.1590 -0.0426
18431W        W35955  11.453   5.993  15.493  0.1118 -0.0294 -0.2267
18432W        W35956   1.201   7.644   0.261 -0.1512 -0.1401 -0.2095
18433W        W35957  11.189   2.780   1.018 -0.0901 -0.0629 -0.1368
18434W        W35958   0.600   0.909   4.654  0.1465 -0.1269 -0.0528
18435W        W35959  14.878  11.690   1.529 -0.0605  0.3757 -0.2333
18436W        W35960   1.300   0.460  15.064  0.0486  0.0206 -0.1243
18437W        W35961  17.560   6.401  14.937  0.1050  0.0535 -0.1600
18438W        W35962   3.577   4.455  15.120  0.0604  0.0104  0.1094
18439W        W35963   1.985  16.003   6.036  0.0933  0.1140  0.3086
18440W        W35964  16.079   1.428  13.562  0.0487 -0.1785 -0.1618
18441W        W35965   1.417   9.527  14.247  0.1682  0.3382 -0.0556
18442W        W35966  12.138   9.539  14.142  0.2135 -0.0923  0.0684
18443W        W35967  11.698  12.785  13.943 -0.1786  0.2034 -0.1891
18444W        W35968   1.904   4.636  12.714  0.2148  0.0878 -0.0128
18445W        W35969   0.709  13.869  16.140  0.3524 -0.1264 -0.0368
18446W        W35970   9.504  16.855  15.397 -0.1253  0.3281 -0.1888
18447W        W35971  17.653  11.109  16.433 -0.4006  0.3790  0.0648
18448W        W35972  15.695  11.804   5.240  0.1162 -0.0369 -0.0429
18449W        W35973  14.127  13.374  12.732 -0.2221 -0.1953  0.2273
18450W        W35974  14.531   4.099  13.613  0.1105  0.0861  0.1669
18451W        W35975  10.017   3.549  12.610 -0.1957 -0.3522  0.0924
18452W        W35976   9.035   1.591   2.393 -0.0128  0.3036  0.3661
18453W        W35977   4.960  10.720   3.557  0.0711 -0.0315 -0.1834
18454W        W35978   9.221   4.573  13.583  0.4245 -0.0910  0.0606
18455W        W35979   9.234  16.689   0.331  0.1560 -0.1068 -0.0104
18456W        W35980  15.313  15.559   1.482 -0.1731  0.0799 -0.0366
18457W        W35981   2.234  10.325  12.812 -0.0635 -0.0792  0.0577
18458W        W35982  10.365  17.862  12.059  0.1359  0.0946  0.3540
18459W        W35983  15.160  15.208   3.263  0.1105  0.1187 -0.0188
18460W        W35984   5.104  11.289   0.604 -0.2252 -0.0006  0.3777
18461W        W35985  13.619  11.581   3.764  0.0189  0.0287  0.1498
18462W        W35986   2.527  12.299  11.570 -0.1155  0.3767  0.0063
18463W        W35987  16.831   0.702  14.849 -0.0531  0.1131 -0.3061
18464W        W35988   4.905   2.396  13.094 -0.1176 -0.1098  0.1198
18465W        W35989   5.761  17.125   5.536 -0.1321 -0.0938 -0.2173
18466W        W35990  11.388  10.303  14.093  0.3301  0.1239  0.1529
18467W        W35991  11.768   6.828   1.080 -0.0013 -0.2669  0.2607
18468W        W35992  15.000  12.566   4.395  0.1095 -0.1838  0.1254
18469W        W35993   7.276   5.706   3.216  0.0482 -0.1391 -0.1255
18470W        W35994   9.608  13.040  15.334 -0.3412  0.2583  0.3417
18471W        W35995   6.348   6.971   1.820 -0.0427 -0.0037 -0.1052
18472W        W35996   7.269   9.142  16.269 -0.1554 -0.0049 -0.2125
18473W        W35997   4.322   2.119   0.217 -0.0948 -0.1213 -0.0281
18474W        W35998   5.306  17.108  14.599  0.3592  0.1181  0.0709
18475W        W35999   0.542   8.841  15.848  0.1412 -0.0901  0.2523
18476W        W36000   0.886  10.062   0.023  0.0511 -0.3018 -0.1872
18477W        W36001   0.281  15.521  14.584 -0.4131 -0.1038 -0.1231
18478W        W36002   0.761  16.661  15.350 -0.3513  0.1550 -0.0768
18479W        W36003  10.446   0.982   1.701 -0.0995  0.4242  0.0657
18480W        W36004   1.555   7.541   3.168 -0.2648 -0.1673 -0.0545
18481W        W36005  17.744  10.804  15.952  0.0125  0.2858  0.1129
18482W        W36006   5.855  12.281  15.228  0.2443 -0.0356 -0.0152
18483W        W36007   8.781  12.228  13.838 -0.2568 -0.1354  0.0031
18484W        W36008   0.711  17.112   0.208 -0.0027  0.1307 -0.3919
18485W        W36009   7.995  12.277  14.338  0.3387  0.0695 -0.0232
18486W        W36010  12.119  13.707  14.659  0.1095  0.0552  0.1337
18487W        W36011  16.004  16.815  14.988 -0.2216 -0.0620 -0.2500
18488W        W36012   6.458   2.639   5.033  0.1493  0.0533  0.2631
18489W        W36013   6.588  13.896   0.025  0.0347  0.1665 -0.0094
18490W        W36014  15.982  11.093   3.109 -0.1300 -0.0672 -0.3482
18491W        W36015   2.124   6.360   2.960 -0.1859  0.3396 -0.1281
18492W        W36016  13.669  10.880   1.802 -0.0421  0.1141 -0.0031
18493W        W36017   9.500  14.008  14.751  0.1857  0.3678  0.0339
18494W        W36018  11.994  10.393   3.804  0.0676 -0.1211  0.1652
18495W        W36019   1.036  10.434  12.850  0.3097  0.1606 -0.2372
18496W        W36020  13.627   3.711   4.924 -0.0613  0.1155 -0.2369
18497W        W36021   6.717   5.184  15.799 -0.4795  0.1677  0.1375
18498W        W36022   4.905   1.704  15.249 -0.2388  0.0434 -0.1839
18499W        W36023  16.991  12.961  11.971 -0.3383 -0.2041 -0.1077
18500W        W36024   5.074   4.337  13.577  0.0937  0.1300  0.0552
18501W        W36025   9.760   8.776  15.938  0.0435 -0.2135  0.2820
18502W        W36026   9.749   0.767   1.792 -0.0848  0.2035 -0.1919
18503W        W36027   7.925   2.752   3.715 -0.0253  0.0431  0.1193
18504W        W36028   3.179  10.874   2.581 -0.1218 -0.0173  0.2447
18505W        W36029   5.776   0.104   4.715 -0.4827 -0.0566  0.1239
18506W        W36030  15.120   8.106   4.639 -0.0263 -0.2330 -0.3127
18507W        W36031   7.049   4.210   1.223  0.1097 -0.2801 -0.5917
18508W        W36032  16.229  11.692  14.534 -0.0845  0.1880 -0.1685
18509W        W36033  10.948   0.336   2.332 -0.0658 -0.0658 -0.0945
18510W        W36034   8.259   4.196   0.616 -0.2371  0.1397 -0.0610
18511W        W36035   6.581   7.347  15.963 -0.1061 -0.0718 -0.0737
18512W        W36036  12.019   3.132   0.713  0.0966  0.1718 -0.1594
18513W        W36037   7.811   6.983  12.947 -0.0929  0.3098 -0.2901
18514W        W36038   1.344  14.826  15.376  0.0257 -0.3145 -0.2298
18515W        W36039  11.573  13.957  14.726  0.2908  0.3081 -0.4778
18516W        W36040   8.378  17.113   2.480 -0.3966  0.1412  0.1295
18517W        W36041  13.301   9.938  13.721  0.3063 -0.1629  0.0662
18518W        W36042  10.286   7.478  12.074  0.0503 -0.1777 -0.1526
18519W        W36043   3.388   9.465   3.783 -0.0246  0.0132 -0.1142
18520W        W36044   6.182   9.085  11.675  0.1180 -0.0143  0.2638
18521W        W36045  10.360  17.511  14.691 -0.0202  0.0646 -0.0584
18522W        W36046  10.527  13.235   2.796 -0.1024  0.2074 -0.1233
18523W        W36047  17.764  16.259   4.859  0.1287 -0.1925 -0.0888
18524W        W36048   9.545   6.118  12.604  0.1280  0.0858  0.3707
18525W        W36049  13.189  11.242  14.452  0.0979  0.1104  0.0686
18526W        W36050   0.103   9.486   1.653 -0.0824 -0.0348  0.0301
18527W        W36051   6.602   9.562  15.086 -0.1796  0.0116  0.0784
18528W        W36052   2.532  14.001  14.323  0.1917 -0.2644  0.2280
18529W        W36053   9.129   9.556   1.829 -0.1797 -0.1116 -0.0072
18530W        W36054   9.506   4.302  16.025 -0.1934 -0.1121 -0.0390
18531W        W36055  12.940  12.690  13.394  0.1675  0.0966  0.2076
18532W        W36056   1.762  16.238   1.331  0.0343  0.3431  0.2021
18533W        W36057  11.309  11.050  11.677  0.1477  0.1683  0.2357
18534W        W36058  15.542   4.776  14.665 -0.0299 -0.2033 -0.0004
18535W        W36059   7.424  10.363   4.642 -0.1185 -0.1024 -0.3292
18536W        W36060   8.356   2.066  11.901  0.0561  0.1264 -0.0460
18537W        W36061   7.418   8.956   3.758 -0.1178  0.0657 -0.3442
18538W        W36062   3.136   2.334  14.331  0.1337 -0.2392  0.3563
18539W        W36063   2.947   7.537  13.843  0.0858 -0.0410 -0.1651
18540W        W36064  10.297  16.795   0.236  0.0642  0.0502  0.3428
18541W        W36065   6.765  14.895   4.058 -0.1749 -0.0536  0.1815
18542W        W36066  15.940   1.747  12.508  0.2101 -0.1351  0.1801
18543W        W36067  15.291   6.513   0.046 -0.1970  0.1296 -0.0662
18544W        W36068   8.882   2.200  12.993  0.0288 -0.0547  0.3152
18545W        W36069  14.004   6.573  13.470 -0.0410  0.1373 -0.3727
18546W        W36070  13.588  15.188   1.829 -0.0164  0.0656  0.2074
18547W        W36071  16.453  10.181   1.956  0.2617  0.3597 -0.3161
18548W        W36072  15.008   9.977  10.969  0.0195  0.0402  0.0120
18549W        W36073   4.525  10.682  14.797  0.1353  0.4017  0.2070
18550W        W36074  11.588   5.022   1.751  0.2934  0.2711  0.3203
18551W        W36075   6.672  13.718  15.458 -0.3183 -0.0397 -0.0138
18552W        W36076   4.697  13.773  16.339  0.0863 -0.1999 -0.0741
18553W        W36077   2.416   6.749   2.228 -0.1267  0.0196  0.0080
18554W        W36078  17.582  10.912  14.007  0.0779 -0.3160 -0.0451
18555W        W36079  10.010  10.189  13.094  0.0718  0.1597 -0.0196
18556W        W36080   1.732   8.933  12.897 -0.0291 -0.1708 -0.0342
18557W        W36081   8.497  17.958  12.474 -0.1164 -0.0737  0.2393
18558W        W36082   1.103   1.662   4.151  0.0062  0.1892 -0.0102
18559W        W36083   2.885   9.736  12.977 -0.0870  0.2574  0.0641
18560W        W36084  15.944  16.040  13.550  0.1366  0.1442 -0.1604
18561W        W36085   6.317   6.214  13.955  0.1971  0.0052 -0.0841
18562W        W36086  15.798   3.638  11.243 -0.2916  0.0758  0.1775
18563W        W36087   6.354  11.210  13.340  0.1306 -0.1783  0.1458
18564W        W36088  11.211  10.575  12.438 -0.1238  0.0261 -0.0719
18565W        W36089   7.227   6.383   2.857  0.1123 -0.0485 -0.1042
18566W        W36090   4.214  17.925   1.199 -0.2509 -0.1228 -0.0943
18567W        W36091  16.423  12.637   3.932 -0.2095  0.0424  0.0113
18568W        W36092  16.082   4.423  13.195  0.0881 -0.1206  0.1304
18569W        W36093  15.983   9.727   2.749  0.1980  0.2284 -0.1287
18570W        W36094  15.434  14.705  15.789  0.0739  0.0583 -0.0826
18571W        W36095  10.105   4.809   2.511  0.0066 -0.4495 -0.1168
18572W        W36096   8.041  17.577  12.172  0.0678 -0.1728  0.0003
18573W        W36097   6.388   3.501  11.336 -0.3718  0.0127 -0.1378
18574W        W36098  12.134  17.327  15.090  0.0008  0.2870  0.3742
18575W        W36099  13.054   9.457   2.141 -0.0790 -0.3141  0.1909
18576W        W36100   7.589  17.648  14.001  0.0083  0.0668 -0.0891
18577W        W36101  11.949  17.444  16.245 -0.1887  0.3424 -0.0633
18578W        W36102  12.384  17.050  15.907 -0.1725 -0.2435 -0.3399
18579W        W36103   1.767  10.769  15.234 -0.4268 -0.0384  0.2589
18580W        W36104   1.188   2.886   0.501 -0.2801  0.0150 -0.0379
18581W        W36105   0.516  17.446  13.328 -0.2722 -0.4845 -0.1667
18582W        W36106   5.832  17.065  14.493  0.3377  0.0219 -0.2027
18583W        W36107   8.046   5.228  11.304  0.1609  0.1172 -0.1259
18584W        W36108   2.508  14.882  11.952  0.0012  0.1049  0.4096
18585W        W36109   1.582  17.177   1.240 -0.1391 -0.2248  0.0845
18586W        W36110   9.365  10.988   4.227  0.0311  0.1996  0.1447
18587W        W36111   2.879   1.970   1.416  0.1532  0.0229 -0.2650
18588W        W36112   6.601  14.644   5.190  0.0408 -0.2321 -0.1099
18589W        W36113   8.465  12.972   2.826  0.3060  0.0803  0.0443
18590W        W36114  13.285  10.062   2.308 -0.2265 -0.1101  0.0072
18591W        W36115  11.170   3.335  16.021 -0.1207 -0.0534 -0.1205
18592W        W36116  17.156   9.624  16.009  0.0653 -0.1663 -0.1563
18593W        W36117   1.548   0.442   4.610 -0.1817  0.1134 -0.0991
18594W        W36118   4.588   6.039  14.256 -0.2159 -0.0198 -0.2064
18595W        W36119   5.948   0.380  12.498  0.1050  0.2016 -0.1790
18596W        W36120   5.324  15.868  15.010 -0.1694 -0.1105 -0.1221
18597W        W36121  11.013   4.849   2.349 -0.0221  0.1274  0.2298
18598W        W36122   7.363  10.392  15.511 -0.2583 -0.0835  0.2327
18599W        W36123  14.704   4.117  15.775  0.2302 -0.2862 -0.0984
18600W        W36124   7.299   5.959  13.366 -0.0300  0.0567  0.1311
18601W        W36125  10.192   5.196   2.880 -0.1568 -0.0023 -0.0146
18602W        W36126   4.873   6.653  13.409  0.1166  0.4711  0.1147
18603W        W36127   2.135  15.933  14.781  0.1780 -0.1089  0.2173
18604W        W36128  12.363  13.951   2.312  0.2809  0.1858 -0.2274
18605W        W36129  17.970   7.006  10.143 -0.2030 -0.0377 -0.0403
18606W        W36130  16.282   1.492  15.300 -0.2891 -0.0079  0.1866
18607W        W36131  17.611   0.728   1.816  0.3736 -0.1453  0.1977
18608W        W36132   8.118  16.287   4.131  0.0417 -0.0749 -0.0348
18609W        W36133  13.335  12.923  14.474  0.1670 -0.2678  0.0621
18610W        W36134   5.836  10.896  14.165 -0.0086  0.3397 -0.1956
18611W        W36135  11.115   1.904   2.316  0.1753  0.1374 -0.0732
18612W        W36136  12.493  13.984   2.768  0.1278 -0.1829 -0.1880
18613W        W36137   7.248  11.465   1.780  0.1715  0.1300  0.0354
18614W        W36138  16.118  11.527   2.879  0.0579  0.2691  0.2616
18615W        W36139   3.925   7.999   4.765  0.2680 -0.1031  0.2443
18616W        W36140   4.836   8.617  12.771  0.2495  0.0379  0.1013
18617W        W36141   9.588  13.284  11.780 -0.2700  0.2088  0.1651
18618W        W36142  11.752   8.779  15.143 -0.0886 -0.3112 -0.1172
18619W        W36143   2.890  16.467  13.216  0.0195 -0.0488 -0.0389
18620W        W36144  11.324   0.485  12.753  0.1186 -0.0912 -0.0993
18621W        W36145  17.354   2.148  12.142 -0.3440 -0.1646  0.0692
18622W        W36146  13.102   5.479  12.455  0.2227 -0.2232 -0.1059
18623W        W36147   7.802   4.160  15.120  0.1004 -0.2470  0.0833
18624W        W36148   2.758   1.250   1.164  0.1301 -0.0873  0.1611
18625W        W36149   0.991  11.863  15.477  0.0484  0.1564  0.1267
18626W        W36150  10.983  17.249  14.898 -0.2584  0.2497  0.2408
18627W        W36151   0.400   2.828   1.709 -0.2722 -0.0655 -0.0356
18628W        W36152   1.238   7.692  10.117 -0.2165  0.2458 -0.1128
18629W        W36153  14.862   5.991   1.748  0.0442  0.1800  0.0537
18630W        W36154  14.468   0.532  14.159 -0.2262  0.0135  0.0255
18631W        W36155  16.599  12.100   5.318  0.3405  0.0301  0.1793
18632W        W36156  10.913   0.726  11.933 -0.2974  0.3081 -0.1470
18633W        W36157  13.219   0.831   3.609  0.0524 -0.0760  0.0348
18634W        W36158   4.734  11.144  13.443  0.1773  0.0676  0.0524
18635W        W36159  17.345   4.684   1.647  0.2439  0.0779 -0.1044
18636W        W36160  15.603   8.416  13.164  0.2544  0.0043 -0.1510
18637W        W36161   9.556  15.555  11.801  0.0931  0.0740  0.1905
18638W        W36162  17.769   9.803  11.096  0.1480  0.0532 -0.1790
18639W        W36163   9.691  16.541  13.586  0.4327  0.0229  0.3883
18640W        W36164   6.126   8.780  14.045 -0.0698  0.0087  0.1742
18641W        W36165  15.241   1.616  16.446  0.0508 -0.1317  0.0773
18642W        W36166   7.426  12.112   4.797 -0.1693  0.0986 -0.1004
18643W        W36167   9.382   4.105   6.457 -0.3394 -0.2733  0.2751
18644W        W36168   6.549  10.413   4.846  0.0319 -0.1881  0.3010
18645W        W36169  13.994   2.878   2.579  0.1298  0.1426  0.0776
18646W        W36170   5.489  14.341  14.083 -0.0871  0.1049  0.0998
18647W        W36171   0.148   2.261   1.093 -0.0354  0.1318  0.0739
18648W        W36172   3.972  14.165  16.155  0.0491 -0.2937  0.2275
18649W        W36173   0.748   1.057  12.476  0.1255 -0.0788 -0.4068
18650W        W36174   5.507  13.304  14.699 -0.3062  0.0869 -0.0770
18651W        W36175   2.441   8.009  10.985 -0.0299 -0.0931 -0.0837
18652W        W36176  10.884   2.312   1.743  0.1269 -0.0172 -0.2286
18653W        W36177   9.875  10.886   4.521 -0.0057 -0.0940 -0.3692
18654W        W36178   5.261   9.513   0.486 -0.0513  0.0591  0.3184
18655W        W36179  11.156   0.687  16.267 -0.0320 -0.0237 -0.0135
18656W        W36180   3.942  16.531   5.033 -0.1799 -0.1180  0.2182
18657W        W36181  12.598  14.334   0.077  0.0444  0.3610 -0.1939
18658W        W36182  11.416  15.757  12.398 -0.0654 -0.1034  0.1684
18659W        W36183   1.553   8.062  15.878 -0.4157  0.0357 -0.1694
18660W        W36184  11.135   4.416  12.806  0.3840 -0.2979  0.3667
18661W        W36185   1.962  17.351   0.691 -0.1649  0.4119  0.0948
18662W        W36186  10.941  13.878   2.332  0.3811  0.1495 -0.0520
18663W        W36187   4.486  15.560  14.554 -0.1538  0.1225  0.0139
18664W        W36188   8.791  14.805   3.331 -0.2372  0.1204 -0.0510
18665W        W36189  11.941  10.212   2.044 -0.1070  0.2949  0.0766
18666W        W36190   4.094  15.166  13.855  0.1741 -0.2083  0.2329
18667W        W36191   8.851  14.453  12.733 -0.0967 -0.1495 -0.1808
18668W        W36192   0.545  15.296   4.065 -0.0904 -0.0892  0.2098
18669W        W36193   6.886  12.230  14.285  0.3497  0.1262 -0.3866
18670W        W36194  13.611  16.610   3.481 -0.5018 -0.0365 -0.1183
18671W        W36195  10.425   5.907   3.040  0.0622  0.2240  0.0328
18672W        W36196  14.819   5.315  12.580 -0.0133  0.0000 -0.0759
18673W        W36197   5.885  13.347   5.368  0.0967  0.0795 -0.3112
18674W        W36198  12.531   8.543  12.499 -0.0452  0.1580  0.0326
18675W        W36199   3.068   8.652   3.191 -0.1625 -0.0674  0.2092
18676W        W36200  11.669  14.746  12.888  0.3784  0.0431  0.0230
18677W        W36201   9.415   6.819  16.211  0.1499  0.0464 -0.1687
18678W        W36202   6.358   4.446   5.206 -0.1074 -0.3050  0.0254
18679W        W36203   3.595   0.086  15.571 -0.1915  0.4190 -0.0534
18680W        W36204  13.954   8.966   3.154 -0.1340 -0.1143 -0.0598
18681W        W36205   6.138  10.950  15.550 -0.0322 -0.2081  0.1345
18682W        W36206   2.377   9.209   3.315  0.1441 -0.1631 -0.2883
18683W        W36207  14.019  10.411  13.593  0.1865  0.0526  0.1354
18684W        W36208   6.147   6.836  14.662 -0.1894 -0.0942  0.0719
18685W        W36209   8.976  16.854   3.309  0.1387  0.0252 -0.0344
18686W        W36210  11.569  10.752   1.667 -0.3143 -0.3394 -0.0446
18687W        W36211  11.145   5.679   2.572  0.2069 -0.3658  0.0564
18688W        W36212   5.933   7.321  12.607 -0.1859 -0.0870  0.1925
18689W        W36213   8.986   3.413   4.330  0.0030 -0.4691 -0.3326
18690W        W36214   8.496   4.227  11.916 -0.0552  0.1463 -0.0811
18691W        W36215   3.862   1.728  10.539  0.0909 -0.3044  0.0097
18692W        W36216  13.963   9.929   4.321  0.2013  0.1460  0.2924
18693W        W36217   1.384   0.302   2.384  0.0027 -0.1661 -0.1170
18694W        W36218   6.199   1.685  13.071 -0.2448  0.0892 -0.0758
18695W        W36219  16.033   3.968   2.326 -0.3841 -0.2407  0.0285
18696W        W36220   1.894   8.832   2.188 -0.2456 -0.1280  0.0781
18697W        W36221  11.949  14.398   1.110 -0.0773 -0.2033 -0.1377
18698W        W36222  11.914   8.567  15.960 -0.2469 -0.0512  0.1354
18699W        W36223   6.906  11.297  15.334 -0.1912  0.1564  0.1606
18700W        W36224  15.504   6.583  15.515  0.2117  0.0790 -0.4600
18701W        W36225  13.734  17.259   1.619  0.2761  0.0298 -0.0788
18702W        W36226  15.309   9.420   4.168 -0.0439 -0.1080  0.2325
18703W        W36227   9.052  10.559   0.857 -0.2434  0.2306 -0.1741
18704W        W36228   4.202  14.573   5.198  0.1202 -0.0649  0.2698
18705W        W36229   8.560   2.333   2.466  0.0496 -0.1025  0.0791
18706W        W36230  17.211  13.292  14.130  0.3133 -0.0608  0.1445
18707W        W36231   2.787   2.245   4.155 -0.0477 -0.1010 -0.1383
18708W        W36232   9.343  10.246  16.259  0.3741  0.3098  0.0950
18709W        W36233   3.101  13.137  16.230  0.2903  0.2566  0.3609
18710W        W36234  12.860   2.786   3.727  0.0521 -0.0108 -0.0851
18711W        W36235   8.060   5.158   4.690  0.1129 -0.1233  0.0878
18712W        W36236   5.466   8.294   1.327  0.0595  0.2040 -0.2387
18713W        W36237   7.860   1.165   0.777  0.1834 -0.2774 -0.0568
18714W        W36238   6.606   6.581  12.744  0.4428  0.0523  0.1930
18715W        W36239  11.439   7.721  12.765 -0.0244  0.4302  0.1609
18716W        W36240  17.680   1.866  11.320  0.1663 -0.2712  0.0411
18717W        W36241   9.352  13.208  16.204 -0.2868 -0.0567 -0.1464
18718W        W36242  10.020  11.744  11.683  0.0015  0.1116  0.1190
18719W        W36243  12.824   5.363   5.728  0.2186  0.2699  0.1530
18720W        W36244   6.358  16.185   3.036  0.2395  0.0622  0.1378
18721W        W36245  16.422   9.530   2.560  0.1596 -0.1744 -0.0430
18722W        W36246  17.787   5.881   1.848  0.1946  0.1265 -0.0687
18723W        W36247   6.940   5.987  15.295  0.1655  0.3619  0.0426
18724W        W36248  10.222   9.015  14.814 -0.1945  0.0980  0.2022
18725W        W36249  16.303  16.153  12.903  0.2108  0.3519 -0.0292
18726W        W36250   7.135   0.948   2.134 -0.0810  0.0713  0.0216
18727W        W36251  16.186   6.511  14.853  0.0726 -0.2023 -0.0867
18728W        W36252   8.544   0.152   2.097 -0.0117  0.1096 -0.0905
18729W        W36253  11.262   2.354   0.689 -0.0601  0.2269 -0.0705
18730W        W36254  10.947   4.964   0.780 -0.0901  0.1874  0.0888
18731W        W36255   0.552   8.549   4.573  0.0754 -0.0310 -0.2244
18732W        W36256  10.513  17.333   4.324  0.0129  0.3250  0.1469
18733W        W36257   9.396   2.974  13.565  0.0002  0.0161 -0.2395
18734W        W36258  12.926  15.460  15.478  0.2012  0.3397 -0.0571
18735W        W36259  10.448   5.603  13.185 -0.0865 -0.0489 -0.1377
18736W        W36260   7.697   3.772  12.098  0.1866 -0.0323  0.2049
18737W        W36261   7.009  14.452   2.409 -0.1013 -0.1014  0.1535
18738W        W36262  10.497   0.422   4.046 -0.0566  0.2351 -0.0360
18739W        W36263  14.641   1.626  11.750 -0.0575 -0.1832  0.1116
18740W        W36264   2.582   1.335  11.861  0.3118  0.0359 -0.0153
18741W        W36265   5.656   5.177   4.169 -0.0892  0.2407 -0.0246
18742W        W36266   3.249  16.962   2.083 -0.3624  0.0954 -0.0632
18743W        W36267   4.492   0.522   3.013  0.4054  0.0987  0.1051
18744W        W36268   6.917  13.081  12.859  0.0118 -0.0458  0.4352
18745W        W36269   3.819   1.509  15.254 -0.0197 -0.4040 -0.1583
18746W        W36270   6.063  10.722  11.557 -0.2602 -0.4066 -0.2666
18747W        W36271   7.780   4.936   0.817 -0.0783  0.2343  0.0001
18748W        W36272  16.709   6.939  11.493 -0.1882  0.2814  0.2048
18749W        W36273   1.844   8.164   4.092 -0.0693 -0.0251 -0.0708
18750W        W36274   9.193   8.244  13.196  0.0022  0.3077  0.1861
18751W        W36275   7.311  16.210   1.191  0.0247 -0.1555 -0.0016
18752W        W36276  15.262   4.514  14.978  0.4479  0.2989 -0.1864
18753W        W36277  10.160   0.463   4.829 -0.1896  0.1980 -0.2512
18754W        W36278  16.804  16.721   0.990 -0.0963  0.2908  0.0634
18755W        W36279  11.488   1.155   1.797  0.1283  0.0390 -0.2775
18756W        W36280   2.528  13.036  14.059  0.0072 -0.0405  0.0422
18757W        W36281  17.146   7.847  14.536  0.3427 -0.3488 -0.1714
18758W        W36282   2.300  16.311  15.244 -0.3362  0.0242 -0.0114
18759W        W36283  13.208  10.094   4.802 -0.0242  0.0712 -0.2462
18760W        W36284   6.367  17.431   4.838 -0.2302  0.4202  0.1522
18761W        W36285   6.560   4.039   5.017 -0.0390  0.2693  0.1665
18762W        W36286  11.049  16.871  11.702 -0.1891 -0.0970 -0.1156
18763W        W36287   4.092   1.502  14.030  0.1356  0.2140  0.2564
18764W        W36288  14.255   7.025   1.415 -0.0141 -0.3333  0.0371
18765W        W36289   0.500  10.676  15.898 -0.0177  0.1286  0.1052
18766W        W36290  16.474   7.353   0.464  0.2507 -0.0578  0.2155
18767W        W36291   1.238  12.995  15.850  0.2606 -0.0039  0.0184
18768W        W36292   0.986   1.621   4.639  0.2221  0.3451  0.0037
18769W        W36293   2.827   6.430  12.961 -0.3124  0.0247  0.0430
18770W        W36294   9.659   9.284  14.079 -0.0095 -0.0156 -0.0426
18771W        W36295   4.908   2.959   0.238  0.0383  0.0247  0.0904
18772W        W36296   2.080   5.937  12.184 -0.0317  0.1256 -0.0901
18773W        W36297  17.675  12.640  12.696 -0.1477 -0.1098  0.1335
18774W        W36298   0.815  11.894   3.815 -0.0572  0.1594 -0.1833
18775W        W36299   7.567   5.615  12.414 -0.0449 -0.0719  0.0046
18776W        W36300  11.665  16.895   2.907 -0.0535  0.2845  0.0263
18777W        W36301  13.796  16.286  13.079  0.1071  0.0157 -0.3143
18778W        W36302  12.144   3.576  13.778  0.0053 -0.0067 -0.3862
18779W        W36303   7.556   3.478   5.028  0.3309  0.3183  0.0884
18780W        W36304  16.529   3.067  16.153  0.2126 -0.0522 -0.1514
18781W        W36305   1.349  14.655   2.634  0.1281 -0.2198  0.0807
18782W        W36306   4.393   0.007  13.396  0.0667 -0.1343  0.0952
18783W        W36307  10.674  13.154   5.355  0.1493 -0.0779  0.0355
18784W        W36308  13.214   5.637  13.793 -0.2707  0.0435  0.3203
18785W        W36309  10.595   6.982  11.847 -0.0583 -0.1105 -0.0847
18786W        W36310  14.689   8.235   1.995 -0.0260  0.1535 -0.1641
18787W        W36311   8.541  16.295  13.371  0.0597 -0.0118  0.3410
18788W        W36312   8.518  10.469  10.701  0.0170  0.1787  0.0824
18789W        W36313  13.348  12.795  13.064 -0.2156 -0.0193  0.5098
18790W        W36314   6.067  14.129  14.876  0.0232 -0.1549  0.1785
18791W        W36315   2.711   2.617  12.062 -0.1121  0.1698 -0.2669
18792W        W36316   3.882  11.963   1.686 -0.2983  0.0240 -0.0874
18793W        W36317   3.557   1.685   3.326 -0.2920  0.0052  0.1983
18794W        W36318  13.726   9.530   3.553  0.1750  0.0392  0.2979
18795W        W36319   9.197   8.000  13.873 -0.1638  0.0475 -0.3062
18796W        W36320   1.096  16.048   3.712 -0.2030  0.1796 -0.1460
18797W        W36321   2.391   0.731  12.549 -0.1341 -0.1237  0.0542
18798W        W36322   7.980   9.238   1.182 -0.2105  0.1016 -0.0971
18799W        W36323  12.100  11.495   1.240 -0.3857  0.1548  0.3093
18800W        W36324   7.240  12.094  15.279  0.1846 -0.2228  0.2109
18801W        W36325  13.698   2.554  15.559  0.0500  0.0658 -0.1387
18802W        W36326   8.283   1.098   1.779  0.0617 -0.1419  0.2983
18803W        W36327  14.000   6.523   2.402  0.2891 -0.0399 -0.2799
18804W        W36328  13.657  14.228   0.081  0.2807 -0.0036  0.1623
18805W        W36329  15.731   9.951  15.266 -0.3833 -0.1193  0.0378
18806W        W36330   8.273   9.984   2.625 -0.2914  0.0519 -0.2272
18807W        W36331  11.574   9.569   5.265 -0.2958 -0.0425 -0.0538
18808W        W36332   5.873  13.141   1.497 -0.1208  0.0729 -0.2133
18809W        W36333   6.958   0.599   0.097  0.0242 -0.3080 -0.1008
18810W        W36334  15.613   9.396   1.009 -0.0498  0.0354  0.2767
18811W        W36335  12.917  17.825   1.237 -0.0290 -0.2359  0.0512
18812W        W36336   1.921  14.011  13.339  0.0604  0.1106 -0.1740
18813W        W36337  15.512   2.072   3.387 -0.0041 -0.1344  0.0112
18814W        W36338  11.845   5.786   0.116  0.0532 -0.0489  0.1928
18815W        W36339   5.127  11.043   3.227  0.2204  0.0761 -0.1672
18816W        W36340  10.892   8.958  16.031 -0.0950 -0.0991  0.1609
18817W        W36341  13.950  14.971  12.233 -0.0328  0.1155 -0.0574
18818W        W36342  16.342   4.550   3.124  0.0911 -0.1404 -0.1333
18819W        W36343  13.937   3.122  14.690 -0.1125  0.0133  0.0218
18820W        W36344   5.219   2.695   1.090 -0.2962 -0.1423  0.2316
18821W        W36345  10.695   9.035  14.919  0.0075  0.1039 -0.0047
18822W        W36346   9.482  14.136  13.290 -0.2259  0.2045  0.1700
18823W        W36347   1.509   4.010  13.858 -0.0861 -0.3828  0.1366
18824W        W36348  11.419  14.063  15.714  0.2209 -0.1962  0.2794
18825W        W36349  17.743  13.350  13.380  0.3794 -0.2887 -0.1638
18826W        W36350   2.620  14.552  16.007  0.1210 -0.0028 -0.1904
18827W        W36351  10.647   0.675  16.211  0.0228  0.1661  0.0171
18828W        W36352   4.627  12.543  15.046 -0.0633 -0.3561 -0.0933
18829W        W36353   6.507  11.770  11.077  0.1737 -0.0003 -0.0371
18830W        W36354  11.337   0.324   0.167  0.1122  0.0586  0.1111
18831W        W36355   6.840  12.298  13.066 -0.1359  0.3347 -0.2237
18832W        W36356  10.767   3.903  14.544  0.0280 -0.1131 -0.2075
18833W        W36357   8.459   6.528  13.687  0.0872 -0.0465  0.0803
18834W        W36358  13.560  14.202   2.354 -0.0116  0.1368  0.1687
18835W        W36359  16.976   5.837   3.089 -0.0399 -0.1402  0.0157
18836W        W36360   1.182   5.379  14.782  0.0251  0.0028  0.0946
18837W        W36361  17.710  16.599   1.282 -0.0029 -0.0222  0.1774
18838W        W36362  15.119   4.786   2.325 -0.1225 -0.0989 -0.1425
18839W        W36363   0.079   2.692   1.330  0.2921  0.3811 -0.1238
18840W        W36364   8.356  12.148   1.641 -0.0300  0.0782  0.1733
18841W        W36365   0.344  10.134   3.719 -0.1097  0.1100  0.0021
18842W        W36366   5.222  15.329   2.435  0.0802  0.1551 -0.1374
18843W        W36367   6.750  13.246  13.393  0.1851  0.0399 -0.1381
18844W        W36368   7.033  12.393   0.077  0.2285  0.0881 -0.1221
18845W        W36369   0.295   8.789  13.227  0.3724 -0.1642 -0.0675
18846W        W36370  10.116  14.679  15.611  0.0250  0.0864  0.0595
18847W        W36371   3.508   4.639   1.810  0.3762 -0.2923 -0.2997
18848W        W36372  17.734   9.003   0.669  0.1093 -0.0655  0.2267
18849W        W36373   7.583  11.709   2.109  0.0598  0.1328 -0.0887
18850W        W36374   8.431   0.013   0.987  0.4034  0.0454 -0.3042
18851W        W36375   1.029  16.500   2.759  0.0165  0.1681  0.0543
18852W        W36376   2.182  14.554  11.260  0.0624  0.2672 -0.0950
18853W        W36377   0.404   8.500   1.301  0.2639 -0.2190 -0.0633
18854W        W36378   9.992   5.759  12.846  0.0057  0.0646  0.1724
18855W        W36379  13.241   1.589  14.809 -0.2062  0.3441 -0.0578
18856W        W36380  13.661   8.916  11.680  0.1617 -0.1627  0.1277
18857W        W36381  10.526   1.299  13.345  0.2329 -0.1564  0.0138
18858W        W36382  14.220   3.624  11.817 -0.1453 -0.1018  0.2165
18859W        W36383  13.485   0.918   0.444  0.0161  0.0195 -0.2134
18860W        W36384  17.484   9.088   3.114  0.0978 -0.1174  0.2127
18861W        W36385   3.285  17.772   3.918 -0.2096  0.0803 -0.0901
18862W        W36386   0.530   7.757  15.503  0.0532 -0.1396  0.1975
18863W        W36387   6.404   2.676  15.951  0.1280  0.0923  0.3064
18864W        W36388  16.416   5.604  16.285  0.2247  0.1867  0.1266
18865W        W36389  17.486   1.542  16.132 -0.0617  0.1280  0.2653
18866W        W36390   4.675  11.202  12.831 -0.1966  0.0098 -0.0127
18867W        W36391   0.973   3.799   0.357  0.1539 -0.0344 -0.1328
18868W        W36392  11.038  10.620   3.760  0.0139 -0.1709  0.0245
18869W        W36393   8.714  17.057  12.324 -0.1801  0.0959 -0.2028
18870W        W36394   1.705  11.845   5.005 -0.0216 -0.2314 -0.2041
18871W        W36395   1.952  11.162   2.829 -0.2671 -0.0965  0.0403
18872W        W36396   2.677   8.167  12.423 -0.1509 -0.2216 -0.0155
18873W        W36397   1.522   5.267  15.509 -0.4125 -0.0835 -0.2368
18874W        W36398   6.565   3.581  12.394  0.2726 -0.2018  0.3344
18875W        W36399  17.474  11.467  14.339 -0.1791  0.0469 -0.0747
18876W        W36400  16.379  10.866   3.323 -0.2360  0.1819  0.0534
18877W        W36401  10.154  16.178  12.680 -0.1905  0.1317  0.0111
18878W        W36402   2.539   8.086  13.274 -0.3510 -0.1792 -0.0878
18879W        W36403  16.152   0.681   3.466 -0.3366 -0.2792  0.0601
18880W        W36404   9.798   7.850  14.683 -0.0044 -0.2667 -0.4004
18881W        W36405  13.656  12.785  14.950  0.1331  0.0260  0.0115
18882W        W36406   9.056  12.209   5.976 -0.0022  0.1785 -0.0467
18883W        W36407   1.989   0.595   1.226 -0.1803 -0.2240  0.1251
18884W        W36408  11.035   4.551   1.013 -0.1521 -0.1637 -0.0412
18885W        W36409   5.175  16.433  16.317 -0.5151  0.0182 -0.0249
18886W        W36410  16.276   2.662   2.114  0.1788  0.1080  0.2664
18887W        W36411  15.883   7.905   4.144 -0.3038 -0.1373 -0.0930
18888W        W36412   1.159  13.972  14.715 -0.0192 -0.1317  0.1556
18889W        W36413  15.613   9.597   4.689  0.0765  0.0251  0.1440
18890W        W36414  11.097  12.321  14.229  0.0980  0.0221 -0.1507
18891W        W36415   7.081  15.459   3.211 -0.1020  0.1832  0.0203
18892W        W36416  15.069  11.400  14.603  0.5169  0.1559 -0.3437
18893W        W36417  15.339  12.498  15.326 -0.0903 -0.0235 -0.2901
18894W        W36418  13.293  10.719  12.357  0.3043  0.1235  0.0748
18895W        W36419   1.245  10.426  11.276 -0.1516 -0.2114 -0.2138
18896W        W36420  11.670   7.496   0.851 -0.1017  0.1596  0.1298
18897W        W36421  11.303  15.126   5.430  0.1529  0.0466  0.0322
18898W        W36422   7.708  11.841  15.376  0.0054  0.2008 -0.0680
18899W        W36423  15.203  13.058   0.130 -0.3052  0.0799  0.0936
18900W        W36424   1.076   5.574   1.758 -0.3037 -0.1869 -0.2351
18901W        W36425   5.207   7.162   0.103 -0.3504 -0.0923 -0.3756
18902W        W36426   0.570  10.999  11.663  0.3682 -0.1165  0.2671
18903W        W36427   6.669   5.874   3.597  0.0606  0.1386 -0.2204
18904W        W36428  14.285   1.417  15.367 -0.2960 -0.0973  0.2024
18905W        W36429  13.154   2.332  15.449  0.2381 -0.0341 -0.1796
18906W        W36430   7.766   1.909  12.807  0.0062  0.0729  0.1578
18907W        W36431  11.326   8.969  16.208 -0.1544  0.1225 -0.2806
18908W        W36432  15.495  16.485   3.051  0.2782 -0.1508  0.3764
18909W        W36433   4.796   2.648  15.257 -0.2371 -0.1564  0.3229
18910W        W36434  10.373  16.030  12.100  0.0618  0.0968 -0.0709
18911W        W36435   6.793   4.923   1.392 -0.0553  0.2776 -0.3726
18912W        W36436   2.382  17.867   3.728 -0.1389 -0.1428  0.1400
18913W        W36437   2.549  15.612  16.388  0.1013  0.0169  0.1725
18914W        W36438   5.436  12.271   4.124  0.0239 -0.1543  0.0763
18915W        W36439   9.963  14.516   0.273  0.0674  0.0438  0.1552
18916W        W36440  17.015  13.207   3.841 -0.1644  0.3000 -0.1133
18917W        W36441   4.785  16.775  12.706  0.1941 -0.1329  0.1908
18918W        W36442  12.914  17.704   2.979  0.1276  0.2759 -0.1227
18919W        W36443   6.090   4.183   4.305  0.4331 -0.0826 -0.0370
18920W        W36444  14.708   9.754  12.255 -0.1387  0.0377  0.3410
18921W        W36445  15.703   1.139   0.251 -0.0237 -0.1604 -0.1608
18922W        W36446  15.896  10.183   2.598  0.1553  0.1038 -0.0587
18923W        W36447  15.046  10.428  14.517 -0.0753 -0.2397  0.1960
18924W        W36448   9.578   3.690   1.947 -0.1171 -0.0651 -0.1120
18925W        W36449   0.985   0.132   2.119  0.0729  0.2554 -0.1489
18926W        W36450  10.406  16.794  12.345  0.2989  0.0836 -0.2678
18927W        W36451   6.262  13.060  13.393 -0.0328 -0.1901  0.5478
18928W        W36452   0.682  15.087  12.344 -0.2144 -0.0754 -0.1417
18929W        W36453  17.628   9.854  16.034 -0.0837 -0.1863  0.0519
18930W        W36454  15.620   8.031  14.617 -0.2565  0.3953 -0.1564
18931W        W36455   8.195   7.214  10.551  0.0460 -0.1144  0.0300
18932W        W36456  10.084   1.151  15.427 -0.1717  0.0228 -0.1884
18933W        W36457  16.393  13.967  12.278 -0.0253  0.0728 -0.0583
18934W        W36458   7.076  16.641   5.123  0.2009  0.0102 -0.1489
18935W        W36459   1.656  16.003   4.779  0.1283 -0.1645 -0.2316
18936W        W36460  14.270   4.265   0.867 -0.2151 -0.0158 -0.3414
18937W        W36461   0.894  13.522  13.453  0.3585  0.0354  0.0419
18938W        W36462  14.937  16.216  15.630  0.0656  0.2248 -0.0781
18939W        W36463   8.722  13.581   4.022 -0.1643  0.3448  0.0559
18940W        W36464  15.324  16.511   1.171 -0.2514 -0.0397  0.4403
18941W        W36465   4.900   3.835   3.837  0.0688  0.0143  0.1869
18942W        W36466  16.054   7.335  12.549 -0.3056  0.0528  0.0436
18943W        W36467   2.497   4.954  16.457  0.0288 -0.2297 -0.0828
18944W        W36468  14.545  13.325  13.586 -0.3391  0.1862  0.0402
18945W        W36469  17.943   4.710  13.986  0.1971  0.0140  0.0151
18946W        W36470   8.892   2.006   3.863  0.2303 -0.2426 -0.2339
18947W        W36471   9.674   8.176   5.223 -0.4321  0.1496 -0.2400
18948W        W36472   2.014  14.114  11.825 -0.3805 -0.1925 -0.1149
18949W        W36473   4.138  17.781  15.005  0.1291  0.0988 -0.1540
18950W        W36474  10.211  12.882   5.223 -0.0203  0.0497 -0.0878
18951W        W36475  15.859   2.314  14.655  0.3041 -0.0327 -0.3109
18952W        W36476   4.394  11.705   3.773 -0.1639 -0.0125  0.0929
18953W        W36477   5.693   0.055  14.242  0.1635 -0.0607  0.1575
18954W        W36478   2.003  11.022   2.343 -0.0322 -0.0129  0.3228
18955W        W36479   6.483   0.259  14.678 -0.0034 -0.2453  0.1203
18956W        W36480   1.253   5.353   4.843  0.2012 -0.2021  0.1848
18957W        W36481  10.652   9.465   2.800  0.3423 -0.0322  0.1029
18958W        W36482   3.782  14.433  11.825  0.0631 -0.1613  0.0700
18959W        W36483   4.613   6.615  15.672  0.0258 -0.3017 -0.1903
18960W        W36484  15.417  13.113   3.124  0.1789 -0.2800  0.1760
18961W        W36485  13.570  11.914   2.466  0.1482  0.2720  0.1633
18962W        W36486   7.437  11.040   4.229  0.0879  0.0783 -0.1178
18963W        W36487   9.144   2.497  14.849  0.2123 -0.1629 -0.0016
18964W        W36488  17.141   0.448  12.228 -0.0546 -0.2233  0.0225
18965W        W36489  14.021  17.004  15.225  0.2092  0.0523  0.0886
18966W        W36490  15.606   3.763   4.565  0.0874  0.1197  0.1128
18967W        W36491  10.237   6.133   1.481 -0.1347  0.3452  0.0518
18968W        W36492   8.296  14.316   3.557 -0.3079  0.1106  0.2128
18969W        W36493   2.723   4.100  12.850 -0.1036 -0.2733  0.0481
18970W        W36494   0.630   7.940   0.921  0.2969  0.3425 -0.1520
18971W        W36495   9.928  14.086  15.504 -0.1372  0.3348 -0.0609
18972W        W36496  16.360  16.595   1.996 -0.1240 -0.2173  0.3642
18973W        W36497  16.464  16.338   2.944 -0.0173 -0.0091 -0.2899
18974W        W36498  12.342   5.694   2.592  0.2997 -0.4033  0.0148
18975W        W36499   6.337  11.731   5.090 -0.2195  0.2086 -0.1352
18976W        W36500  14.359  13.715   4.699  0.2432  0.0386  0.2389
18977W        W36501   4.397   0.795  11.974 -0.2687  0.2101  0.3398
18978W        W36502   1.769   1.665   0.061  0.1303  0.0211  0.0590
18979W        W36503   7.998  10.725   5.394  0.0360 -0.1074 -0.1050
18980W        W36504  15.140  14.981  13.798  0.0273 -0.1385  0.0567
18981W        W36505  12.427   4.106  16.403 -0.0528  0.4222  0.0364
18982W        W36506  13.130   7.966   0.893  0.0602 -0.0025  0.1853
18983W        W36507  13.447   0.515  16.168  0.1011 -0.0715  0.0236
18984W        W36508  17.967  16.854  16.079 -0.0783 -0.1618  0.0126
18985W        W36509  14.466  15.446  13.261  0.1851  0.0983  0.0730
18986W        W36510  14.133  16.456   0.130 -0.0837 -0.1093 -0.1114
18987W        W36511   3.940  10.584   1.231 -0.1348 -0.1204  0.2452
18988W        W36512   5.669   1.496  13.917  0.1357 -0.0007 -0.0985
18989W        W36513   9.217   1.260  15.936 -0.0450  0.0418 -0.1036
18990W        W36514   5.453   7.493  13.964 -0.3707  0.1072  0.1833
18991W        W36515  14.791  13.010  16.307  0.1539 -0.1684  0.0862
18992W        W36516   9.649   9.450   3.251 -0.1714  0.1580 -0.2986
18993W        W36517   3.857   0.080   4.593  0.0180 -0.0227 -0.3580
18994W        W36518  15.147  17.135   2.179  0.0428  0.5064  0.0798
18995W        W36519   1.695   7.288   1.673  0.4147 -0.1027 -0.1493
18996W        W36520   7.186  17.760  15.750  0.1865 -0.0253  0.1016
18997W        W36521   7.301   7.170  15.452 -0.2733 -0.1249  0.2154
18998W        W36522   0.741   1.949  12.656  0.1546 -0.2254 -0.1354
18999W        W36523  10.382  14.776  10.779  0.0980 -0.2375  0.0239
19000W        W36524   5.578   0.403   4.222  0.1500  0.0311 -0.0967
19001W        W36525   4.823  13.156  12.803 -0.1839  0.0651 -0.1645
19002W        W36526   8.923   5.821   3.767  0.0553 -0.0281  0.2093
19003W        W36527   4.153   3.673   4.160  0.0704 -0.2288 -0.0193
19004W        W36528   6.562  15.311   2.304  0.0479  0.0398 -0.3159
19005W        W36529   6.077   5.960   1.467 -0.2177 -0.0861  0.1976
19006W        W36530  17.001   4.542  12.156  0.0238  0.0008  0.1504
19007W        W36531  11.974  15.520   2.784  0.5929  0.0144  0.0423
19008W        W36532   3.067  14.120   2.670 -0.2401 -0.2341 -0.2989
19009W        W36533   1.121  13.922   1.232 -0.0026 -0.0177  0.1684
19010W        W36534  17.250  12.532  15.698 -0.0498  0.2261 -0.1533
19011W        W36535  11.515   7.401  14.511 -0.2083 -0.2991  0.2988
19012W        W36536  10.632   6.792   2.539  0.2604 -0.0136 -0.0959
19013W        W36537   4.120  11.119  14.550  0.2164  0.1632  0.0293
19014W        W36538   2.523   9.174  16.257 -0.2114 -0.0065 -0.0406
19015W        W36539  11.038  15.580  14.261 -0.0223 -0.1888  0.0275
19016W        W36540   4.546   7.337  14.940 -0.1132  0.0022  0.1819
19017W        W36541   5.599   6.551   2.545 -0.3115  0.1196 -0.1997
19018W        W36542   2.841  11.053  13.300 -0.0988  0.2280  0.0521
19019W        W36543   1.028   1.316   2.451  0.0044 -0.3038 -0.1053
19020W        W36544   5.915  14.378   4.604 -0.2428 -0.0510 -0.0672
19021W        W36545  16.019  11.703   3.779 -0.2194 -0.0086 -0.0140
19022W        W36546  10.648   7.592   0.468  0.1252 -0.0180 -0.0841
19023W        W36547   8.305   8.855  13.560 -0.0155 -0.1103  0.1870
19024W        W36548   5.041  14.954  12.115  0.1045 -0.1269  0.2024
19025W        W36549  10.514  11.947   1.684  0.2453 -0.0104  0.0770
19026W        W36550  10.023  13.719   0.350  0.1329 -0.2020  0.1232
19027W        W36551  14.274   8.415   0.270  0.2644  0.1913 -0.1227
19028W        W36552  16.221  16.246   0.079  0.1874  0.0065  0.0274
19029W        W36553  17.794   2.663   0.447  0.0299  0.0746  0.0021
19030W        W36554   5.395  10.020  11.274  0.0299  0.0032 -0.1763
19031W        W36555   3.163  13.312  14.609  0.0027  0.0625  0.0713
19032W        W36556   8.943   7.933   2.120  0.1449 -0.2240  0.1279
19033W        W36557  14.313   6.508  14.239 -0.5103 -0.0897  0.0842
19034W        W36558   6.417   8.855  16.299  0.0395 -0.0956 -0.1539
19035W        W36559  16.188  15.694   3.890 -0.0962  0.0019  0.0993
19036W        W36560  17.844  17.873   4.797 -0.4643  0.3612 -0.2996
19037W        W36561  16.991   9.052  13.280  0.0448  0.2673 -0.2153
19038W        W36562  10.065  14.497  12.832 -0.0870 -0.3063  0.0169
19039W        W36563   5.894  14.727  12.382 -0.3610  0.1257  0.0658
19040W        W36564  11.212  17.026  13.616  0.2088 -0.1305 -0.0068
19041W        W36565   5.646   4.002  13.894 -0.2137 -0.1705 -0.0908
19042W        W36566  17.348  11.688  15.136 -0.0824 -0.2849 -0.2579
19043W        W36567  11.499  16.090   1.639  0.0175  0.0643  0.1502
19044W        W36568   7.689  16.646  14.960 -0.4048 -0.2667 -0.1413
19045W        W36569  10.805  16.103   0.998 -0.2194 -0.1247  0.1367
19046W        W36570   2.792   4.989  11.720 -0.1904  0.2676  0.0158
19047W        W36571   5.504  14.717  15.976 -0.1784  0.1764  0.2052
19048W        W36572  12.273  15.735  13.224 -0.2965 -0.4200  0.3715
19049W        W36573   1.840  14.400  13.075  0.0664 -0.1212  0.1648
19050W        W36574  10.943  10.940  14.704 -0.2388 -0.1382  0.0458
19051W        W36575   4.328  17.266   3.395 -0.1254 -0.4021 -0.0095
19052W        W36576   1.062   1.470  15.941 -0.1018  0.2369  0.2174
19053W        W36577   2.005  17.309   4.103 -0.2636 -0.3088 -0.2489
19054W        W36578  17.729  10.945  12.258  0.2130  0.0577  0.1927
19055W        W36579   5.445  17.126   1.323 -0.3312  0.1708  0.1626
19056W        W36580  13.231   5.911   5.310  0.0457  0.2003  0.1940
19057W        W36581   6.865   9.743  14.701  0.0521  0.1430  0.1355
19058W        W36582   6.735   4.044   3.476 -0.0792 -0.1551  0.2676
19059W        W36583  13.986  13.723   0.133 -0.0118 -0.0582 -0.0368
19060W        W36584  16.283   8.313   4.088 -0.0197  0.1142  0.1833
19061W        W36585   3.270   8.399  11.344  0.0626  0.2526  0.0109
19062W        W36586  17.444  12.186  15.380  0.0973 -0.2632  0.3618
19063W        W36587  15.749   5.753   1.638  0.0436  0.0016 -0.3568
19064W        W36588   6.919   3.913   4.671  0.1850 -0.0537 -0.0146
19065W        W36589  11.888   1.353   1.547 -0.0017  0.1860 -0.1478
19066W        W36590  14.191   5.587  13.823 -0.0461 -0.0029  0.0602
19067W        W36591  10.951  17.546   3.882  0.0153  0.0343  0.0018
19068W        W36592  15.823   3.573   1.954  0.3393 -0.0561  0.1562
19069W        W36593  13.070   0.993   2.656  0.0761  0.3125 -0.0970
19070W        W36594  11.667   8.604   2.339  0.3956 -0.0434  0.1734
19071W        W36595   3.243  11.489   0.405 -0.1844 -0.0438 -0.0383
19072W        W36596  12.091   9.394  12.203 -0.0322 -0.0174 -0.3391
19073W        W36597  13.750   3.287   1.829  0.1752  0.0150  0.1097
19074W        W36598  13.755  15.833   1.362  0.1050 -0.4038 -0.0656
19075W        W36599   9.698  16.109  14.561 -0.0768 -0.0353 -0.0486
19076W        W36600  10.783  15.230  12.071  0.1711 -0.0206 -0.0933
19077W        W36601   6.476   8.034  13.464  0.1374 -0.0351 -0.3212
19078W        W36602   8.451   7.150  11.504 -0.0836  0.1975 -0.0925
19079W        W36603  14.780  10.027  11.486 -0.1115  0.2607 -0.1532
19080W        W36604   2.647  14.438  12.689 -0.0113  0.0466  0.0411
19081W        W36605   0.492  14.076   0.314 -0.0625  0.0640 -0.2595
19082W        W36606   1.191  10.438   2.040  0.2348 -0.0142  0.0282
19083W        W36607  16.371  17.699  13.746  0.0587 -0.1759  0.2634
19084W        W36608  11.266  17.248  14.462 -0.1249 -0.0687 -0.1330
19085W        W36609   7.563   6.138  11.330  0.0722 -0.0569 -0.0694
19086W        W36610   1.777  15.181   0.581 -0.1266 -0.0585  0.0389
19087W        W36611   3.927   8.280  11.230 -0.0963 -0.0602 -0.0980
19088W        W36612  11.594   6.738  13.505 -0.2248  0.4918  0.1339
19089W        W36613   8.266  12.904  16.058 -0.1515 -0.0761  0.0212
19090W        W36614  13.829   5.151  15.040  0.1277 -0.1466  0.1100
19091W        W36615   5.692   6.257  15.042 -0.0132 -0.1324  0.3498
19092W        W36616   1.269   8.433   4.682 -0.1440 -0.3257  0.4945
19093W        W36617  14.474   0.373   0.436 -0.1646  0.0960 -0.2326
19094W        W36618  13.148  12.308  15.024  0.0295  0.1720 -0.1359
19095W        W36619  10.326   2.097  12.733  0.0352 -0.4529 -0.0923
19096W        W36620   4.434  13.193  15.848  0.2380  0.0847  0.1278
19097W        W36621   6.124   6.957   1.343  0.0834  0.5066  0.2265
19098W        W36622  11.028   0.192   4.527 -0.0415  0.4983 -0.2307
19099W        W36623  14.823   0.520   5.409 -0.0404  0.0185 -0.2123
19100W        W36624  14.507   7.360  15.419  0.0836  0.0261  0.3265
19101W        W36625   9.214  14.699   3.572 -0.0904 -0.3473  0.0579
19102W        W36626  15.134   2.750  14.533 -0.0157 -0.0573  0.1587
19103W        W36627   4.802  11.404  13.915  0.1391  0.0219  0.0707
19104W        W36628  16.929  14.617  16.071 -0.0538  0.0719 -0.1311
19105W        W36629   5.219   8.401  11.233 -0.2657  0.0460 -0.2975
19106W        W36630   6.005   3.786  15.604 -0.0242  0.1497  0.0589
19107W        W36631  13.033   0.910  12.134 -0.1759  0.0119  0.1873
19108W        W36632  16.858  16.906  16.037  0.1633  0.5574 -0.0107
19109W        W36633   2.116   4.905  11.112  0.0701 -0.5525  0.1390
19110W        W36634  12.552  15.695   2.659 -0.3165 -0.2310 -0.1397
19111W        W36635   1.234  17.379  12.104 -0.0596 -0.0656 -0.0575
19112W        W36636  15.873   5.082   3.195 -0.0885 -0.2757  0.1983
19113W        W36637   3.707   0.469  12.961  0.1886 -0.1483 -0.0172
19114W        W36638   8.579  13.941  16.138  0.1486 -0.0320 -0.2017
19115W        W36639   7.797   6.421  13.013 -0.0395  0.2614 -0.0592
19116W        W36640  14.613  17.680  15.330  0.1746 -0.2793  0.1579
19117W        W36641  15.263   4.833  11.418  0.2407  0.2272 -0.0398
19118W        W36642  13.814  14.646  14.359 -0.3910 -0.1038 -0.1128
19119W        W36643  13.563   1.915   0.045  0.0222 -0.0508  0.0084
19120W        W36644   3.243  14.394  11.812  0.1743 -0.0340 -0.1799
19121W        W36645   7.035   8.101   3.386  0.0465 -0.1257  0.2164
19122W        W36646   4.855   2.036   1.949 -0.1916 -0.2525  0.1547
19123W        W36647   1.030   3.017  15.863 -0.0068 -0.1271  0.0157
19124W        W36648   5.271   2.618   0.183 -0.2417 -0.3627 -0.1476
19125W        W36649   3.893  14.526   0.181  0.1389 -0.0116 -0.1681
19126W        W36650   9.121   7.449  12.932  0.0067 -0.2995 -0.1522
19127W        W36651  10.555   2.303   4.854  0.2984  0.0371  0.0882
19128W        W36652   7.048  15.692   4.795  0.0233  0.1005 -0.1129
19129W        W36653   4.820   3.493   0.897  0.0234  0.1393  0.0708
19130W        W36654   3.451   5.059  14.236 -0.1898 -0.0144 -0.0416
19131W        W36655   2.309   4.535  13.047 -0.0128 -0.0037 -0.1569
19132W        W36656  11.655  13.585  14.448 -0.1251  0.0141 -0.1962
19133W        W36657   8.270   4.288  13.192 -0.1128 -0.0177 -0.0262
19134W        W36658   9.659  12.754  14.745 -0.3596 -0.1503 -0.0669
19135W        W36659   8.596   3.307  13.432  0.0827  0.0573 -0.2039
19136W        W36660  15.419  14.670   0.155 -0.1922 -0.1980  0.0876
19137W        W36661   0.605  14.146  12.053  0.0065 -0.0393 -0.2657
19138W        W36662  12.020   2.052  12.308  0.1257  0.0408 -0.1498
19139W        W36663   9.624  10.283   0.271  0.3892 -0.0733  0.1496
19140W        W36664   2.905  16.284   2.761  0.4506 -0.0259  0.0619
19141W        W36665  10.569  17.235   1.851 -0.1674 -0.1540  0.0123
19142W        W36666  10.330   2.205   1.963  0.2010  0.0545  0.0141
19143W        W36667  11.938  15.888  14.216  0.1473  0.4046  0.3119
19144W        W36668   0.689  10.780   1.196  0.0193 -0.2622  0.0323
19145W        W36669  12.212   8.570  14.096  0.0764 -0.0939 -0.1119
19146W        W36670  17.285   3.972   2.804  0.1711  0.1497 -0.2792
19147W        W36671   6.442  11.705  13.190  0.1728  0.0822 -0.1575
19148W        W36672   7.604  13.858   2.651  0.1051 -0.1524  0.3127
19149W        W36673  15.288   0.959  15.824 -0.1872  0.0354  0.0655
19150W        W36674  10.734  17.051  12.581  0.2442  0.1708 -0.1248
19151W        W36675  15.402   2.761   4.560 -0.0701  0.1456  0.0248
19152W        W36676  10.829   5.708  12.229 -0.2538 -0.1962  0.5073
19153W        W36677   9.545   4.070   3.366  0.1756  0.1284 -0.0712
19154W        W36678  14.724  15.590   1.663 -0.0893 -0.3838  0.3747
19155W        W36679   8.980  13.284  14.546 -0.0277  0.1104  0.1054
19156W        W36680  12.191   5.613  14.458  0.0462 -0.1409 -0.0116
19157W        W36681   2.827   1.117   6.241 -0.2165 -0.0797  0.2186
19158W        W36682   9.546   7.186   5.095 -0.2000  0.0490  0.0681
19159W        W36683  11.295  14.941   2.545  0.0905  0.4554 -0.2079
19160W        W36684   7.592  16.947   5.208  0.0289 -0.3220  0.0636
19161W        W36685   4.539  17.416   0.097 -0.1239  0.0026 -0.1350
19162W        W36686   9.385   6.190   4.049 -0.2037  0.1978  0.1454
19163W        W36687  11.723   5.675  13.726 -0.1357  0.0170 -0.2234
19164W        W36688  16.605   9.302  14.663  0.0522  0.0719  0.1127
19165W        W36689  15.728   0.837   5.128 -0.0646  0.0825 -0.0920
19166W        W36690  10.435   6.096  13.195  0.2046 -0.1492  0.0004
19167W        W36691  15.113   6.054   5.013  0.0136 -0.2246  0.3114
19168W        W36692  14.761   8.723   4.250 -0.1147  0.1281  0.4110
19169W        W36693  16.020  14.987  16.209 -0.1043  0.2722  0.0200
19170W        W36694   3.006  17.536   2.877 -0.1883 -0.1096 -0.0290
19171W        W36695  10.824   5.124   2.707  0.0853  0.2036 -0.0822
19172W        W36696  13.059  13.497   3.335  0.0804  0.0644  0.1024
19173W        W36697   0.836   6.679  15.211  0.3767  0.2484 -0.2298
19174W        W36698   6.908  11.905  13.339  0.2666 -0.0811  0.4135
19175W        W36699  12.858   9.410  15.546 -0.4639  0.0645 -0.1782
19176W        W36700   9.687  17.089   1.156 -0.0410 -0.3700 -0.1726
19177W        W36701  11.922  14.337  15.958  0.1993 -0.1163  0.2466
19178W        W36702   4.218   2.950   4.832  0.0137 -0.2639  0.1215
19179W        W36703  10.983  12.122  12.552 -0.0205 -0.1987  0.2434
19180W        W36704   3.050  16.545   1.341  0.0408 -0.2089 -0.2464
19181W        W36705  12.448  16.907  12.530 -0.0771  0.4118  0.1793
19182W        W36706   5.158   3.416   1.904 -0.3423  0.0013  0.0921
19183W        W36707  12.718   8.152   1.080  0.0882  0.1297 -0.1400
19184W        W36708  14.000   4.163   2.411  0.2569  0.3864 -0.0582
19185W        W36709  10.492   5.332   0.366 -0.3704 -0.0957  0.0904
19186W        W36710   3.514   1.558   4.206  0.0462  0.2040 -0.0016
19187W        W36711   6.368   9.464  11.186  0.4235  0.0147  0.0182
19188W        W36712  12.741   9.879  14.407 -0.0365 -0.2760  0.3999
19189W        W36713   0.556   8.256  12.647 -0.0038  0.1164 -0.0693
19190W        W36714  11.437   9.088  15.555 -0.0910  0.0443 -0.0641
19191W        W36715   2.601  13.136  11.834 -0.1442 -0.3915  0.1209
19192W        W36716  11.755  11.134   5.182 -0.0361 -0.1951  0.1742
19193W        W36717   7.756   7.899   4.718 -0.2070 -0.0637 -0.0434
19194W        W36718  17.481  15.253  13.223 -0.0856  0.1326 -0.1349
19195W        W36719  13.766   9.129   0.331 -0.1073 -0.3716  0.1347
19196W        W36720   9.172  13.153  11.541 -0.2944  0.2227 -0.1571
19197W        W36721   8.946  17.182  13.620 -0.0680 -0.0558 -0.1457
19198W        W36722   2.368   2.377  13.858 -0.1100 -0.1935 -0.0893
19199W        W36723  17.052   5.408   1.344 -0.0800  0.3117 -0.1173
19200W        W36724  10.628   9.971  14.703 -0.1411 -0.1154 -0.2456
19201W        W36725  14.896   0.037   0.240 -0.0631 -0.3648 -0.0152
19202W        W36726   4.577   7.585   4.301 -0.0553  0.2044 -0.3108
19203W        W36727  13.162   0.542  13.774  0.2682  0.0434  0.0202
19204W        W36728  11.259   2.117  10.164 -0.1955 -0.2624  0.0852
19205W        W36729  12.172  17.810   3.704 -0.0975 -0.1534  0.1710
19206W        W36730  11.633   2.630   1.834 -0.0222 -0.1538  0.3310
19207W        W36731  11.746  10.209  12.613 -0.0440 -0.1133  0.1098
19208W        W36732   9.182   1.151  14.070  0.0720 -0.0225 -0.2668
19209W        W36733   0.800  11.329   2.027  0.0136 -0.2228 -0.2098
19210W        W36734  15.737   2.791  12.540 -0.0620 -0.0136 -0.1118
19211W        W36735   5.059  12.330   0.423  0.2902 -0.1788  0.1802
19212W        W36736   9.933  12.695  12.912 -0.1940 -0.0529  0.3423
19213W        W36737  14.390   2.572  14.058 -0.0381 -0.1536  0.1254
19214W        W36738   6.089  14.807   1.249  0.0412  0.0149 -0.6630
19215W        W36739  10.221   7.649   4.431 -0.2003  0.0610 -0.0310
19216W        W36740   0.820   3.683  12.653  0.2533 -0.0527  0.2102
19217W        W36741  13.474  10.458  13.607 -0.2812 -0.2539  0.0143
19218W        W36742  12.515   8.504  14.496  0.2221 -0.0934  0.0971
19219W        W36743   1.006   5.121  11.552  0.2279  0.1298 -0.1273
19220W        W36744   9.262  14.432   4.213 -0.1225 -0.0582  0.0316
19221W        W36745  11.955   4.470  14.324  0.2785  0.3943 -0.1888
19222W        W36746  14.865   2.001  16.196  0.0051 -0.0252 -0.1995
19223W        W36747  17.935  13.089  12.528 -0.2397  0.0343  0.1412
19224W        W36748   0.969   8.841   3.096  0.0231 -0.1915 -0.2886
19225W        W36749   0.898   0.709  15.631 -0.0338 -0.2280  0.2166
19226W        W36750  13.143  14.687   4.252 -0.3294 -0.0270  0.0541
19227W        W36751   9.468  16.879  12.732 -0.1726  0.1174 -0.1379
19228W        W36752   6.031  11.153   0.535  0.1184  0.0850  0.3311
19229W        W36753   7.436   5.828   1.314  0.1746 -0.1905 -0.1559
19230W        W36754   0.744   4.788  11.873 -0.2320  0.0780 -0.1676
19231W        W36755   2.095  16.956  13.481  0.3555  0.0339 -0.0284
19232W        W36756   6.425   1.951  12.079  0.1239 -0.1247 -0.0411
19233W        W36757  17.523  12.773  15.284 -0.1459  0.0142  0.0260
19234W        W36758   1.489   1.481  14.474 -0.0964  0.0762 -0.0818
19235W        W36759  11.009  14.060  14.702 -0.3307 -0.1014 -0.1903
19236W        W36760   4.835   2.248   0.974  0.1274 -0.1596  0.0643
19237W        W36761   2.757   9.688  10.418  0.2691 -0.0996 -0.0308
19238W        W36762   8.484   9.021  12.530 -0.1588 -0.1809 -0.2761
19239W        W36763  10.716   6.939   4.733 -0.1029  0.0332  0.4300
19240W        W36764  14.730  13.738  11.685 -0.0817  0.0598  0.4424
19241W        W36765   6.641  17.274   0.309  0.3182  0.2846  0.2941
19242W        W36766   2.969  10.393  10.776  0.0314  0.0416 -0.0175
19243W        W36767  10.796   1.393   5.060  0.1578  0.0935  0.0439
19244W        W36768   9.673   0.347  15.330 -0.0026  0.1442 -0.2557
19245W        W36769  13.967   5.923  14.252  0.1122 -0.0738  0.1850
19246W        W36770  14.308   6.252   1.896  0.0332  0.2587 -0.1029
19247W        W36771   0.476   8.008   3.027 -0.1985  0.4674 -0.0377
19248W        W36772  14.204  17.249  14.247  0.1352 -0.0436  0.2171
19249W        W36773  16.863  15.040  15.787 -0.2109  0.3636 -0.1856
19250W        W36774   0.303   9.062   0.942 -0.1000  0.1478 -0.0812
19251W        W36775   3.013   9.000   4.586  0.1397 -0.0702  0.3331
19252W        W36776   6.413   4.031   3.935 -0.1173  0.3599 -0.1406
19253W        W36777  10.773   2.431  11.930  0.1554 -0.0740  0.1053
19254W        W36778  16.781  14.101   2.167 -0.3567 -0.2179  0.0337
19255W        W36779   0.927   1.478   3.409  0.3018 -0.2785  0.1213
19256W        W36780  11.034  10.191   3.051 -0.3398 -0.0822 -0.0466
19257W        W36781   1.169   6.181   1.998 -0.1563 -0.1129  0.0400
19258W        W36782  13.795   7.985  15.886 -0.2755  0.2177  0.1323
19259W        W36783   3.808  12.768   4.039  0.3168  0.1853  0.1542
19260W        W36784  13.735   6.191   2.785  0.1086  0.0098  0.2254
19261W        W36785  17.840  17.757  15.063 -0.0343  0.0751  0.2429
19262W        W36786  10.984   1.145  12.353 -0.0555 -0.0332  0.0239
19263W        W36787   8.015  16.658  12.726 -0.1813 -0.1513 -0.0549
19264W        W36788   4.399  16.373  16.035  0.1816  0.0644 -0.3663
19265W        W36789   0.275  17.076   3.203  0.3037 -0.4038 -0.1317
19266W        W36790  11.383  14.924   3.751  0.2111 -0.0979  0.0031
19267W        W36791  15.173   3.654  14.933  0.0614 -0.2978 -0.0033
19268W        W36792  14.328   4.880   5.192  0.1277  0.0863  0.0346
19269W        W36793   3.660   3.747  12.935  0.1248 -0.0190  0.4462
19270W        W36794   8.528   5.025  11.313  0.0190  0.1517  0.0757
19271W        W36795   3.191  11.934   2.244  0.0034  0.0414  0.0858
19272W        W36796  12.625   0.262  11.884  0.1148 -0.0238  0.0424
19273W        W36797   1.374   3.173  11.895  0.0528  0.0263 -0.1022
19274W        W36798   5.504   0.594  14.852  0.0301 -0.0315 -0.1385
19275W        W36799   7.313  11.821   0.462 -0.0009  0.0767  0.0446
19276W        W36800   3.684   0.627  15.385 -0.2799 -0.0457  0.2015
19277W        W36801  16.864   5.050   4.289  0.1666  0.1395  0.2938
19278W        W36802   0.454  11.375   5.062 -0.1442 -0.2228  0.0165
19279W        W36803   6.746  11.282  13.057 -0.1261  0.2212  0.0616
19280W        W36804   9.729   6.185   1.113  0.0239  0.3063 -0.1482
19281W        W36805   8.188  14.246   0.873  0.3595 -0.1112 -0.2666
19282W        W36806  11.056  16.368  12.875 -0.2749  0.0568  0.1903
19283W        W36807   8.529  14.929   2.909  0.2772  0.0608  0.1595
19284W        W36808   5.433  12.823  13.876  0.1490 -0.1343  0.2535
19285W        W36809  15.813  14.670   5.482 -0.1775  0.2053  0.0061
19286W        W36810   1.349  15.487   2.470  0.0327 -0.0063  0.1157
19287W        W36811   6.706  10.920   2.754 -0.1419  0.1232 -0.0737
19288W        W36812  14.364   7.746  15.075 -0.0665  0.0036 -0.1871
19289W        W36813   8.847  12.088  15.991  0.0948 -0.2765  0.1170
19290W        W36814   4.215   7.042  12.532  0.0130  0.1551 -0.1230
19291W        W36815   6.952  11.860   0.123  0.0225  0.2002  0.3894
19292W        W36816   3.112  11.185   4.162 -0.1700 -0.1621  0.0312
19293W        W36817  13.648  14.098   1.436 -0.0583 -0.0825  0.2579
19294W        W36818   3.504   7.980  12.059 -0.2252  0.1598  0.1765
19295W        W36819  14.075  17.699   4.428 -0.3974  0.1461 -0.0117
19296W        W36820  17.465  17.384   0.098 -0.3641  0.0659  0.3754
19297W        W36821  15.330   3.898   1.135 -0.0916  0.0343 -0.0420
19298W        W36822   7.318   8.573  13.169  0.0141 -0.2111  0.2872
19299W        W36823   0.121   4.320   3.597  0.1937 -0.3501 -0.0880
19300W        W36824   6.446  16.964   3.777 -0.0260  0.1115  0.2444
19301W        W36825   2.924  12.132  11.856  0.2491  0.0538 -0.0997
19302W        W36826  15.661   9.828  16.025 -0.3400  0.0004  0.1142
19303W        W36827   6.650   5.431  12.063 -0.1728 -0.2790  0.0665
19304W        W36828   7.190   6.437  16.041 -0.2006 -0.0313 -0.1993
19305W        W36829   2.092  14.446   0.065  0.2542  0.1079 -0.0216
19306W        W36830   0.701   3.409   2.923  0.1212 -0.2628 -0.4011
19307W        W36831   4.568   6.824  16.145 -0.1322  0.2674 -0.1064
19308W        W36832  14.222  17.225  15.841 -0.3569 -0.1368  0.0863
19309W        W36833  13.062  15.639  12.076 -0.1673  0.2385  0.0313
19310W        W36834  15.683  13.685  13.907  0.1360 -0.0554  0.0046
19311W        W36835   2.565  10.680  13.095 -0.1034 -0.6023  0.1868
19312W        W36836   3.258   2.232  12.273 -0.0362  0.0355 -0.0588
19313W        W36837   1.765  15.270  12.951  0.2945  0.3353  0.0369
19314W        W36838   6.500  12.495   6.310 -0.1155  0.3072 -0.3465
19315W        W36839  16.078  13.904   1.916  0.2456 -0.1022  0.1965
19316W        W36840  10.458   8.983   2.741  0.1543  0.0889  0.1591
19317W        W36841  14.765  13.031   4.423  0.0438 -0.0328 -0.1972
19318W        W36842  12.994  10.864   5.691 -0.3002  0.4235  0.3011
19319W        W36843   7.913  10.900  12.598 -0.0725  0.1539  0.1182
19320W        W36844   9.900  13.069  13.661  0.1245 -0.0797  0.0876
19321W        W36845   0.032   9.117   2.974  0.1506 -0.1036 -0.0161
19322W        W36846   5.281   2.805   2.553  0.0370 -0.0803 -0.3365
19323W        W36847   6.939   1.485  14.483  0.1605 -0.0695 -0.1135
19324W        W36848  15.685   8.444   2.952 -0.2423  0.3042  0.1240
19325W        W36849   0.913   2.879   4.001 -0.1297 -0.1315 -0.0009
19326W        W36850   9.242   3.536   2.378  0.0579 -0.3774 -0.2151
19327W        W36851   2.535  16.695   0.851  0.2967  0.1118 -0.1585
19328W        W36852  11.749  17.603   0.752  0.0578  0.2236 -0.1021
19329W        W36853   7.977   3.882  14.137  0.1607 -0.1508 -0.1827
19330W        W36854  14.884   7.298  14.192 -0.3020  0.2615  0.0450
19331W        W36855   2.641   8.583   2.973  0.1307 -0.0605  0.1276
19332W        W36856   2.579   5.762  14.299  0.0320 -0.2275 -0.1524
19333W        W36857  13.383  13.231  15.379 -0.1287 -0.1054  0.2031
19334W        W36858   0.944   6.805  12.282  0.0056  0.3537 -0.0655
19335W        W36859   0.627   0.271  11.633 -0.0112 -0.3222 -0.0329
19336W        W36860   3.198   7.745  14.262  0.2535 -0.1308 -0.0597
19337W        W36861  11.302  11.790  13.461 -0.0431  0.3532  0.1422
19338W        W36862   8.125  14.156   2.049 -0.0717  0.0984 -0.2158
19339W        W36863   9.759   3.197   6.193  0.1640  0.3086 -0.0968
19340W        W36864  14.719  17.548   0.265 -0.2024  0.0091  0.1248
19341W        W36865   9.142   9.715   4.023 -0.1022 -0.1237 -0.0976
19342W        W36866   7.283   9.571   1.723 -0.0516 -0.0728 -0.0859
19343W        W36867   9.128   7.054  13.212 -0.2440 -0.0143 -0.2667
19344W        W36868   3.156  16.546   3.583 -0.0535 -0.0410  0.2015
19345W        W36869  12.972   8.991  13.292  0.3382  0.0541 -0.2450
19346W        W36870   1.004  16.901   5.720  0.0880  0.0676 -0.3617
19347W        W36871   1.669   9.679   3.750  0.0780  0.3987 -0.0764
19348W        W36872  15.154  15.313   0.004  0.1177  0.1121 -0.1252
19349W        W36873   1.363   7.285  10.440 -0.1505 -0.0105  0.1253
19350W        W36874   5.444  11.200   2.460  0.3055 -0.0687 -0.2465
19351W        W36875   1.438   4.997   3.550 -0.1906 -0.1531  0.1875
19352W        W36876  16.017  14.535   1.033 -0.1890  0.2346  0.0766
19353W        W36877  17.793   8.339  11.133 -0.1518  0.0841 -0.0826
19354W        W36878   1.147  11.828   0.267 -0.0710 -0.0735 -0.3168
19355W        W36879   6.099  17.699   0.876 -0.1144 -0.0691 -0.3526
19356W        W36880   7.452  11.280  13.740  0.2841  0.0508 -0.2352
19357W        W36881  14.740   0.664   3.669  0.1021  0.2418 -0.1527
19358W        W36882   4.598   8.504   1.696 -0.3605  0.0399  0.1343
19359W        W36883   5.654   4.896   1.848 -0.0044 -0.0252 -0.1503
19360W        W36884   4.801  12.781  13.967 -0.1351 -0.0713  0.2372
19361W        W36885  14.184  16.375  12.701  0.0375 -0.1586  0.0536
19362W        W36886  17.942  17.200   1.888 -0.1616 -0.2310  0.0075
19363W        W36887  16.270  17.401   5.339  0.0886 -0.0811 -0.3500
19364W        W36888   3.856   6.813  16.007  0.3214  0.0007  0.1308
19365W        W36889   6.997  13.291  15.678 -0.2627  0.0234 -0.3664
19366W        W36890   6.633   2.053   3.025 -0.0462 -0.1953  0.1307
19367W        W36891   7.679   1.942  11.993  0.1141 -0.0736 -0.0170
19368W        W36892   5.343  17.089   0.485 -0.0142 -0.0041 -0.0109
19369W        W36893   3.107   9.400  14.303  0.0250 -0.1210 -0.1218
19370W        W36894   6.030  10.613   1.679  0.0860 -0.5983 -0.1944
19371W        W36895  16.497   6.285   1.093  0.1572  0.0241  0.0632
19372W        W36896  14.078   7.165   2.897 -0.0125  0.0228 -0.0142
19373W        W36897  15.526   5.430   3.416  0.1879 -0.1024  0.0083
19374W        W36898   2.075   1.856   3.902  0.0424 -0.2263 -0.0504
19375W        W36899   6.633   4.776   2.846 -0.0680 -0.2525  0.0248
19376W        W36900  14.006  14.953  14.691  0.0842  0.0493  0.0185
19377W        W36901   3.827   9.357  13.609 -0.0200  0.0947 -0.2992
19378W        W36902   7.885   7.273   1.679 -0.0822  0.1600 -0.0416
19379W        W36903  16.843  15.092   3.770 -0.0236 -0.1010 -0.0037
19380W        W36904   2.849   1.144  14.271  0.0223  0.0485  0.1092
19381W        W36905   8.943  17.849   1.719  0.0848  0.2780 -0.1669
19382W        W36906   8.383   8.120  15.610  0.2278 -0.2211 -0.0557
19383W        W36907  10.619   2.622  13.506  0.2854 -0.0147  0.1201
19384W        W36908   8.475   6.412   2.178 -0.1050 -0.1664  0.2324
19385W        W36909  10.193   9.864  15.079 -0.0850 -0.1001 -0.0072
19386W        W36910  14.834  14.219  11.403 -0.3785  0.0833 -0.1052
19387W        W36911   1.928   0.590   3.099 -0.0369 -0.1218  0.3926
19388W        W36912  12.334   1.465  13.243  0.1187  0.1188 -0.0667
19389W        W36913   8.686  13.599   3.081  0.1954 -0.0004  0.0126
19390W        W36914   8.743  14.240  12.266 -0.3304  0.1709  0.1527
19391W        W36915  13.092   7.866  12.054 -0.0376  0.0951  0.2049
19392W        W36916  13.372   4.350   1.790  0.0209 -0.2589 -0.2597
19393W        W36917   8.867  12.940  12.834  0.0269  0.0354  0.1517
19394W        W36918  16.638   4.307   5.254  0.1278  0.3286 -0.0055
19395W        W36919  10.862  15.742   2.331 -0.2971 -0.1775  0.0611
19396W        W36920  17.778  10.431  11.961  0.0099 -0.1383 -0.1495
19397W        W36921  10.581  13.423  11.519 -0.3208  0.0290  0.1311
19398W        W36922   6.853  13.152   1.389 -0.2510 -0.3893 -0.1300
19399W        W36923   8.112  10.449   4.844 -0.3166 -0.0050 -0.4525
19400W        W36924   7.317  14.971  14.890 -0.0271 -0.0086  0.2138
19401W        W36925  15.630   4.079  15.617 -0.0550  0.1690  0.0098
19402W        W36926   1.528  17.892  13.321 -0.1391 -0.0159  0.3175
19403W        W36927   1.725  16.516   3.802 -0.0082  0.0306 -0.1306
19404W        W36928   4.220  10.574  15.274 -0.0905  0.1192  0.0783
19405W        W36929  13.532   5.135   2.331  0.0890  0.0122 -0.0046
19406W        W36930  17.606  16.938  16.397  0.0229 -0.2131 -0.2967
19407W        W36931   5.146  10.026   4.196  0.1945 -0.0393 -0.1837
19408W        W36932   2.090   9.572  15.219 -0.1111  0.2819 -0.1389
19409W        W36933  12.781  11.310   3.528  0.2032  0.2725 -0.0900
19410W        W36934   3.028  13.501   0.726  0.6192 -0.1054 -0.2434
19411W        W36935   3.825   3.032  13.442 -0.1103  0.0924  0.1002
19412W        W36936  12.657   7.128  15.800  0.1212  0.0830  0.1263
19413W        W36937   3.806  11.400  12.641  0.0659 -0.0263  0.0040
19414W        W36938   9.629   6.596  15.195  0.0929  0.1081 -0.3393
19415W        W36939   5.554   1.429  14.397 -0.2072 -0.0161  0.1933
19416W        W36940  17.415   5.371  13.152 -0.0076 -0.1623 -0.3295
19417W        W36941  10.844   5.268  14.390  0.2296  0.0088 -0.0368
19418W        W36942  15.858  12.194  13.592  0.2825 -0.3189  0.1538
19419W        W36943   6.794  14.789  15.295  0.2826  0.2759  0.1117
19420W        W36944  13.138  12.531   0.595 -0.2195  0.1438  0.1999
19421W        W36945  10.160  17.658   4.236 -0.0877  0.0623 -0.2670
19422W        W36946  14.681   6.793  13.327 -0.0022 -0.3067  0.0748
19423W        W36947  12.620  11.559  12.233  0.0351 -0.0282  0.1407
19424W        W36948  17.833   8.092  16.286  0.2807 -0.1476 -0.4493
19425W        W36949  16.369   8.119  12.404 -0.2501  0.2072  0.0695
19426W        W36950   8.000  12.189   4.961  0.0919 -0.1648  0.0988
19427W        W36951  16.513   5.638  14.920  0.2083  0.1838  0.1065
19428W        W36952  16.335  17.840  12.140 -0.1150  0.3240  0.0318
19429W        W36953   7.266   1.689  14.210 -0.0547 -0.2344  0.1957
19430W        W36954   5.962  15.097  14.599  0.2035  0.0322 -0.1634
19431W        W36955  14.564  17.507  11.920  0.0845 -0.0302  0.0432
19432W        W36956   8.556  13.343   4.751  0.2898 -0.2167  0.1478
19433W        W36957  14.746  17.477   0.788 -0.0151 -0.0863 -0.1629
19434W        W36958   0.137  11.382  14.429  0.3366  0.1668 -0.0993
19435W        W36959  11.439  13.626   5.346  0.1390 -0.2549 -0.0762
19436W        W36960  10.513   3.560   5.072 -0.1724  0.0137  0.0046
19437W        W36961   3.630   6.029   5.287  0.4350  0.2706 -0.4159
19438W        W36962  11.325   1.102   0.066 -0.3376 -0.2687  0.0319
19439W        W36963  12.138   7.411   0.785 -0.1718  0.1683 -0.0292
19440W        W36964  13.826  17.423   3.102 -0.1220 -0.2500 -0.2700
19441W        W36965   5.352   4.685   0.485  0.1582 -0.2027 -0.1120
19442W        W36966  10.307   1.509   4.959 -0.2576 -0.1616  0.1531
19443W        W36967   2.820  16.634   4.546 -0.0537  0.0304 -0.1147
19444W        W36968   9.984   4.103   0.863 -0.0914  0.0330 -0.0828
19445W        W36969   3.322   7.821  14.768 -0.2533 -0.6349 -0.2068
19446W        W36970   7.546  13.151  11.105  0.0435 -0.3732  0.2848
19447W        W36971   9.357   0.688  13.265 -0.2501  0.0170  0.3432
19448W        W36972  12.537  13.889  14.078 -0.1032 -0.1628  0.0709
19449W        W36973   6.526   3.086  13.712 -0.3482 -0.1682 -0.0823
19450W        W36974  10.109  14.879  13.226  0.0078 -0.0569 -0.2842
19451W        W36975  12.605  16.514   3.853 -0.1363 -0.1421 -0.3357
19452W        W36976  14.881   0.935   5.097 -0.0070 -0.2858  0.0822
19453W        W36977   9.889  12.338  11.585 -0.2729  0.3889 -0.2513
19454W        W36978   1.244   5.920   0.535 -0.3507 -0.2309 -0.1327
19455W        W36979   3.640  12.875  11.887  0.3402 -0.0651  0.2734
19456W        W36980  12.292  15.818  14.999  0.0146  0.1378  0.0337
19457W        W36981   9.478  14.163   1.276 -0.1008  0.1344 -0.0130
19458W        W36982   0.830  14.033  15.696  0.4142  0.3046  0.2191
19459W        W36983   9.602  17.729   2.567 -0.2111 -0.1238 -0.0227
19460W        W36984   6.807  16.236   1.073 -0.2858  0.0474 -0.0718
19461W        W36985  10.339   2.667  11.612  0.0313  0.5536  0.0915
19462W        W36986  15.508   6.000   1.057  0.0442  0.0619  0.1809
19463W        W36987  16.711  17.514   5.576  0.1012  0.3376 -0.1014
19464W        W36988   6.941   4.620  14.592  0.0744  0.0308 -0.0164
19465W        W36989   6.353   6.310   3.984 -0.0424 -0.1500  0.0567
19466W        W36990   5.224   4.371   1.596  0.0017 -0.1729 -0.1383
19467W        W36991   9.977   7.412  15.604  0.0177  0.0602 -0.3535
19468W        W36992  15.955   5.113   4.545  0.1810 -0.0232  0.0879
19469W        W36993  11.956   8.128  13.975  0.1089 -0.1844 -0.0985
19470W        W36994  17.864   5.070   4.696  0.1991  0.3117  0.4429
19471W        W36995  17.767   9.712   0.870  0.1959  0.2751 -0.2223
19472W        W36996  12.497  17.757  15.145  0.0569 -0.2239  0.4448
19473W        W36997  13.252  16.052  11.771  0.1051 -0.0949  0.0247
19474W        W36998   0.994   3.849  12.217 -0.2750  0.3431 -0.0153
19475W        W36999  15.988   0.299   1.890  0.1014 -0.1843  0.0937
19476W        W37000  14.912   1.017   4.075 -0.0839  0.0627 -0.1185
19477W        W37001  11.958   8.167   5.010  0.0093 -0.0447 -0.1595
19478W        W37002  14.387  14.641   4.582 -0.0053  0.0542  0.0916
19479W        W37003  12.300   0.397  12.704 -0.1675  0.0019  0.2283
19480W        W37004   9.180  10.541  12.764  0.2489 -0.1275  0.1323
19481W        W37005   0.211   2.920   2.110  0.5623  0.1500 -0.0167
19482W        W37006  10.790   6.911  14.121 -0.1932 -0.0672  0.2326
19483W        W37007   0.906  16.081  15.185  0.1075  0.2117  0.0379
19484W        W37008   4.466   7.874   1.239 -0.0675  0.1208 -0.1816
19485W        W37009   6.869   8.783  12.665 -0.0636  0.1983  0.0956
19486W        W37010  10.438  11.797  14.521 -0.0737 -0.0766 -0.3548
19487W        W37011  13.874  13.034   1.588  0.4766 -0.2360  0.2114
19488W        W37012  13.106  14.096  11.835 -0.2188 -0.0160  0.2170
19489W        W37013  10.624   7.459  14.258  0.0674 -0.0653 -0.0638
19490W        W37014   6.865   8.149  16.250 -0.1109 -0.1288 -0.2385
19491W        W37015   2.750  14.708  13.959  0.3079  0.1131 -0.3267
19492W        W37016   7.930  10.019   0.573  0.2574  0.2186 -0.1852
19493W        W37017   4.191   0.490   2.541  0.0718  0.2298 -0.0155
19494W        W37018   6.407   8.603  12.698 -0.3845  0.1203 -0.1091
19495W        W37019  14.678   2.377   5.810 -0.0296  0.0481 -0.0266
19496W        W37020   4.116   0.282  12.676 -0.2065 -0.1192 -0.0119
19497W        W37021  13.826   6.490   3.826 -0.1336 -0.0965  0.2181
19498W        W37022  13.038  15.448   4.688  0.1244 -0.0547  0.1100
19499W        W37023   0.681   4.474   4.793 -0.1519  0.0168 -0.1055
19500W        W37024   5.888   1.745  12.155  0.1429 -0.2495  0.0082
19501W        W37025   1.106  11.306  13.054  0.2506  0.0219  0.3036
19502W        W37026   7.026  17.536  14.845  0.0081 -0.1533 -0.0759
19503W        W37027  11.672   4.018   0.422 -0.3238 -0.1619  0.1709
19504W        W37028   3.640  10.852  13.433 -0.1508  0.2023  0.0237
19505W        W37029  16.600   7.068   4.848  0.0567 -0.2604 -0.2318
19506W        W37030   9.361  13.109  14.889  0.1703  0.2935  0.2287
19507W        W37031   4.994   5.874  13.316 -0.0297  0.2320  0.0117
19508W        W37032  14.050   1.036  15.141 -0.3286  0.1172 -0.1188
19509W        W37033   8.935   9.125   1.213  0.1644 -0.0365  0.0883
19510W        W37034   4.824   9.757  12.383  0.0883 -0.1838  0.1704
19511W        W37035   0.830   8.598   1.543  0.0551 -0.3254 -0.1157
19512W        W37036  10.474   7.334  15.816  0.1334  0.0604  0.0406
19513W        W37037   8.541  16.222  14.717  0.1655  0.1346 -0.2556
19514W        W37038   4.062   0.797  13.752  0.3042 -0.2326  0.0845
19515W        W37039   5.968   6.689  13.866 -0.0246 -0.0592  0.1674
19516W        W37040   4.318   4.811  11.248 -0.3024  0.2559  0.1959
19517W        W37041  13.804   3.160  13.490 -0.3270 -0.2458  0.2738
19518W        W37042   0.928   6.656   0.500 -0.1739  0.1512 -0.2938
19519W        W37043   2.250   8.320   4.650  0.2147  0.0943  0.0104
19520W        W37044   0.047   3.051  11.854  0.1325 -0.2042 -0.0326
19521W        W37045   1.020   2.131   1.345  0.1802  0.0922 -0.3321
19522W        W37046   4.737  16.245  14.272 -0.0315 -0.0860 -0.0262
19523W        W37047  11.307  17.455   1.558  0.0496  0.3272 -0.1149
19524W        W37048  13.917  11.864  14.712  0.2364  0.1248  0.1061
19525W        W37049   0.405  14.963  12.748 -0.0543  0.1032  0.0772
19526W        W37050   6.439   3.549  15.870  0.1097  0.2054  0.1271
19527W        W37051   6.415  17.133  10.800  0.0964  0.2927 -0.0150
19528W        W37052   4.666  16.830  11.583  0.0060 -0.1782 -0.1708
19529W        W37053   2.066  17.501   1.340  0.3109 -0.3825 -0.0934
19530W        W37054   2.134  10.950   0.427 -0.0373 -0.1014 -0.0918
19531W        W37055   8.358   3.550   3.167  0.0445 -0.1725  0.0151
19532W        W37056   7.740   7.573   2.774 -0.1669 -0.0178 -0.0251
19533W        W37057   1.881  16.825   4.230 -0.0579  0.3547 -0.2031
19534W        W37058  15.924  12.408   2.137  0.0180  0.0619  0.0925
19535W        W37059  12.381  16.374  11.672 -0.3348 -0.3350  0.0735
19536W        W37060  15.875   3.956  11.735 -0.1640 -0.0317  0.1180
19537W        W37061   3.535  12.974   0.698 -0.0867 -0.1528  0.1856
19538W        W37062  11.497  11.872   4.214  0.2303 -0.1795  0.0864
19539W        W37063  14.638   9.607   3.048 -0.1012 -0.0161  0.0133
19540W        W37064  13.893   4.974  16.284  0.1081  0.1536  0.1746
19541W        W37065   7.015  15.670  12.686 -0.2386  0.0637 -0.1161
19542W        W37066  15.637  12.300  13.163 -0.1529 -0.2349  0.1774
19543W        W37067   4.980  10.075   3.065  0.2898  0.3396  0.2015
19544W        W37068   3.264   4.898  15.354 -0.0448  0.1626  0.0045
19545W        W37069   1.231   9.974   1.487  0.0366 -0.0673  0.0670
19546W        W37070  15.006   4.992  15.833 -0.2060 -0.5000  0.1859
19547W        W37071   0.543   4.063  12.294  0.2811  0.1208 -0.2882
19548W        W37072  12.926   6.023  14.024  0.0866  0.1432  0.1783
19549W        W37073   4.850   8.329  13.777 -0.3660 -0.0262  0.0375
19550W        W37074  15.237   7.875  12.249  0.2189 -0.1763 -0.0617
19551W        W37075  11.862   5.970   2.675  0.1429 -0.1861 -0.1152
19552W        W37076  15.018   0.281   1.473 -0.0659 -0.0362  0.0904
19553W        W37077   8.033   5.101   4.200 -0.0974 -0.1740 -0.0445
19554W        W37078   3.643  12.689   0.251  0.0177  0.1455  0.0406
19555W        W37079  15.879  17.910   1.540  0.1876  0.1020 -0.2583
19556W        W37080   8.439  16.966   3.961 -0.0807 -0.0967 -0.0799
19557W        W37081  11.378  17.877  15.493 -0.3894 -0.1306 -0.2329
19558W        W37082   2.625  11.059  14.113  0.3706 -0.0361 -0.1566
19559W        W37083  10.356   0.022  13.897 -0.1434 -0.0345 -0.0753
19560W        W37084   2.581  11.373   4.316 -0.1696 -0.2708 -0.1952
19561W        W37085   1.520   5.830  15.128  0.3410 -0.1533 -0.0237
19562W        W37086   9.079   1.346   2.860 -0.1815 -0.0226 -0.1961
19563W        W37087   1.787   8.577   0.043  0.0134  0.2669 -0.2928
19564W        W37088   9.324   5.826   1.927  0.1420 -0.0655  0.1305
19565W        W37089  10.523  16.223   3.624  0.4429 -0.2351 -0.1194
19566W        W37090   4.613  15.282   5.315 -0.2482  0.0781  0.2446
19567W        W37091   3.027  10.287  14.303 -0.1434  0.1687  0.0508
19568W        W37092  14.305   5.325  16.373 -0.1234 -0.2696 -0.0604
19569W        W37093  17.501  13.053   0.469 -0.2475  0.0130 -0.0591
19570W        W37094  13.434   1.400   0.132  0.0224 -0.0869 -0.1647
19571W        W37095   0.983   0.715  10.826  0.0792 -0.0935  0.0133
19572W        W37096   6.393   3.413   4.396  0.0332  0.1697  0.0030
19573W        W37097   9.769  17.824  15.751 -0.1584 -0.0317 -0.0723
19574W        W37098   3.216   1.095  11.799  0.2835  0.1660 -0.0993
19575W        W37099   1.477  14.763   0.730  0.1258  0.0878  0.0392
19576W        W37100   1.978   2.882  15.619 -0.3483 -0.4332  0.1985
19577W        W37101   0.085  10.933   2.689 -0.3188 -0.0408 -0.0955
19578W        W37102   1.047   9.120   0.288  0.1223  0.2021  0.0999
19579W        W37103  15.480   9.402   3.161 -0.0197 -0.2383  0.0343
19580W        W37104  11.733  15.794  11.981  0.0201 -0.1514  0.2945
19581W        W37105   1.939  13.586  15.311 -0.0790  0.2722  0.1208
19582W        W37106  10.016   3.201   1.204  0.2668 -0.0663  0.0145
19583W        W37107   9.249  13.636   3.174  0.0848  0.1670 -0.0203
19584W        W37108   5.505   1.564   4.876 -0.0591  0.3163 -0.2383
19585W        W37109  17.880  16.869  15.534 -0.1235 -0.1142  0.2373
19586W        W37110  11.203  10.366  16.019  0.2829  0.0447 -0.0230
19587W        W37111   2.189   0.182  12.604 -0.1820  0.0599 -0.0316
19588W        W37112  16.412   7.047   1.359 -0.2494 -0.0998  0.0062
19589W        W37113   0.054   8.796  11.324 -0.0225 -0.1374  0.6485
19590W        W37114  14.036  14.212  13.479  0.1862  0.2223 -0.0241
19591W        W37115   8.603   3.258  13.959 -0.2966 -0.1715 -0.0393
19592W        W37116  14.291  10.569   3.759 -0.0331 -0.0320  0.0763
19593W        W37117  15.546   9.871   3.325 -0.2683  0.2472  0.1111
19594W        W37118   6.475   6.563  15.478 -0.1286  0.2329  0.5425
19595W        W37119  11.267   5.248  12.598  0.0730 -0.3004 -0.0663
19596W        W37120   4.106   8.764  11.735 -0.0472  0.0041 -0.1939
19597W        W37121  14.074   3.623  15.935  0.0760  0.0378  0.1627
19598W        W37122  12.212  10.462   2.469  0.0662  0.0822  0.2583
19599W        W37123   1.679   3.448   1.616  0.0477 -0.2636 -0.2509
19600W        W37124   2.655   3.108  12.240 -0.0263  0.2198  0.0621
19601W        W37125   3.318  11.233  12.508  0.2170 -0.0174 -0.1041
19602W        W37126  16.577  10.228  12.616  0.1655  0.0427  0.1895
19603W        W37127   3.464  11.981  14.210  0.2713 -0.0957 -0.0749
19604W        W37128   4.211  10.541   3.047 -0.1401 -0.3088 -0.0375
19605W        W37129   2.146  12.426   3.993 -0.1691 -0.0933 -0.4713
19606W        W37130  14.915  17.788   1.662 -0.0514  0.0794 -0.0466
19607W        W37131   1.441   5.873   3.907 -0.1355  0.0753 -0.4243
19608W        W37132   2.445  17.212  12.726 -0.0210  0.0119 -0.0713
19609W        W37133  14.016  15.632   2.416 -0.1274  0.1207 -0.2114
19610W        W37134   1.395  11.215   0.383  0.1116 -0.3070  0.1087
19611W        W37135   3.798   1.644   5.072 -0.2606  0.0079  0.2530
19612W        W37136   5.848   4.954   3.264  0.2176  0.0227 -0.0189
19613W        W37137   5.986  16.844   6.036 -0.1732 -0.0174  0.0220
19614W        W37138   2.120   9.884  11.735  0.1099  0.0260  0.0376
19615W        W37139   5.696   8.813  15.292  0.2419 -0.0264  0.1242
19616W        W37140   6.271   5.284  12.375  0.0083 -0.0817  0.0128
19617W        W37141   6.270  12.155   2.759 -0.0152  0.2859  0.0683
19618W        W37142   3.707   3.017  11.833  0.2369  0.1054  0.0205
19619W        W37143   0.419   7.429   1.271 -0.1890  0.3617  0.0693
19620W        W37144   5.932  16.387   4.762  0.0549 -0.0097 -0.1313
19621W        W37145  16.343  10.310  16.011 -0.0060  0.0173  0.2582
19622W        W37146   1.904   1.340   3.600 -0.3893 -0.0525  0.1446
19623W        W37147  15.908   4.238   4.751  0.0050 -0.0582  0.0454
19624W        W37148   1.804  17.462  14.591 -0.3184  0.0296  0.0732
19625W        W37149   1.958  17.070   2.192  0.0691  0.0301 -0.2029
19626W        W37150  13.064   9.407   4.131 -0.1108 -0.2803 -0.0957
19627W        W37151  10.362   3.693  14.941  0.2649  0.0697 -0.0963
19628W        W37152   7.596   5.917  12.882  0.1399  0.3740  0.0064
19629W        W37153   1.185  10.967  16.436 -0.0959  0.3072 -0.1105
19630W        W37154  17.118   8.466   4.095  0.0396  0.2328  0.2009
19631W        W37155  13.084  16.247   1.159  0.0571  0.0146 -0.1742
19632W        W37156  12.473   7.187   2.155 -0.1348 -0.0986  0.1762
19633W        W37157   5.700   8.345   0.885 -0.1998  0.1458 -0.0569
19634W        W37158  11.505  14.518   4.905 -0.3740  0.3222 -0.1471
19635W        W37159   6.825   3.650  15.127 -0.1344  0.2459 -0.2897
19636W        W37160   9.311  12.085   4.587  0.2574 -0.2822 -0.2793
19637W        W37161   0.584   3.754   3.807  0.1197 -0.1385  0.3325
19638W        W37162   5.332   1.439  14.881  0.4482  0.1584 -0.1909
19639W        W37163   0.971  15.701   1.622 -0.1019  0.0445  0.0595
19640W        W37164   2.351   0.201  14.456  0.0190 -0.0784 -0.0616
19641W        W37165  11.508   8.951   1.834 -0.1172 -0.2329  0.0265
19642W        W37166  11.393   7.355  13.164  0.0334 -0.0558  0.1277
19643W        W37167  13.517   9.817   0.906 -0.2173 -0.2776  0.0829
19644W        W37168  11.185   0.677   2.081 -0.0288 -0.0722  0.3276
19645W        W37169   6.085  14.108   4.956 -0.1163  0.3452 -0.1123
19646W        W37170   3.402  16.498   0.263  0.1490  0.1664 -0.1243
19647W        W37171   3.052   8.666   3.738  0.1587 -0.1104  0.1988
19648W        W37172  12.605   2.782  12.109  0.0030  0.1113  0.2742
19649W        W37173   0.220   5.061  16.208  0.2063  0.1216 -0.2701
19650W        W37174  10.242  12.351  14.395  0.1427 -0.2452  0.4193
19651W        W37175   4.920   5.513  15.731 -0.0022 -0.0862  0.0909
19652W        W37176  10.936   9.941   1.044 -0.1328  0.0494  0.1646
19653W        W37177   6.314  11.776   4.125  0.4173  0.0128  0.1706
19654W        W37178   1.042  10.001  15.083 -0.0467 -0.2678  0.3502
19655W        W37179   5.850  14.289  13.131  0.1630  0.1648 -0.1301
19656W        W37180  15.922   6.418   3.578  0.4382  0.3276 -0.2071
19657W        W37181   4.002  10.047  12.350 -0.2703  0.1648  0.2730
19658W        W37182   1.833  14.671  14.925  0.0831  0.0630  0.0538
19659W        W37183  17.115   0.795   1.570  0.0430 -0.0229  0.1124
19660W        W37184   7.488   4.702  14.029  0.0255  0.2312  0.2474
19661W        W37185   3.181  12.345   1.913  0.0743 -0.0730 -0.3420
19662W        W37186  12.798  11.079  14.890  0.1747 -0.0034  0.0808
19663W        W37187  17.627   5.798  13.989 -0.0050  0.4739 -0.3445
19664W        W37188   6.815   7.865  15.814  0.2192 -0.0389 -0.1584
19665W        W37189   8.554   1.203   2.918 -0.1777  0.0568 -0.5129
19666W        W37190   2.731  17.366  11.792  0.0712  0.0618  0.0435
19667W        W37191  13.995   2.021  16.205  0.4699 -0.2631 -0.2938
19668W        W37192   0.965  10.592  16.236 -0.0060 -0.0464 -0.1105
19669W        W37193   9.114  14.914   0.769  0.1716  0.0166 -0.4171
19670W        W37194   9.115   4.332   0.538 -0.4115 -0.0495 -0.0592
19671W        W37195   3.933  13.023  15.627  0.2383  0.3049  0.0847
19672W        W37196  10.423   4.135   4.520 -0.1602 -0.1883 -0.0080
19673W        W37197   6.713   8.736   3.055  0.1926  0.4179 -0.0898
19674W        W37198   0.530   8.174  13.684 -0.0681 -0.2378 -0.0677
19675W        W37199   3.909   1.337   3.223 -0.3760  0.1164  0.1370
19676W        W37200   3.089   4.798   1.513 -0.1469  0.1340  0.1516
19677W        W37201  10.812   5.647   3.177  0.2193  0.3834 -0.3692
19678W        W37202  14.832   5.810   3.191  0.0692  0.0991  0.0691
19679W        W37203  13.675   0.418   3.031  0.2965 -0.2171  0.0583
19680W        W37204   5.153   3.983  13.150 -0.1506 -0.1173  0.2569
19681W        W37205   1.353   3.973   5.263 -0.2235  0.0175  0.3040
19682W        W37206   6.166   1.416   1.098  0.0273 -0.0928 -0.3375
19683W        W37207   9.525   3.457  15.112 -0.1539  0.1805  0.0469
19684W        W37208   2.059  14.697  12.259 -0.0121 -0.1469 -0.2620
19685W        W37209  15.030  10.040   2.870  0.0232 -0.1024  0.0778
19686W        W37210   6.343  17.915   4.703 -0.0039  0.1544 -0.1603
19687W        W37211   7.441   0.282   5.045  0.4855  0.0826 -0.0758
19688W        W37212  11.227   6.565   0.888 -0.1226 -0.2615  0.1928
19689W        W37213   4.331   6.861  14.652  0.0891 -0.1511 -0.0513
19690W        W37214  17.101  17.689  14.861  0.0263 -0.0427 -0.0760
19691W        W37215  14.373   4.259  10.813  0.1717  0.2388 -0.0171
19692W        W37216  16.482   1.510  12.716  0.1696 -0.0745  0.4031
19693W        W37217   5.591  15.667  14.579 -0.2626  0.2850  0.1821
19694W        W37218  15.300  14.685  14.146 -0.1362 -0.1492 -0.4023
19695W        W37219  15.749  13.425  12.703  0.1261 -0.0800 -0.2180
19696W        W37220  15.988  13.204  12.352  0.3114  0.0099  0.0261
19697W        W37221  17.948   0.335   1.791  0.1131  0.2310  0.1837
19698W        W37222   9.207   8.061  11.444  0.1955 -0.1636 -0.1579
19699W        W37223   2.559   5.054  15.525 -0.1974 -0.0281  0.1818
19700W        W37224  12.659   4.433  14.954  0.0788 -0.0480  0.1316
19701W        W37225  14.673   9.055   3.660 -0.2887 -0.1614 -0.0770
19702W        W37226  11.289  13.660   2.659  0.2945  0.2353 -0.1855
19703W        W37227   4.536  14.270  13.746  0.0914  0.1354  0.2452
19704W        W37228   0.953   6.698  11.440 -0.4171 -0.2107 -0.4476
19705W        W37229  12.993  11.148   1.464 -0.1153  0.3219 -0.0768
19706W        W37230   3.828   6.981   6.209  0.1015  0.0928 -0.0699
19707W        W37231  13.951  17.669   1.384  0.1401 -0.1714 -0.1842
19708W        W37232   3.586   4.094   3.085  0.0175  0.3552  0.0527
19709W        W37233   9.451   5.354  12.047  0.0685 -0.0317 -0.0737
19710W        W37234   1.275   2.508   4.811  0.0509  0.0020 -0.2149
19711W        W37235  16.813   3.396  13.753 -0.0904  0.1155  0.0298
19712W        W37236  13.886  11.289   2.523 -0.2433 -0.0166 -0.1127
19713W        W37237  12.464  16.004   3.747  0.0277 -0.1104  0.1020
19714W        W37238  11.471  10.834  15.295  0.0455 -0.3700 -0.2575
19715W        W37239  14.679   3.028  13.237 -0.1565 -0.1290 -0.1447
19716W        W37240   7.682   6.981   1.313 -0.0387 -0.1399 -0.2185
19717W        W37241  11.299  11.360   1.024 -0.3142 -0.1975 -0.2623
19718W        W37242  15.587   9.412  11.878  0.1204  0.1206 -0.0959
19719W        W37243  10.608   5.464   3.668  0.0830  0.2520  0.1449
19720W        W37244   3.822  13.995   3.829 -0.1695  0.2009  0.1985
19721W        W37245   1.232   0.939  15.903  0.4212 -0.1526 -0.2354
19722W        W37246  14.161   8.557  13.243 -0.1725 -0.1499  0.2015
19723W        W37247  17.345   0.754  12.696 -0.0111  0.2474  0.0611
19724W        W37248   6.817   6.609   3.085  0.2260  0.0129 -0.0375
19725W        W37249   1.742   1.294  13.514  0.0536 -0.2149  0.1592
19726W        W37250   6.567  17.507   2.960 -0.2743 -0.1139 -0.2052
19727W        W37251   3.233  17.780  13.664 -0.1330 -0.1346  0.2354
19728W        W37252  10.366   2.932  13.939 -0.0317 -0.2799  0.2016
19729W        W37253  11.996   6.232  13.702  0.0198  0.2512  0.1816
19730W        W37254  14.409   9.179   2.329  0.0493  0.0804  0.0286
19731W        W37255   5.121   5.617  16.378  0.0105 -0.2446 -0.1930
19732W        W37256  17.400  10.016   2.821  0.1859  0.2046  0.1994
19733W        W37257   2.454   0.134  16.095  0.0194 -0.0878 -0.1311
19734W        W37258   2.696   8.369   5.065 -0.1211 -0.1890 -0.1546
19735W        W37259  10.118   4.585  13.376  0.0415  0.0493  0.0018
19736W        W37260   5.480   4.776  12.029 -0.0203  0.0399  0.2360
19737W        W37261   2.019  12.797  14.129 -0.0341 -0.0339  0.0811
19738W        W37262   0.038  14.047  14.668 -0.0599  0.3087 -0.1880
19739W        W37263   0.200  16.042  15.414 -0.1997 -0.2463  0.0599
19740W        W37264  14.134  16.692  15.788 -0.2103  0.0289  0.1457
19741W        W37265  15.303  13.510   0.367 -0.2085 -0.3981  0.0311
19742W        W37266   0.162   0.087   3.919 -0.0051  0.1430 -0.1209
19743W        W37267  15.240   4.763  13.319  0.1018  0.3766  0.1195
19744W        W37268  15.235  17.588   0.144  0.2597 -0.0715 -0.0583
19745W        W37269   4.333  12.021  13.265  0.0966  0.0647 -0.1930
19746W        W37270   9.927  11.896   4.399 -0.0413 -0.1399 -0.4066
19747W        W37271  16.360  14.804   3.815  0.0693 -0.0303 -0.0059
19748W        W37272  10.050  10.082  13.602  0.2241 -0.0849  0.0550
19749W        W37273   1.740  10.185   0.138  0.0679 -0.0911  0.1476
19750W        W37274   3.103   0.878   5.066 -0.1005 -0.0253 -0.2924
19751W        W37275   0.179  13.134   3.743  0.0252  0.3068  0.0118
19752W        W37276  11.008   4.204  14.172 -0.0861 -0.0286 -0.1521
19753W        W37277   1.636   5.879  12.123  0.0630 -0.1051 -0.1980
19754W        W37278  10.742   1.816   1.937 -0.2716 -0.0492  0.2426
19755W        W37279  13.117  16.117  12.295 -0.0034  0.1428  0.0441
19756W        W37280  11.766   0.674   0.951  0.2460 -0.0866  0.2869
19757W        W37281   5.211   5.117  12.926 -0.0226 -0.0313  0.0137
19758W        W37282   8.151   6.907   1.184 -0.0733 -0.2029 -0.1189
19759W        W37283   8.574   4.730   1.805  0.0550 -0.1839  0.3523
19760W        W37284   4.511   0.090   2.170 -0.1152  0.0223  0.0207
19761W        W37285  16.919   6.495  10.609 -0.2648 -0.1241  0.1519
19762W        W37286   1.193  15.900  16.149  0.0640  0.0418  0.1524
19763W        W37287  16.815   8.725   4.468 -0.0282 -0.0610  0.3215
19764W        W37288  16.414  17.026   0.174  0.1103 -0.3318  0.0346
19765W        W37289   1.596   2.048  12.359 -0.0073  0.0845  0.0387
19766W        W37290   6.441  11.840  16.370  0.2788  0.1735 -0.2923
19767W        W37291   9.763   7.517   4.238  0.2292  0.0282 -0.0683
19768W        W37292  10.491  16.458   4.153  0.0776 -0.0370  0.1134
19769W        W37293  13.818  10.093  12.096 -0.1326 -0.3725  0.3132
19770W        W37294  10.019  16.510  12.288 -0.0093 -0.2463 -0.0721
19771W        W37295  17.254   8.215  14.216 -0.2182 -0.1563 -0.2001
19772W        W37296  16.498   6.627  13.961 -0.3332 -0.0616  0.1497
19773W        W37297   4.303   4.062  13.375  0.3106 -0.3149  0.2716
19774W        W37298   2.642  15.528   4.368 -0.0256  0.3263 -0.1151
19775W        W37299  11.802  12.464  12.901  0.0193 -0.4170 -0.2172
19776W        W37300   8.586   2.670   4.545 -0.0583 -0.0799 -0.2574
19777W        W37301  12.227  11.302  12.163 -0.0161  0.1792 -0.0489
19778W        W37302   4.550  13.192  12.344  0.3112  0.2627 -0.0715
19779W        W37303   0.621   6.171  15.535 -0.0974  0.2325 -0.0936
19780W        W37304  11.819  13.550   2.478  0.2465  0.0848 -0.1058
19781W        W37305   6.887   1.839  14.833 -0.5227  0.1405  0.2621
19782W        W37306   9.448   2.644   4.489  0.1153 -0.0980 -0.1054
19783W        W37307   8.016  12.580  11.771  0.0773  0.0795  0.4064
19784W        W37308   4.496   0.629  14.015 -0.0901 -0.2597 -0.2442
19785W        W37309   1.342   3.330   0.686  0.0463 -0.0592 -0.2385
19786W        W37310  14.949  11.207  12.731 -0.1056 -0.2109 -0.0254
19787W        W37311  17.856  12.371  16.262  0.1283 -0.0814 -0.1868
19788W        W37312   6.663   1.510  13.562  0.1337  0.0570 -0.0446
19789W        W37313   9.396   4.368  15.060 -0.0057 -0.1252 -0.1156
19790W        W37314   8.864  10.761   4.333 -0.0106  0.0991  0.0032
19791W        W37315   2.387  10.656   4.193  0.0328  0.0684  0.1090
19792W        W37316  17.447  15.095  16.126  0.4287 -0.1134  0.0288
19793W        W37317   2.540   6.096   4.950  0.5616 -0.1397  0.0768
19794W        W37318   4.469   2.936  15.516  0.2989 -0.0909  0.0449
19795W        W37319   5.192  13.073   0.350 -0.2060 -0.1646 -0.1381
19796W        W37320   7.728   6.657   2.668 -0.1815  0.1052 -0.1484
19797W        W37321  16.044  15.076   5.644 -0.1099  0.0754 -0.2415
19798W        W37322  16.201   5.507   4.699 -0.2807  0.2970  0.1325
19799W        W37323   2.648   3.621   5.115  0.2175  0.0564  0.0250
19800W        W37324   9.944  10.023  11.603  0.2767  0.1957 -0.1609
19801W        W37325  10.664   7.439   4.718 -0.0393  0.0217  0.2771
19802W        W37326  14.984  13.304   2.844 -0.0177  0.1667  0.0400
19803W        W37327   9.810  12.199   0.570  0.4951 -0.1535 -0.0423
19804W        W37328   9.102   8.758   0.454 -0.1455 -0.0822  0.0483
19805W        W37329   5.052   1.105   5.383 -0.1012  0.1193  0.0568
19806W        W37330   6.235  14.653   4.850  0.1493  0.2836  0.0975
19807W        W37331   1.877   9.456   0.323 -0.1278 -0.0886  0.0178
19808W        W37332   1.502   3.841  16.262 -0.0527  0.1724  0.1721
19809W        W37333   1.746  15.149  15.001 -0.0307  0.2662  0.3018
19810W        W37334  11.502  10.939   0.333 -0.4168  0.3549 -0.3336
19811W        W37335   2.650   6.655  12.493 -0.0182  0.0316 -0.0467
19812W        W37336   1.815   7.199   2.842 -0.0706  0.3775  0.2306
19813W        W37337   5.570  12.033   4.733  0.1970 -0.0186 -0.1249
19814W        W37338   0.315   3.038   2.845  0.2253  0.2450 -0.3156
19815W        W37339  12.997   3.356  13.906 -0.4851  0.2870 -0.0209
19816W        W37340  14.047   6.041  13.554 -0.2948 -0.0109  0.3713
19817W        W37341  16.700   7.521  15.707 -0.1312  0.4152  0.2730
19818W        W37342  12.311   8.164   1.363  0.0111  0.3145 -0.0445
19819W        W37343  10.647  17.535  13.913  0.1012 -0.0329 -0.1192
19820W        W37344  14.385   9.737  13.795  0.0326  0.2066  0.1569
19821W        W37345  11.108   9.708  12.239 -0.2021 -0.0132  0.1345
19822W        W37346   8.839   6.320  13.219 -0.1769  0.0783  0.0038
19823W        W37347   9.238  10.687   2.827  0.1292  0.1367  0.1855
19824W        W37348  10.074   4.730   3.795 -0.1655 -0.1552  0.1072
19825W        W37349   7.859  16.878   5.647  0.0602 -0.2081  0.2059
19826W        W37350   7.356  11.511  15.322  0.0899 -0.2424  0.0270
19827W        W37351   3.214  17.757   0.006 -0.1638 -0.0791  0.1873
19828W        W37352  15.813   1.972   4.469 -0.2943  0.0989 -0.3253
19829W        W37353  16.873   2.879   0.427 -0.1282 -0.0817 -0.1481
19830W        W37354  10.560   9.694  14.300  0.0013  0.0507 -0.1467
19831W        W37355  15.264  11.937  12.206 -0.0343 -0.1276 -0.1439
19832W        W37356   8.899   1.483  12.799  0.0045  0.0546  0.2226
19833W        W37357  11.294   1.513  16.303 -0.2212  0.2173  0.1775
19834W        W37358   6.874  15.113  15.742 -0.0380 -0.0565 -0.2050
19835W        W37359   9.630   9.370   0.103 -0.2176 -0.0003  0.3213
19836W        W37360  11.638  15.430  14.209  0.3030 -0.2786  0.0728
19837W        W37361   9.550   6.107  11.501  0.0597  0.3990  0.0899
19838W        W37362   1.740   2.815   4.764  0.1707  0.3285 -0.0381
19839W        W37363   0.058  15.679   0.617  0.3876  0.3916  0.1137
19840W        W37364  12.474   8.895   0.787  0.0703 -0.3397 -0.0480
19841W        W37365   2.816  12.002  12.392 -0.1452 -0.0960  0.2924
19842W        W37366  14.891  12.065  13.395  0.0372 -0.0889 -0.1362
19843W        W37367   6.097  17.504  13.980 -0.1228 -0.1135 -0.0313
19844W        W37368   7.442   1.858  16.280 -0.1933 -0.1927  0.1612
19845W        W37369   1.462  10.174   4.540 -0.2146  0.1502  0.0805
19846W        W37370   7.362  14.132  15.289  0.1937  0.0260  0.3149
19847W        W37371   6.556   8.164   2.519 -0.2097  0.1374  0.1768
19848W        W37372   3.657  13.185   2.399  0.3134  0.0501  0.0093
19849W        W37373   9.134  17.497  14.615  0.3448  0.0358  0.2700
19850W        W37374   3.010   6.604  13.708 -0.0014 -0.2124 -0.5031
19851W        W37375  12.272   2.889  14.503  0.0584 -0.2741 -0.1605
19852W        W37376   7.739   4.712  12.474 -0.0546  0.0801 -0.2724
19853W        W37377   6.641  13.480   3.335  0.1120 -0.2152  0.1830
19854W        W37378   4.487   6.162  15.463 -0.0526  0.0157 -0.2123
19855W        W37379   0.118   3.741  12.082 -0.0016 -0.3300  0.1479
19856W        W37380   2.831   8.874  12.803 -0.0972 -0.1803  0.1554
19857W        W37381  11.834   1.137  13.613 -0.2814 -0.1109  0.1476
19858W        W37382   4.217  14.606  15.838  0.1171  0.0044  0.1347
19859W        W37383  12.737  17.070  14.570 -0.3586 -0.1079  0.2751
19860W        W37384   1.710   6.134   0.431  0.0113  0.1897  0.1370
19861W        W37385  16.679   9.415   0.156  0.0099 -0.2207 -0.3189
19862W        W37386   6.924   7.613  10.683  0.0682  0.1111  0.0380
19863W        W37387  13.163  12.230  14.123 -0.1809 -0.0836 -0.1035
19864W        W37388   9.766   2.970   4.733 -0.2968  0.1765  0.0254
19865W        W37389   7.191  17.467   0.532  0.2827 -0.1040  0.1142
19866W        W37390   5.218  13.343   1.970 -0.0430 -0.1845 -0.2373
19867W        W37391   1.342  13.749   2.177 -0.1405 -0.0331  0.1322
19868W        W37392   2.614  12.816   2.379  0.0700  0.1230  0.1058
19869W        W37393  15.960   0.955  13.804  0.0046  0.1498 -0.1612
19870W        W37394  17.493   6.528   2.237 -0.1173 -0.2298  0.2598
19871W        W37395   7.470  10.034  12.652  0.1417 -0.4891  0.2913
19872W        W37396  15.993   0.162  15.244  0.3066 -0.0493 -0.4205
19873W        W37397  16.152  13.572  11.920  0.2249 -0.2476 -0.0253
19874W        W37398   4.133  17.087   4.801 -0.1177 -0.4585 -0.0178
19875W        W37399  14.883   1.990  14.763 -0.0213 -0.2528  0.1276
19876W        W37400   7.128  12.912  10.970  0.0959 -0.1097  0.0368
19877W        W37401  10.770   3.607   0.230 -0.1636 -0.2051 -0.1220
19878W        W37402  15.660   6.954  12.563  0.2101 -0.0913  0.0122
19879W        W37403  17.322   3.141   0.726 -0.2771 -0.0992  0.3211
19880W        W37404   9.779   6.471  12.262 -0.0278  0.0239 -0.1789
19881W        W37405   4.289  16.146   5.293  0.2561 -0.0191  0.0704
19882W        W37406  17.143  11.257   1.023 -0.1349 -0.0829  0.0492
19883W        W37407  14.120  11.294   1.369  0.0601 -0.0952  0.2752
19884W        W37408   3.290  15.471   2.130 -0.0474 -0.0049  0.4126
19885W        W37409   4.634   0.248   4.357 -0.0516  0.0646 -0.0778
19886W        W37410   6.010  14.657  16.313 -0.1975 -0.0894  0.0250
19887W        W37411  11.705   0.645   3.847 -0.0578 -0.0592  0.1817
19888W        W37412  14.531   3.725   3.083 -0.0836  0.0634  0.0061
19889W        W37413  15.083   0.075   4.819 -0.0195  0.4963  0.0179
19890W        W37414  14.440  11.341   4.723 -0.0700 -0.2189 -0.0350
19891W        W37415  16.908   2.865  15.412  0.0103  0.2039  0.2766
19892W        W37416  16.469  12.929  11.542  0.1188 -0.0839 -0.1841
19893W        W37417  15.548   3.242   4.485  0.0487  0.1581  0.0192
19894W        W37418  12.871  12.441  15.524 -0.0367 -0.1135 -0.0238
19895W        W37419  11.520   9.704   0.935  0.2297  0.0377 -0.1440
19896W        W37420  10.248  12.020  15.783 -0.0286 -0.0701 -0.1794
19897W        W37421   1.534  11.291  11.349  0.2171 -0.1009  0.1199
19898W        W37422   3.430   6.146   4.823 -0.0900  0.1531  0.2730
19899W        W37423   9.768   9.195  15.194  0.0137 -0.1396  0.0002
19900W        W37424   3.347   4.595   5.989 -0.0907  0.1653  0.0683
19901W        W37425  16.429   0.976  13.542 -0.0421 -0.0726 -0.0363
19902W        W37426  17.696   3.083   1.036 -0.0374 -0.1475  0.0188
19903W        W37427  14.397  11.212   0.427  0.1367  0.1428  0.1016
19904W        W37428  12.924   1.315  14.519 -0.2836 -0.1179  0.1648
19905W        W37429   0.352  14.986   0.045  0.1787 -0.0249  0.2015
19906W        W37430   1.060  17.436  12.741 -0.3060 -0.1454 -0.2308
19907W        W37431   6.508  15.350   3.850 -0.2789 -0.0412  0.1767
19908W        W37432   9.709   9.468   2.663  0.0404 -0.1988 -0.0066
19909W        W37433  13.197  13.878   1.502  0.1304  0.0769  0.0686
19910W        W37434   8.268   2.204   2.086 -0.1915 -0.0054 -0.2282
19911W        W37435   7.038   6.436  15.128 -0.2101 -0.0938 -0.1119
19912W        W37436  13.744  16.622  12.542 -0.3609 -0.1804 -0.2913
19913W        W37437   4.495   0.040  12.901  0.1266  0.0050 -0.0751
19914W        W37438   7.105  14.796   5.069 -0.1481 -0.0471 -0.2027
19915W        W37439   4.294   7.983  13.338  0.2086  0.0230 -0.1314
19916W        W37440  16.405  13.106   3.785 -0.1043 -0.0584  0.2988
19917W        W37441  17.800  10.245  12.880 -0.0974 -0.2938 -0.0795
19918W        W37442  16.136  16.606  12.865 -0.3744 -0.3376 -0.0798
19919W        W37443   1.788  17.812   5.064 -0.1353  0.2274 -0.4015
19920W        W37444  10.328   2.946   1.560  0.1388  0.1278 -0.0680
19921W        W37445  16.668   0.725   1.793 -0.1151  0.1259  0.2110
19922W        W37446   8.041   4.982  14.962 -0.2565 -0.0610  0.2530
19923W        W37447   3.974  14.802  12.404 -0.0490  0.0587  0.2177
19924W        W37448  16.826   5.303   2.207 -0.3604 -0.0272 -0.3233
19925W        W37449   2.170   5.723  13.805 -0.0952  0.0860 -0.2145
19926W        W37450   3.752   2.333  12.339  0.1922 -0.1485  0.2754
19927W        W37451   8.863   4.869  13.321 -0.5145  0.1449 -0.0758
19928W        W37452   1.669   8.520  11.396  0.2170 -0.1110  0.1719
19929W        W37453   7.543   7.718  12.428 -0.1293  0.0514  0.0423
19930W        W37454   6.908   1.388  12.726 -0.0233 -0.0573 -0.1626
19931W        W37455   8.790  16.551  12.071  0.0957 -0.0903 -0.2475
19932W        W37456   2.978  16.692  14.386 -0.0407  0.1504 -0.0156
19933W        W37457   5.019   8.899   0.696 -0.2231  0.1821  0.1202
19934W        W37458   9.551   8.462  11.678 -0.1826 -0.5721 -0.1733
19935W        W37459   8.511   0.952  13.598 -0.0993 -0.1102 -0.1642
19936W        W37460  15.069   2.912  13.555  0.1588 -0.1197  0.0452
19937W        W37461   2.652  11.614  14.563  0.0115 -0.2139 -0.0566
19938W        W37462   5.602  13.072  12.441 -0.2156 -0.0782 -0.0675
19939W        W37463   2.563  12.406  12.449  0.3042  0.0108 -0.0914
19940W        W37464   6.261  13.999   0.457  0.1975 -0.1904  0.4005
19941W        W37465  13.374   1.775   4.650  0.0707 -0.0215 -0.0841
19942W        W37466  11.951  15.445   3.281 -0.0342  0.0642  0.3265
19943W        W37467   3.238  13.826  11.808 -0.3606 -0.0953 -0.0308
19944W        W37468   4.450   6.695  12.847  0.0675  0.1227 -0.3895
19945W        W37469   5.527  15.501  12.983 -0.2417 -0.2339  0.0252
19946W        W37470   1.236   3.679  11.806  0.2849  0.1933 -0.1403
19947W        W37471   0.403   5.966  11.101  0.1779 -0.1046  0.1750
19948W        W37472   1.310  17.434  13.518  0.1595  0.3890  0.0412
19949W        W37473  14.174   2.412   2.484 -0.0070  0.0920 -0.2353
19950W        W37474   3.327  15.626   3.369  0.0213 -0.0950  0.0444
19951W        W37475   2.496   4.876  13.349  0.1744 -0.1677 -0.0511
19952W        W37476  11.080  17.881   0.094  0.0459  0.1118 -0.3519
19953W        W37477   1.704   8.373   1.319  0.0300 -0.0981 -0.3150
19954W        W37478   5.572  14.348   0.702  0.3674 -0.2888 -0.0806
19955W        W37479   4.519   2.671   0.926  0.0062 -0.2635  0.0094
19956W        W37480   3.154   1.223  13.838  0.1308  0.0783  0.1646
19957W        W37481   1.341  14.135   3.990  0.1000  0.2464  0.1230
19958W        W37482   2.379  15.821  15.164  0.1679 -0.0754 -0.1327
19959W        W37483   3.661   7.793  13.993  0.0159 -0.4691 -0.3492
19960W        W37484   3.080   2.134  11.601  0.0385 -0.2935  0.1819
19961W        W37485   4.383  11.443   2.937 -0.2171 -0.2997  0.0042
19962W        W37486  16.430   7.902  13.442  0.2627 -0.0569  0.2309
19963W        W37487   3.804   0.270   1.175  0.3935 -0.0730  0.1567
19964W        W37488   8.256   2.562   3.344 -0.0860 -0.0338  0.1025
19965W        W37489   7.046   5.764   5.361 -0.0624 -0.1047 -0.2051
19966W        W37490  12.956   9.053  15.982 -0.3181 -0.0845  0.0945
19967W        W37491   2.505   9.944   2.340 -0.2249 -0.0675  0.0314
19968W        W37492   5.607   1.499  13.254  0.1143  0.2322 -0.1206
19969W        W37493  16.931  14.419   1.681 -0.1366 -0.1349  0.1067
19970W        W37494  12.783  14.105   0.495  0.0348 -0.1943  0.0264
19971W        W37495   1.293   1.166   4.027 -0.2060 -0.1120  0.1474
19972W        W37496  17.164   9.180  12.478 -0.0105  0.3563 -0.2519
19973W        W37497   5.316   0.642   5.374 -0.0315  0.0752  0.0640
19974W        W37498  17.820  10.980  15.023  0.2145  0.2723 -0.2333
19975W        W37499   6.350  14.177  13.052  0.0042 -0.1720  0.0279
19976W        W37500   8.548   3.085  11.375 -0.0940  0.0651 -0.0860
19977W        W37501   5.171   6.851   2.419  0.2275 -0.0375 -0.0832
19978W        W37502  17.390   9.989   1.066  0.2690  0.2852 -0.0042
19979W        W37503   6.187   0.635  14.686  0.0162  0.1413 -0.1646
19980W        W37504  16.652  12.407  13.964  0.1556 -0.1155 -0.0179
19981W        W37505  14.076   6.215   4.259  0.2525  0.2239 -0.0816
19982W        W37506   1.385   3.607   2.098  0.1029 -0.2569  0.3172
19983W        W37507  17.784   5.423   0.114  0.3469 -0.2119  0.3860
19984W        W37508  17.711   7.928   0.672 -0.0758 -0.0076 -0.0782
19985W        W37509   4.453   9.760  12.005  0.1371  0.0917  0.0665
19986W        W37510  14.173  14.903  11.717  0.1992  0.1183  0.1917
19987W        W37511   0.163   3.501   2.875 -0.1901 -0.1889  0.1732
19988W        W37512   5.950   7.710  11.118 -0.0919  0.1814  0.0426
19989W        W37513   1.093   7.841   5.093  0.1180 -0.0924  0.0858
19990W        W37514   6.867  10.510  13.153  0.3672  0.1432  0.1104
19991W        W37515   6.597  16.751  14.395 -0.2865  0.2215  0.1985
19992W        W37516   5.153  16.322   2.915 -0.0418  0.0662  0.3337
19993W        W37517   7.776   9.732   1.879 -0.0428  0.1764 -0.2099
19994W        W37518   5.852  15.641  15.068 -0.0077 -0.2678  0.0681
19995W        W37519  12.020   9.670  14.906  0.2420  0.0091  0.0218
19996W        W37520  10.634  16.964   4.003  0.1526 -0.0929  0.1548
19997W        W37521   8.646   2.712   0.959  0.0267 -0.1120 -0.0601
19998W        W37522   9.744  16.505  11.901 -0.2874  0.5032  0.1938
19999W        W37523   8.388   5.450   1.416  0.1941  0.1714 -0.0241
20000W        W37524   7.298   7.622   2.458 -0.0928 -0.1787 -0.0852
20001W        W37525  15.878   1.543   4.701 -0.0972 -0.0679  0.3513
20002W        W37526  16.202   9.418   0.896  0.1406  0.2148 -0.1477
20003W        W37527   8.857  11.122   4.751  0.0676  0.0521  0.0273
20004W        W37528  10.455   9.912  13.779 -0.4176  0.0532 -0.0590
20005W        W37529  10.988   8.579   3.063  0.0192  0.1317  0.1674
20006W        W37530   4.850   0.083   0.468 -0.0737  0.0480  0.1312
20007W        W37531   5.743  15.183  15.786 -0.0524  0.1366  0.1080
20008W        W37532  12.631  14.354  11.927 -0.0220 -0.1469  0.0175
20009W        W37533   1.834  10.290  13.117 -0.0570 -0.0827  0.2385
20010W        W37534   4.383  10.051  11.086  0.3826 -0.1907  0.1172
20011W        W37535   2.611  12.317   2.137  0.0280 -0.0608  0.0422
20012W        W37536  10.157   5.294  12.802 -0.2447 -0.0885  0.0369
20013W        W37537  15.506   7.102  11.443  0.3576  0.1424 -0.1987
20014W        W37538   2.347  10.388   1.230  0.1169 -0.1088 -0.0464
20015W        W37539   3.763  16.898  12.520  0.0343  0.0319 -0.0381
20016W        W37540   3.434   7.409  15.653 -0.1179  0.0101  0.2311
20017W        W37541   5.745   4.837   5.519 -0.0961 -0.1046 -0.1050
20018W        W37542  11.808  11.192  12.478  0.2948 -0.1740  0.4229
20019W        W37543  12.995   4.087  15.158  0.3006 -0.0323 -0.0997
20020W        W37544   1.515  10.299  15.187  0.0147  0.0140 -0.1317
20021W        W37545  11.002  14.335  11.930  0.2197  0.0380  0.0457
20022W        W37546   1.021  17.964  14.279 -0.0733 -0.1957 -0.0815
20023W        W37547   4.495   2.276  12.094  0.0804 -0.1373 -0.2155
20024W        W37548  10.103  12.751  13.362 -0.0235  0.1264 -0.1992
20025W        W37549  10.601  10.334   5.075 -0.3822 -0.1535 -0.1255
20026W        W37550  15.504  10.807  13.439  0.0212  0.0607  0.1885
20027W        W37551   8.206   0.218  13.432 -0.1604  0.0829 -0.1094
20028W        W37552  10.623  10.427   2.628 -0.1589  0.1192 -0.6056
20029W        W37553  17.799   2.851   2.947  0.0537  0.3339  0.1760
20030W        W37554  16.466   3.332  15.259 -0.0418  0.1871 -0.0409
20031W        W37555  16.381  10.440   2.914 -0.0284  0.3000  0.2550
20032W        W37556   0.158   9.878  13.675  0.2010 -0.0464 -0.1482
20033W        W37557  12.458   1.444  14.607  0.0694  0.2101 -0.2453
20034W        W37558   7.569   7.347  15.874 -0.1282 -0.0378 -0.2003
20035W        W37559  12.575  14.450  14.710 -0.0147  0.2899 -0.0045
20036W        W37560   0.119   2.789   0.841  0.0538 -0.4398 -0.0064
20037W        W37561  15.814  17.186  14.275 -0.4973  0.2594  0.0777
20038W        W37562  17.133  13.742  16.343  0.0928 -0.4119  0.0604
20039W        W37563  16.602  12.580  12.861 -0.0922  0.0416  0.0096
20040W        W37564   3.570   2.694   2.734 -0.1000  0.0580  0.1142
20041W        W37565   5.967   4.544   0.779 -0.1584 -0.2123 -0.3702
20042W        W37566   0.297   5.377  15.771  0.2138 -0.0121  0.2833
20043W        W37567  14.273   9.239   0.420 -0.0356 -0.2437  0.0507
20044W        W37568   0.036   8.920  14.942  0.0429 -0.0904 -0.3538
20045W        W37569  11.311  10.789  13.252 -0.2102  0.0334  0.3194
20046W        W37570  14.771  12.309   1.118 -0.0536 -0.2955 -0.1035
20047W        W37571  14.112   0.067   0.579  0.0563  0.0873  0.0494
20048W        W37572   8.606   7.768   4.320 -0.3991 -0.0914 -0.1200
20049W        W37573  13.460  13.575  13.544  0.0176  0.2176  0.0697
20050W        W37574   0.453   4.902  15.271 -0.1934  0.1969  0.2060
20051W        W37575   2.461   2.518  12.903  0.1248  0.1232 -0.2571
20052W        W37576   3.538   8.217   5.018  0.1775  0.1453 -0.0962
20053W        W37577   6.337  12.654  12.841  0.0512  0.1298 -0.2067
20054W        W37578   7.005  17.010  15.180  0.1789  0.4113  0.4916
20055W        W37579  12.546   6.347  14.845  0.2238  0.0765 -0.1107
20056W        W37580  14.050   1.550  14.788 -0.2088 -0.0344 -0.0688
20057W        W37581  11.177  10.765   4.205  0.3276 -0.2562 -0.0498
20058W        W37582  15.953  13.331  14.152  0.0750 -0.1803 -0.1663
20059W        W37583  10.856   8.909   0.033  0.0538 -0.0078 -0.1257
20060W        W37584  12.458   5.861  14.944  0.3176 -0.0996 -0.1277
20061W        W37585  13.575   0.067   2.144  0.0920  0.1645  0.3588
20062W        W37586  14.835   9.991   5.938  0.0426 -0.2302  0.3169
20063W        W37587  11.200   5.872   3.592  0.1255 -0.3253  0.2973
20064W        W37588  14.050   5.157   0.301  0.2440 -0.2776  0.2486
20065W        W37589  16.891  13.995   3.656 -0.0292 -0.1001  0.0403
20066W        W37590  11.135   8.835   0.599 -0.1281 -0.1309  0.2949
20067W        W37591   0.882  17.193  11.806  0.0351 -0.2645 -0.1257
20068W        W37592   1.298   7.405   0.665  0.0310 -0.1222  0.4012
20069W        W37593   1.195   2.466  14.764  0.2048 -0.1993  0.0185
20070W        W37594   5.941  13.595  11.819  0.0537 -0.1074 -0.2693
20071W        W37595   3.830   4.716  13.055 -0.1362  0.0617 -0.1324
20072W        W37596   0.706  15.443  15.712  0.1670  0.3797  0.2845
20073W        W37597   9.154  12.733  16.358 -0.1522  0.3208  0.0010
20074W        W37598   5.758  12.625  13.482 -0.1548 -0.2526 -0.0142
20075W        W37599   0.732  16.809  12.145 -0.0084  0.0764 -0.1595
20076W        W37600   9.703  15.151  13.394  0.0264  0.1356  0.1597
20077W        W37601   7.896   8.960   0.725  0.1133  0.0126 -0.1932
20078W        W37602   0.767   4.994   1.163  0.0401 -0.0127  0.0671
20079W        W37603  12.494   0.577   4.242  0.1995  0.1657 -0.0133
20080W        W37604   5.670   4.262  14.667  0.0933  0.0508 -0.0501
20081W        W37605  11.269  15.155  14.115  0.2228 -0.1344 -0.0095
20082W        W37606  10.088  17.538   5.120  0.0450  0.0500 -0.0434
20083W        W37607  17.643   3.133   3.940  0.0609 -0.2685 -0.1720
20084W        W37608  10.295  15.814  13.053  0.2535 -0.3178  0.1167
20085W        W37609   1.821   9.766   1.675  0.3856 -0.1890  0.4168
20086W        W37610  13.361  17.559   2.998 -0.1149 -0.1637 -0.1679
20087W        W37611   6.028   5.448  11.909  0.0470  0.0378 -0.0855
20088W        W37612   1.167  13.098   3.197  0.2986  0.0745  0.0490
20089W        W37613   0.699  12.565   2.678 -0.1769  0.1601 -0.0889
20090W        W37614   7.413   6.511   4.673 -0.1414  0.4873 -0.0612
20091W        W37615   6.843  12.374   2.829  0.1519  0.0026  0.2116
20092W        W37616   6.962  11.086  13.826  0.0230 -0.1393  0.2917
20093W        W37617   0.312   3.255  12.850 -0.3432 -0.1016  0.1641
20094W        W37618  17.051   9.379  12.925  0.2971  0.1237  0.2850
20095W        W37619   0.487  13.802  13.465 -0.1562 -0.1177  0.0485
20096W        W37620   0.725  12.239  11.847 -0.0773 -0.0540  0.1323
20097W        W37621  17.500   3.202  10.668 -0.2457  0.1483  0.2767
20098W        W37622   7.014  10.976  16.386 -0.2034 -0.1886 -0.1689
20099W        W37623  13.448   7.312  16.262 -0.1052  0.1270 -0.3070
20100W        W37624  14.953  13.164   0.566  0.1478 -0.0785 -0.1314
20101W        W37625   4.297   0.221   4.722 -0.0317  0.4868 -0.0151
20102W        W37626   9.484   5.956   3.014  0.0141 -0.3757 -0.0150
20103W        W37627   8.558  14.932   4.271  0.0620  0.0265 -0.0978
20104W        W37628   6.726   0.886  12.660  0.1415 -0.2311  0.1206
20105W        W37629  14.179   5.329   2.977  0.1409  0.0828 -0.1782
20106W        W37630  16.620  15.318  12.209 -0.1802  0.1837  0.1702
20107W        W37631   4.660   4.914  11.597 -0.0772  0.1430 -0.1547
20108W        W37632   1.839   4.531   4.919 -0.2683  0.1740  0.1712
20109W        W37633  16.549  13.066   0.249 -0.2752 -0.3633  0.1079
20110W        W37634   2.684  13.311  14.435  0.0643 -0.0358  0.1106
20111W        W37635  17.321   6.682   4.594 -0.3158 -0.0914  0.1712
20112W        W37636  10.796  12.483   2.896 -0.2441 -0.2188 -0.1642
20113W        W37637  12.774   4.986  14.810 -0.0705 -0.1994 -0.2085
20114W        W37638  17.698  10.635   4.418 -0.1979  0.3322  0.0132
20115W        W37639   0.131   3.360  16.221  0.2272  0.0702 -0.3947
20116W        W37640   7.295   1.203  14.120  0.2460 -0.0686 -0.2001
20117W        W37641  10.616  10.570   4.118  0.2737  0.4120 -0.3939
20118W        W37642  17.577  10.712  15.416  0.0242  0.3053  0.1835
20119W        W37643  10.597  16.783  13.162 -0.1207  0.1284 -0.0890
20120W        W37644  10.555   5.077   1.882 -0.0448 -0.2512  0.0095
20121W        W37645   0.625  17.711  12.891  0.0289 -0.1192 -0.0367
20122W        W37646  15.284   2.938  12.427  0.3279 -0.5545  0.0644
20123W        W37647  11.401  15.989  12.881  0.1001  0.0460 -0.1326
20124W        W37648  11.050  16.932  12.975  0.1300  0.1658  0.2554
20125W        W37649   7.525   2.139   0.569 -0.0201  0.0988  0.1028
20126W        W37650  11.828   2.315  14.351 -0.0465  0.2757 -0.3124
20127W        W37651  10.252  10.132  10.666  0.0027  0.0630 -0.0069
20128W        W37652   9.573   2.805  15.921  0.0137  0.0477  0.2614
20129W        W37653   3.322   3.507   1.167  0.3551 -0.0557  0.1670
20130W        W37654  11.514  17.422  13.780  0.0371 -0.0815 -0.1093
20131W        W37655  15.062   5.921  10.844  0.1748  0.0681 -0.0174
20132W        W37656  10.034  14.959   1.634  0.2550 -0.0912 -0.0309
20133W        W37657   0.643  16.184  13.922 -0.1205 -0.0986  0.0996
20134W        W37658   9.496   2.354   0.529 -0.2271 -0.2331 -0.4493
20135W        W37659   3.133   0.256  16.237 -0.2609  0.0249 -0.1352
20136W        W37660   8.578   4.171   2.159  0.1262 -0.0173 -0.1873
20137W        W37661  16.011   1.102  13.181 -0.1018  0.2756  0.0263
20138W        W37662  10.511   9.266  13.396  0.2037  0.1330 -0.0105
20139W        W37663  17.062  17.161   0.891  0.0668 -0.1801  0.2078
20140W        W37664   0.115  14.710   3.025 -0.0060  0.1162 -0.3714
20141W        W37665   6.089   7.086   3.637  0.0938  0.1503  0.0946
20142W        W37666   5.838   8.072  11.904  0.0458 -0.0347 -0.0426
20143W        W37667   2.215   4.452   5.282 -0.2190 -0.3447  0.1338
20144W        W37668   0.019   0.949  15.245 -0.2070 -0.1478  0.1479
20145W        W37669  15.164  12.845   1.676  0.0136 -0.0862  0.2196
20146W        W37670  17.914   5.299  10.886  0.1663 -0.1775 -0.0543
20147W        W37671  11.791   8.654   3.318 -0.2730 -0.1718  0.0505
20148W        W37672   0.177  15.505  15.170  0.2213  0.0482 -0.1007
20149W        W37673   6.237  10.517   2.173  0.1862 -0.5232  0.2439
20150W        W37674  12.131   7.054  16.363  0.0228 -0.1821 -0.0714
20151W        W37675  15.530   3.377   3.230 -0.4146  0.0690  0.0815
20152W        W37676   8.416   4.076   2.794  0.1059  0.1446  0.0181
20153W        W37677   8.207   5.255  14.528 -0.2256 -0.0825 -0.2172
20154W        W37678  14.671  11.658   2.010  0.0755 -0.1684 -0.3277
20155W        W37679   4.371   9.021  11.346 -0.0910  0.0394 -0.1157
20156W        W37680   1.930   0.189   0.912 -0.2178 -0.1177 -0.0174
20157W        W37681  11.169  14.586  15.610 -0.0703  0.1080 -0.0431
20158W        W37682   5.112  15.529   5.322 -0.1470  0.2442  0.3254
20159W        W37683   7.493   0.239   4.157 -0.2915  0.1020 -0.0867
20160W        W37684   5.573  16.104   3.101  0.1392 -0.0234  0.0187
20161W        W37685   4.517   2.410   2.825 -0.3700  0.1978 -0.0061
20162W        W37686  11.331  13.409   0.914 -0.1784 -0.0124 -0.0426
20163W        W37687  14.288  11.402   2.796  0.1020 -0.2840  0.1871
20164W        W37688   6.409   0.737  15.285  0.1622 -0.1582  0.0411
20165W        W37689  14.570  14.299  15.565  0.2526  0.0920 -0.6255
20166W        W37690   8.500  16.644   4.845 -0.0871 -0.1644 -0.0307
20167W        W37691  14.963   8.786  11.436 -0.1218 -0.2278  0.1323
20168W        W37692   6.843  14.405  12.241  0.0989 -0.0322  0.1711
20169W        W37693   5.727   9.232  15.801  0.0531  0.1729  0.1247
20170W        W37694  13.028  14.814  15.458 -0.1377 -0.0313 -0.0377
20171W        W37695   7.813  14.481   0.301 -0.1429  0.2088  0.1492
20172W        W37696   6.779   4.931   3.312 -0.1433  0.0260 -0.0326
20173W        W37697   2.793   0.100  13.269 -0.2445 -0.0339  0.1327
20174W        W37698  13.446   9.562  12.851 -0.1197 -0.0137 -0.0943
20175W        W37699  13.895   8.775   2.277 -0.1596 -0.4468 -0.0808
20176W        W37700   2.457   0.440  12.203  0.1777  0.2139  0.0058
20177W        W37701  16.005   3.093  15.200  0.1514  0.4384 -0.0548
20178W        W37702  15.292   3.967  12.599 -0.1065 -0.2173  0.2656
20179W        W37703  10.502   4.278  12.072 -0.0878  0.1673 -0.4438
20180W        W37704   8.652  15.858  16.243 -0.2622  0.0195  0.1469
20181W        W37705   4.715  13.316  14.487  0.1791 -0.0455  0.1768
20182W        W37706   2.223   9.592   0.804 -0.1438  0.1758 -0.2625
20183W        W37707   1.642   2.363  12.952 -0.2114  0.1293 -0.0507
20184W        W37708   7.492   3.637  10.247  0.0429 -0.0561  0.0008
20185W        W37709  13.419  15.738   5.949 -0.0316  0.1452  0.1585
20186W        W37710  12.045   2.517  14.756  0.0418  0.2755  0.0819
20187W        W37711   5.309   5.798  15.488 -0.3847 -0.1248  0.1592
20188W        W37712  11.970  12.363   3.067  0.1485  0.1820 -0.2340
20189W        W37713  16.743  14.908   4.659  0.1048  0.0619 -0.2892
20190W        W37714  11.386  17.212  11.458  0.0384 -0.0412  0.1547
20191W        W37715  12.982  13.730   3.842 -0.0181  0.1090 -0.1124
20192W        W37716   3.792   2.348   0.855 -0.1405 -0.4395 -0.1478
20193W        W37717  16.375  16.538  15.343 -0.0820 -0.0932  0.0743
20194W        W37718   5.422  15.209   1.558  0.1187 -0.3948 -0.0685
20195W        W37719  11.631   7.184  12.642  0.1984 -0.0372 -0.0166
20196W        W37720   6.591  12.894  13.735  0.0522 -0.1110  0.2691
20197W        W37721   6.431   1.054   0.279 -0.0467 -0.2233 -0.2978
20198W        W37722  10.065   3.881   1.977  0.2080 -0.0690  0.1079
20199W        W37723   0.984   5.465   0.634  0.1391 -0.3886  0.0847
20200W        W37724  16.022   5.540   3.338  0.1771  0.0812  0.1103
20201W        W37725  12.652   0.770  12.909 -0.2488  0.0452  0.0154
20202W        W37726  15.138  10.381  16.129 -0.0995  0.0972  0.1987
20203W        W37727   5.961  11.429  14.196  0.2536  0.0575  0.0986
20204W        W37728   9.239   4.280  14.584 -0.1360 -0.1989 -0.2753
20205W        W37729   0.633  17.727   3.712  0.0885  0.0363 -0.0175
20206W        W37730   6.936   7.240   2.584 -0.0114  0.2981  0.0974
20207W        W37731  14.360  17.817   5.375 -0.1511 -0.0576  0.0092
20208W        W37732   4.860  12.954  15.254 -0.1751 -0.1111 -0.1536
20209W        W37733   3.424  10.370  13.890  0.0850  0.3424 -0.1334
20210W        W37734   6.408  16.725   1.772 -0.2662 -0.1931 -0.2384
20211W        W37735  10.050   1.773   1.921 -0.1131 -0.1853  0.0359
20212W        W37736  10.862   8.361   4.343  0.1809 -0.0649 -0.2567
20213W        W37737  10.794  13.250   1.522 -0.1383  0.0695 -0.2031
20214W        W37738   9.758   4.264  15.377  0.1516 -0.1620  0.1880
20215W        W37739   2.812   1.971  14.375 -0.0866  0.2212 -0.0460
20216W        W37740  14.479  14.019   0.862 -0.3314 -0.0297  0.1923
20217W        W37741   1.651   4.312   2.483 -0.0896  0.1958 -0.0222
20218W        W37742  10.703   5.775  15.626  0.3627  0.1266  0.1713
20219W        W37743   5.987  17.825  11.507 -0.1636  0.3211 -0.0016
20220W        W37744  15.281  13.795   1.624 -0.1037 -0.3131 -0.0410
20221W        W37745  16.735  11.835   3.078  0.0248  0.3707 -0.1492
20222W        W37746  10.510  12.605  12.029 -0.0568 -0.0774  0.3261
20223W        W37747   7.246   1.698   4.166  0.2621 -0.0722  0.0136
20224W        W37748   1.382   9.517   1.845  0.0946 -0.0890  0.1274
20225W        W37749   1.720   4.439  15.741 -0.2485  0.0153  0.0273
20226W        W37750  13.444   2.451  15.997 -0.2001  0.1283  0.2121
20227W        W37751  13.148  16.760   3.344  0.0466  0.0717 -0.0372
20228W        W37752   4.494   8.391  11.819  0.1932  0.0515  0.0782
20229W        W37753   5.207   8.153  15.113  0.0043  0.0297  0.0773
20230W        W37754   0.699  12.903  12.695  0.0518 -0.0917 -0.2641
20231W        W37755  11.770   6.921  14.589 -0.1218  0.1472  0.3756
20232W        W37756   8.089  17.499  13.909 -0.0477 -0.0105 -0.2169
20233W        W37757  12.394  11.249  13.678  0.2428  0.0076 -0.2372
20234W        W37758   3.919   0.722   3.879 -0.0809  0.6218 -0.0651
20235W        W37759   0.880   8.729   2.021  0.0682 -0.0330  0.0656
20236W        W37760  10.129  11.971   3.569  0.1948  0.1066  0.0464
20237W        W37761   5.904   5.550   0.448  0.0476  0.1618  0.0965
20238W        W37762  16.174   4.599  13.914  0.2136  0.1514  0.2187
20239W        W37763  16.765   3.379   0.554  0.0018 -0.2177 -0.2929
20240W        W37764   4.840  14.188   3.535  0.0980  0.2712 -0.0982
20241W        W37765  16.359   1.999   3.456 -0.0658 -0.0632 -0.0757
20242W        W37766  11.136   4.513   5.030  0.2352  0.1658  0.0823
20243W        W37767   5.257  17.238   5.453  0.1514 -0.1210 -0.0034
20244W        W37768   8.411  15.641   0.698 -0.1173 -0.1978  0.0649
20245W        W37769  12.731  14.112   3.584  0.1113 -0.1818  0.4950
20246W        W37770  15.980   5.257   0.350 -0.4459 -0.0471 -0.0787
20247W        W37771   3.854   2.949   2.322 -0.1909  0.2650  0.1223
20248W        W37772   6.002  17.764   3.463 -0.3265  0.2554 -0.1528
20249W        W37773   5.397  12.015  15.303  0.2947  0.2450 -0.1528
20250W        W37774  10.540  11.244   5.485  0.0103  0.1524  0.0081
20251W        W37775  11.971  13.923   0.687  0.2025  0.2546 -0.0980
20252W        W37776  12.363   9.535   3.244 -0.1762 -0.1900  0.1163
20253W        W37777   2.243  16.421   2.892  0.2323  0.2104  0.1516
20254W        W37778  14.438   1.222   4.924  0.4000  0.0066  0.1137
20255W        W37779  16.239  14.103   2.851 -0.2892  0.1907 -0.2275
20256W        W37780   5.950   5.586  13.106  0.0849 -0.0703 -0.1480
20257W        W37781  16.772   7.089  14.188  0.1948 -0.2247 -0.1122
20258W        W37782   3.530   5.711   1.577  0.0409 -0.2003 -0.0593
20259W        W37783  17.364   9.029  15.164 -0.0529  0.2301 -0.0471
20260W        W37784   6.219  16.735   0.844  0.2526 -0.0408  0.1723
20261W        W37785   2.759  14.850   2.283 -0.2244 -0.0902 -0.3507
20262W        W37786   1.660   3.202  12.893  0.1116 -0.2796 -0.0126
20263W        W37787  12.861  17.948   0.185  0.2365 -0.1214 -0.0739
20264W        W37788   9.420  17.166  13.419 -0.4029  0.2181  0.3751
20265W        W37789   4.055  15.489   3.602 -0.0151  0.3136  0.0282
20266W        W37790   3.253   5.503  15.910 -0.0882  0.1083  0.0349
20267W        W37791   9.269   5.545   1.411 -0.0426  0.1380  0.2552
20268W        W37792   0.303  17.467   4.003 -0.0841 -0.2199  0.1386
20269W        W37793   2.645   2.333   2.528 -0.0462 -0.0543  0.0156
20270W        W37794   0.963   4.189   5.049  0.1049  0.3326 -0.0809
20271W        W37795   8.380  10.608   4.334 -0.0811  0.1044  0.2840
20272W        W37796  12.196   8.485  13.545  0.0221  0.0507 -0.0553
20273W        W37797  17.701  14.303   0.967  0.2365  0.2968  0.1557
20274W        W37798   9.435   7.681   2.498  0.2240  0.3194  0.0998
20275W        W37799   4.120   1.071   2.602  0.0564 -0.3900  0.1733
20276W        W37800   3.869   3.145   2.857  0.0344 -0.0671  0.1598
20277W        W37801  14.272  10.380   2.574  0.0873 -0.1550 -0.1295
20278W        W37802  11.250  12.791   2.662 -0.1642  0.1633 -0.2005
20279W        W37803  15.095   5.765  15.398  0.1357 -0.3646  0.0012
20280W        W37804   4.879   6.017   4.001  0.2900 -0.0203 -0.0267
20281W        W37805  16.872   1.222   1.834  0.2089  0.3095  0.3785
20282W        W37806   9.322   9.360   1.429  0.1076 -0.0566 -0.0214
20283W        W37807   9.133   9.419   2.464 -0.0283  0.0487 -0.0876
20284W        W37808   6.989   6.107   3.299  0.1834 -0.0339  0.1459
20285W        W37809   0.852   9.974  15.550  0.0333 -0.0055  0.1920
20286W        W37810   7.744   4.905  10.935  0.0084  0.0657  0.0131
20287W        W37811  11.549   9.409  12.341  0.2795  0.0878  0.0230
20288W        W37812  11.357   6.394   0.393  0.2933  0.1545 -0.1206
20289W        W37813   8.180   4.699  11.123 -0.0361 -0.1120 -0.1208
20290W        W37814  10.937  14.094   6.440 -0.0982  0.1362 -0.0375
20291W        W37815   5.466  13.543   0.188 -0.4005 -0.2020  0.2245
20292W        W37816   0.852   3.240  16.277  0.1007  0.1460  0.0241
20293W        W37817   9.645   6.551   0.113  0.1819  0.2840 -0.1263
20294W        W37818  10.046   3.037  14.423  0.0508 -0.1026 -0.1204
20295W        W37819   4.218   8.242  16.221  0.2125  0.1330 -0.0666
20296W        W37820   8.797  17.706  16.114 -0.0652 -0.0761  0.1853
20297W        W37821  13.463  17.650   5.092  0.1547  0.2189  0.2279
20298W        W37822   4.872  13.561   5.511  0.2198  0.1214 -0.0620
20299W        W37823   7.506  11.478   2.553  0.0277  0.0534  0.4876
20300W        W37824  16.330   8.444   1.506 -0.0995  0.1317  0.0120
20301W        W37825  13.503   3.021  15.730 -0.0763  0.2614  0.0438
20302W        W37826   1.633  14.205   2.678  0.1410 -0.1268 -0.2402
20303W        W37827   3.238   2.708  13.546 -0.1046 -0.0810 -0.0946
20304W        W37828  11.527   2.127   1.779  0.0240  0.0522  0.0399
20305W        W37829   7.362  11.560  16.269  0.2103  0.0284 -0.1133
20306W        W37830   2.192   9.679   3.590  0.3392 -0.0356  0.0311
20307W        W37831   5.009   9.437   2.068 -0.2355 -0.1524 -0.4129
20308W        W37832  17.677  15.294  12.153 -0.3692  0.2975  0.1262
20309W        W37833   1.595   9.529   5.371 -0.3292 -0.1140 -0.1756
20310W        W37834   0.103   5.424  12.979 -0.1732  0.3151  0.1342
20311W        W37835   7.397   4.401  12.180  0.0275  0.1023  0.0292
20312W        W37836  15.328  12.644   5.705 -0.2627 -0.2135 -0.0594
20313W        W37837  16.798  12.062   4.764  0.1628 -0.2287  0.1085
20314W        W37838   0.619  17.963   4.240  0.3920  0.1517 -0.0402
20315W        W37839   5.109  13.283  15.570  0.0289  0.0619  0.1856
20316W        W37840   6.859   9.455   1.310 -0.1736  0.1104  0.2680
20317W        W37841   4.415   6.953   0.768 -0.2051 -0.0019 -0.1405
20318W        W37842  11.285   5.343   2.948  0.2954  0.0064 -0.0474
20319W        W37843  14.818   5.595   2.729  0.0410  0.2088  0.2657
20320W        W37844   3.985   5.553  11.099 -0.2862 -0.0285 -0.1768
20321W        W37845  11.811   0.672   4.827  0.0028  0.1118 -0.0524
20322W        W37846  14.339   4.549  15.791 -0.1663  0.2044  0.1674
20323W        W37847   9.023   2.391   4.583  0.1493 -0.0574 -0.0412
20324W        W37848   7.021  14.054   1.144 -0.0993  0.1323 -0.1654
20325W        W37849   9.390  12.241  14.517 -0.2020  0.2271  0.0351
20326W        W37850  16.877   8.660   3.475 -0.2767 -0.1271 -0.1410
20327W        W37851   2.494  11.219  12.686  0.0370  0.0740 -0.1001
20328W        W37852   9.328   1.472  12.410  0.3251 -0.2055 -0.0184
20329W        W37853  15.721   1.784   0.153 -0.0289  0.3899  0.1581
20330W        W37854  12.707   4.813  15.739 -0.0204  0.1629  0.2786
20331W        W37855   0.991   1.980   0.294  0.1118 -0.3819 -0.2968
20332W        W37856   0.542   7.033  12.088 -0.3445  0.1295 -0.2369
20333W        W37857   4.717   6.660   4.246  0.0839  0.0849  0.0556
20334W        W37858  13.705   2.976  12.148  0.0490  0.2275  0.0346
20335W        W37859   7.309   1.343  16.304 -0.0883 -0.1675  0.1326
20336W        W37860   3.419  13.350  11.867 -0.2790  0.2231  0.0684
20337W        W37861  14.222  16.085   3.708  0.1323 -0.0920 -0.1502
20338W        W37862   6.111  15.489   2.466  0.0616  0.3326 -0.1205
20339W        W37863  14.204  16.181  15.714  0.1825  0.2883  0.1656
20340W        W37864   9.817   7.157  12.865  0.0078  0.1132 -0.2097
20341W        W37865   2.945   4.893   3.798 -0.3059  0.0038 -0.0754
20342W        W37866   0.185  15.527   1.456  0.0178 -0.3189 -0.0661
20343W        W37867   3.680  16.339  16.330  0.2417  0.3213 -0.0241
20344W        W37868  13.939   3.371  13.920  0.0057 -0.3267 -0.3133
20345W        W37869   1.878  15.685  14.044  0.5093  0.2468  0.0626
20346W        W37870   8.465   6.295  11.450 -0.2775 -0.0669 -0.2115
20347W        W37871  15.701  14.714   3.606 -0.0799 -0.3163  0.1182
20348W        W37872   8.279   6.496  11.891  0.5323 -0.1067  0.0334
20349W        W37873   5.490   8.841   1.685  0.0704  0.1817  0.1764
20350W        W37874   4.437   5.773  12.471  0.1905 -0.1591 -0.1594
20351W        W37875   3.577  14.053  15.626 -0.3739  0.1558  0.0424
20352W        W37876   3.485  12.129   0.190  0.1073 -0.1786  0.3653
20353W        W37877  17.944   7.152   0.133  0.3840 -0.1335 -0.2134
20354W        W37878   0.899   0.853   1.585  0.0139  0.2256 -0.1463
20355W        W37879  16.129   3.285  15.724  0.4739  0.1299 -0.3483
20356W        W37880  12.277   5.837   1.438  0.2304  0.3888 -0.2033
20357W        W37881  12.644  16.160  11.244 -0.3947 -0.0283 -0.2320
20358W        W37882   6.195   0.741   4.503  0.2534 -0.0736  0.3453
20359W        W37883  11.948  12.972  16.430  0.1352 -0.1349  0.1316
20360W        W37884  17.827  13.630   3.752  0.1778  0.3116 -0.3469
20361W        W37885   9.903   0.480   2.155  0.2101 -0.1537 -0.1313
20362W        W37886   3.232  17.124   5.194  0.3784 -0.2906 -0.1928
20363W        W37887   1.286   1.743  12.605 -0.1438 -0.1791  0.4276
20364W        W37888   2.510   2.079  15.518  0.0516 -0.0465 -0.3651
20365W        W37889   1.422  13.303  15.540 -0.0923  0.0031  0.2521
20366W        W37890   3.976  11.730  13.520 -0.1484 -0.2305  0.3029
20367W        W37891   8.870   3.010  14.677  0.2447 -0.3522 -0.0820
20368W        W37892  15.246  17.208  11.869 -0.0796 -0.2400 -0.1983
20369W        W37893   3.730   5.180   5.270 -0.4107 -0.1305 -0.1321
20370W        W37894  16.472   0.957  12.980 -0.1592 -0.3328  0.0729
20371W        W37895   2.536   4.943   3.517 -0.0949  0.1109 -0.0008
20372W        W37896   4.428  17.582  12.586 -0.0931 -0.0751  0.1214
20373W        W37897  12.822  13.503   0.476  0.0662 -0.1349 -0.0215
20374W        W37898   9.222   7.939   3.598 -0.1198  0.1267 -0.0476
20375W        W37899   1.813   4.532  13.229 -0.0564 -0.1751  0.1837
20376W        W37900   6.680  11.398  11.986 -0.0869 -0.0478 -0.0549
20377W        W37901  16.711   4.130  11.590  0.0281 -0.0421  0.1131
20378W        W37902   1.381   9.594  13.602  0.5394 -0.3354 -0.0011
20379W        W37903   9.688   7.531   1.871 -0.0183 -0.2508  0.2268
20380W        W37904  17.630   7.780  14.822 -0.1148 -0.1600 -0.0946
20381W        W37905  11.949   9.455  16.365  0.1261  0.0160 -0.1348
20382W        W37906   5.208   8.196   3.552 -0.2712  0.2159 -0.0114
20383W        W37907   2.465   7.752  16.244 -0.2464  0.0241 -0.2660
20384W        W37908   7.572   9.161  14.923 -0.2611  0.1853 -0.3290
20385W        W37909  15.182   7.889  13.652 -0.0508 -0.0392 -0.0992
20386W        W37910   8.439  16.492  15.287 -0.2181 -0.1827  0.1238
20387W        W37911  11.583   5.732  16.111 -0.1873  0.2120 -0.1132
20388W        W37912   2.670   6.106   5.630  0.1943  0.2508  0.0275
20389W        W37913  11.131  14.255   5.120 -0.0688 -0.1494 -0.0559
20390W        W37914   4.172   4.867  13.682 -0.2195 -0.1568  0.1512
20391W        W37915  10.428  11.244   0.933 -0.2926 -0.1332 -0.3353
20392W        W37916  17.149  17.133   4.841  0.3916  0.2009 -0.0978
20393W        W37917   6.829   6.627   2.559 -0.0267 -0.0976  0.0829
20394W        W37918   0.572  17.847  15.985  0.2362  0.2092 -0.0466
20395W        W37919   3.417  16.780   1.098  0.2548 -0.0188 -0.1365
20396W        W37920  14.395  11.323  13.082  0.4269  0.3940 -0.3476
20397W        W37921  16.876   1.805  11.945  0.2398  0.1885  0.1060
20398W        W37922   4.318  10.856  11.886  0.0250 -0.0900  0.2431
20399W        W37923  10.929   2.165  15.446 -0.0456  0.2821 -0.1720
20400W        W37924  13.273   4.634  14.024 -0.0647  0.0107 -0.3105
20401W        W37925  10.446   1.686  13.001 -0.2563  0.1363 -0.1209
20402W        W37926  14.875  16.022   4.330 -0.1125 -0.2161  0.3702
20403W        W37927  12.614   3.216   1.944 -0.0890  0.2089  0.0682
20404W        W37928   4.164   2.603  13.948 -0.3317 -0.1897  0.1782
20405W        W37929  17.440  16.420  13.775 -0.2507  0.0469  0.0706
20406W        W37930  10.045  15.496  13.814 -0.1819 -0.1488 -0.1368
20407W        W37931   2.344  11.066  13.211  0.0801 -0.1464  0.1797
20408W        W37932  13.558  16.720  15.955 -0.0742 -0.0263 -0.1704
20409W        W37933   3.474   0.549  11.964  0.0272 -0.1737  0.0910
20410W        W37934   9.954  17.292   2.529 -0.0244 -0.2657  0.2273
20411W        W37935  10.705  14.179  13.643  0.1996 -0.0574  0.1108
20412W        W37936   0.778   2.486   0.591 -0.0282 -0.0986 -0.0943
20413W        W37937   6.652   7.638  12.475 -0.0778 -0.1557  0.0243
20414W        W37938   9.299  10.736  16.418  0.1368 -0.1042  0.2199
20415W        W37939  16.524  12.576   4.997 -0.1056  0.1976  0.0851
20416W        W37940   5.539  13.272   2.379 -0.2322 -0.1134  0.0106
20417W        W37941   8.362  15.121  15.747  0.0708  0.3041 -0.1743
20418W        W37942  17.251   2.186   3.440  0.3688  0.0604  0.0245
20419W        W37943   4.270  11.311  15.744 -0.0322  0.0390  0.0555
20420W        W37944  15.943  12.989  10.214 -0.0922 -0.0125 -0.2405
20421W        W37945  15.312  11.279  11.736  0.0812 -0.4388  0.2671
20422W        W37946   0.428   8.044   4.499  0.0098  0.0735 -0.3537
20423W        W37947   6.801   4.011  12.592  0.2659  0.2759  0.2163
20424W        W37948   0.821  15.086   0.206  0.1030  0.0025 -0.0342
20425W        W37949   1.074   8.853  14.213  0.2820 -0.0484  0.0127
20426W        W37950   0.103   5.280   0.551 -0.0335 -0.2280 -0.1638
20427W        W37951   7.671   0.309   0.855  0.2312  0.1829  0.0175
20428W        W37952   0.103   3.099   3.298  0.1252 -0.0181  0.2594
20429W        W37953   8.939  12.201   1.708 -0.0151  0.2865  0.0479
20430W        W37954   1.038   8.646  10.366 -0.2456  0.3876 -0.1969
20431W        W37955  10.378   4.342   3.715 -0.4012  0.0547  0.1626
20432W        W37956   9.604   0.471  13.694 -0.1725  0.0387 -0.1412
20433W        W37957  10.130   2.577  14.648  0.0414 -0.1319 -0.2272
20434W        W37958  16.444   1.085   0.956 -0.1441  0.1697 -0.1268
20435W        W37959  10.801  11.422  14.523  0.1921 -0.3484 -0.1200
20436W        W37960   6.377   4.313   2.730 -0.4458 -0.2564 -0.1431
20437W        W37961   4.699   6.575   1.572 -0.0235 -0.1113  0.0066
20438W        W37962  16.845   5.920  15.320 -0.3388  0.0138  0.1805
20439W        W37963  12.525  10.856  15.302 -0.1213  0.3513  0.0738
20440W        W37964   8.284  15.127  15.282  0.1623 -0.2483 -0.0398
20441W        W37965   6.295   2.205  11.692 -0.0246 -0.1541  0.1302
20442W        W37966   4.904   7.945   3.930 -0.1526  0.0207 -0.0357
20443W        W37967   8.178  15.928  10.533  0.0225  0.1285  0.0598
20444W        W37968  11.154   7.479   3.250  0.2295 -0.0469  0.2726
20445W        W37969   6.576   8.775  11.785  0.1227  0.1899 -0.0239
20446W        W37970   0.570  11.237  14.254  0.0373 -0.1268 -0.1377
20447W        W37971   9.855   1.787   4.772 -0.1043  0.0676 -0.0562
20448W        W37972  15.573   1.034   3.230  0.0532 -0.1756  0.1767
20449W        W37973  10.631   5.183  13.036  0.0580 -0.0015  0.0994
20450W        W37974   0.168   4.243  12.634  0.0825 -0.2174 -0.0149
20451W        W37975  17.681   5.341  16.025  0.0930 -0.1189  0.1188
20452W        W37976  12.296  10.473   2.952 -0.3537  0.0073 -0.1873
20453W        W37977   9.792   8.206   2.393 -0.0563 -0.3084  0.0327
20454W        W37978   1.235   9.582  12.521 -0.4698  0.2351 -0.2938
20455W        W37979  12.094   4.011   4.110  0.1043  0.0816 -0.1015
20456W        W37980  14.001   3.255   4.367  0.0071 -0.1854  0.0564
20457W        W37981   6.725   4.077  12.057 -0.2603  0.2159 -0.0641
20458W        W37982   1.289  17.969  13.739  0.0513  0.0340  0.0109
20459W        W37983   9.331   9.564  11.032  0.2125  0.1172 -0.4002
20460W        W37984  16.117  15.446   1.851  0.0310  0.1783  0.3755
20461W        W37985   9.037   1.724  13.300  0.1130  0.1353  0.3086
20462W        W37986   2.404  12.786  13.618  0.0887 -0.0400 -0.2009
20463W        W37987  17.240  11.390   5.340  0.2093  0.0043 -0.0421
20464W        W37988   0.740   9.887  13.882  0.2122  0.0414 -0.0433
20465W        W37989   4.248   6.147  12.769 -0.3138 -0.3361 -0.1264
20466W        W37990  11.705   3.103   0.302  0.0870  0.0174 -0.1382
20467W        W37991   8.934  13.173   0.004  0.1352  0.2474  0.2796
20468W        W37992  14.937  15.987  12.539 -0.1971 -0.3555  0.0904
20469W        W37993   3.113   8.662  15.401  0.0810 -0.2742 -0.2517
20470W        W37994   3.304   5.380  12.491 -0.1043  0.0215 -0.1020
20471W        W37995   6.229   1.483  10.389  0.0039 -0.0466  0.0608
20472W        W37996   4.264   0.866   0.765 -0.0163 -0.2411  0.2025
20473W        W37997   1.538   5.464   2.780 -0.1515  0.1793 -0.0843
20474W        W37998   6.461   1.232  14.512 -0.0535 -0.2922  0.0797
20475W        W37999  14.382  16.351  13.717 -0.3239  0.1550 -0.0179
20476W        W38000   6.208   5.209  15.616  0.1418  0.0431 -0.2038
20477W        W38001  14.824  13.764   0.513  0.0627 -0.0856 -0.0587
20478W        W38002   5.547  17.412  14.223  0.2471  0.0801 -0.1131
20479W        W38003  15.409  10.186   2.401 -0.3794 -0.2305  0.1589
20480W        W38004  15.384   1.213   2.761 -0.2302 -0.2104 -0.0064
20481W        W38005  11.074  11.736   1.235  0.0906 -0.3134  0.0536
20482W        W38006   9.901   3.492  14.239 -0.1915 -0.0493  0.0413
20483W        W38007   3.737   5.078  12.679 -0.0253  0.0834 -0.0940
20484W        W38008  10.788  17.775  14.845  0.0623 -0.2173 -0.1631
20485W        W38009   7.150   8.904   1.304  0.0154 -0.1180 -0.2246
20486W        W38010   9.439   6.411   1.411  0.1038 -0.1844 -0.1093
20487W        W38011   2.278   8.645  16.459  0.1930 -0.1666 -0.2222
20488W        W38012   5.213   8.929  12.408  0.2324  0.1120  0.1634
20489W        W38013  16.998   5.722  12.435 -0.0739 -0.1701 -0.3056
20490W        W38014  14.551   6.473   2.332 -0.1556  0.1409 -0.3904
20491W        W38015  10.694   8.513   0.325  0.0738 -0.1533  0.1606
20492W        W38016  16.847   4.681   3.609 -0.0475  0.0084  0.0645
20493W        W38017   1.521   5.593   0.871  0.0395  0.1465  0.0798
20494W        W38018   6.093  14.480   0.304 -0.2058  0.0565 -0.2281
20495W        W38019   0.758   6.668  15.785 -0.2187 -0.1159 -0.0751
20496W        W38020  15.060   3.178  15.519  0.2217  0.1061  0.3622
20497W        W38021   1.570   7.770   0.594 -0.1194  0.0923 -0.5126
20498W        W38022   8.966  10.838  13.985  0.2752  0.0013 -0.1182
20499W        W38023   8.472   6.160   4.121 -0.3365 -0.0557 -0.2392
20500W        W38024   2.194   0.518  15.746 -0.0443 -0.0697 -0.0288
20501W        W38025  11.356   2.443   2.737 -0.1193  0.1736  0.0436
20502W        W38026   5.632  10.141  12.419  0.0566  0.2028  0.2217
20503W        W38027  14.649  17.539   1.361  0.5104 -0.0161  0.0193
20504W        W38028   5.905  15.857  11.697  0.0693 -0.1258  0.0974
20505W        W38029  17.840  11.651  12.216  0.0041 -0.1590  0.2737
20506W        W38030   8.236   6.972  15.168 -0.3699  0.0575 -0.2761
20507W        W38031   4.677   6.151  13.740 -0.3248 -0.1828  0.1166
20508W        W38032   2.901  17.840   0.592  0.1347 -0.3547  0.2485
20509W        W38033   1.324  10.387   0.721 -0.0413  0.2589  0.1563
20510W        W38034  12.367   0.210   2.034  0.1277  0.1503  0.2817
20511W        W38035   7.639  17.267   0.249 -0.1136  0.1456 -0.1950
20512W        W38036   5.767   7.492   4.712  0.1927 -0.0910 -0.3253
20513W        W38037   3.453   7.479  11.961 -0.0879 -0.2092  0.1560
20514W        W38038   1.029   6.488   1.243 -0.1640  0.0304 -0.0437
20515W        W38039   9.853  12.299  13.184 -0.0787  0.3967 -0.0269
20516W        W38040  11.505   4.532   1.242 -0.1935 -0.2948 -0.0588
20517W        W38041  12.460  14.056   5.236  0.1881  0.1842 -0.1229
20518W        W38042   1.337   3.265  15.544  0.0220  0.1371 -0.1652
20519W        W38043  15.583  15.961  15.065 -0.0939 -0.0637  0.0089
20520W        W38044   4.668  15.877   3.439  0.2573 -0.3729 -0.0323
20521W        W38045  12.238   9.444   2.699 -0.0835 -0.0860  0.2997
20522W        W38046   1.911  15.083  11.862  0.3041 -0.0469 -0.1772
20523W        W38047  14.257   8.717   3.534 -0.1429 -0.1337 -0.0523
20524W        W38048  17.170   6.167   3.845 -0.5556  0.0279  0.0141
20525W        W38049   9.863  10.111  16.033  0.5767 -0.0848 -0.1177
20526W        W38050  11.592  12.872  14.964  0.0938 -0.1517 -0.3252
20527W        W38051  11.026   7.499  15.880 -0.1041 -0.0953 -0.2442
20528W        W38052   1.375   0.107   1.745  0.1705  0.0617  0.1221
20529W        W38053   5.724  16.744   0.269  0.1036 -0.1945  0.0101
20530W        W38054   8.029   0.201   3.437  0.4041 -0.0750  0.0149
20531W        W38055   7.604   0.059   1.594  0.3624  0.1452 -0.2153
20532W        W38056  12.603   8.182   3.927 -0.0999  0.3315 -0.2016
20533W        W38057  16.940  12.812  14.036 -0.0320  0.2877 -0.3211
20534W        W38058   0.925   4.102   3.842  0.2064 -0.2018 -0.0104
20535W        W38059  15.254   3.659  12.996 -0.2200 -0.1045  0.3744
20536W        W38060   6.507   0.171   0.271  0.1493  0.1601 -0.0733
20537W        W38061  12.079  10.864  12.731 -0.2603  0.0285 -0.2022
20538W        W38062  12.373  15.601  12.779 -0.0060 -0.3439  0.1655
20539W        W38063  14.998   3.115  11.646 -0.0978 -0.0097 -0.0117
20540W        W38064   7.392  12.747   0.841  0.1927  0.0619 -0.1166
20541W        W38065   4.512   2.713   2.152 -0.2138 -0.1577 -0.0875
20542W        W38066   9.700   8.607   2.989 -0.2109 -0.1370  0.1991
20543W        W38067  15.404   3.810  11.505  0.0865 -0.1242 -0.0369
20544W        W38068   4.466   9.287  15.277 -0.0200  0.2946 -0.0723
20545W        W38069  15.908  11.829   4.812 -0.2480 -0.2444  0.0362
20546W        W38070  12.045   4.062   0.840 -0.1168  0.0796  0.0806
20547W        W38071   8.368   0.324   0.596 -0.0204  0.1039  0.3911
20548W        W38072   5.768  16.745   4.439 -0.1233 -0.0778 -0.2909
20549W        W38073  15.029   2.253   5.154  0.0539 -0.3302  0.1984
20550W        W38074   1.512   0.333  11.950  0.1623 -0.0846 -0.0355
20551W        W38075   9.066  16.464   4.113 -0.0118  0.0978 -0.0977
20552W        W38076  16.650   8.605  12.267 -0.2802  0.1893 -0.4374
20553W        W38077   7.613  14.789  13.218  0.1045  0.1368  0.1153
20554W        W38078   2.488  17.707  14.421 -0.1719 -0.1692  0.0049
20555W        W38079   0.801  14.487   1.897 -0.0458 -0.2739  0.1945
20556W        W38080   4.031   1.712   4.136  0.0854  0.1842 -0.1798
20557W        W38081  15.000   4.494   2.761 -0.3411 -0.2943  0.2904
20558W        W38082   2.520  14.565   0.741 -0.0238 -0.0176 -0.1892
20559W        W38083   7.107   1.366   3.264  0.0380  0.2109  0.0154
20560W        W38084   7.752   0.955   4.555 -0.1484 -0.0767 -0.0766
20561W        W38085  14.805  11.872  14.456  0.0399  0.2769  0.0090
20562W        W38086   7.953   9.518   0.463 -0.1250 -0.0459  0.2280
20563W        W38087   8.109   8.274   4.991  0.0670 -0.4436 -0.1999
20564W        W38088   4.996   5.586   0.760 -0.0522 -0.2000 -0.0853
20565W        W38089   1.423  12.024   2.559  0.4211 -0.0225 -0.1323
20566W        W38090   2.740   8.507   0.622  0.3128 -0.0924  0.0895
20567W        W38091   2.231  10.097  16.304  0.0610 -0.0009 -0.2242
20568W        W38092   9.702   1.843  12.044 -0.3043 -0.0145  0.0529
20569W        W38093  15.051   1.346   3.107 -0.1920 -0.2274  0.0776
20570W        W38094   3.683  16.704   4.000 -0.0638  0.0660 -0.1834
20571W        W38095   5.391  12.088   5.946 -0.2883  0.0144 -0.4782
20572W        W38096   9.953  12.885  14.303 -0.0389 -0.1109  0.1149
20573W        W38097  16.212  15.339   0.423 -0.1849  0.0676 -0.1552
20574W        W38098  12.237  14.226   3.746 -0.0234  0.2448  0.0429
20575W        W38099   2.475   8.607  14.789  0.2453 -0.0264  0.2404
20576W        W38100   1.265  15.320   0.374 -0.0136  0.0396  0.1847
20577W        W38101  10.464   2.798   3.511  0.0004  0.0810  0.1951
20578W        W38102   9.579   0.873  12.529  0.4009 -0.2018 -0.1378
20579W        W38103   6.735   7.091   4.811  0.2470  0.2205  0.1419
20580W        W38104  14.645  12.345  14.523  0.1715  0.0631  0.1016
20581W        W38105   5.567  15.597   3.869 -0.3952  0.4683 -0.0609
20582W        W38106  16.621  17.533  14.916  0.2167 -0.0718 -0.3378
20583W        W38107   5.682  12.802  14.376  0.1598 -0.0805  0.3991
20584W        W38108   3.960  12.439   1.501 -0.3033 -0.2307  0.2237
20585W        W38109   3.562   3.766   1.517  0.0444 -0.1323  0.1123
20586W        W38110  11.229  12.246  14.710  0.2492  0.0624  0.3523
20587W        W38111   8.825   9.124   4.714  0.1567 -0.1561  0.0618
20588W        W38112   4.778   4.484  12.421 -0.1419 -0.0826  0.1188
20589W        W38113  12.729  11.712   3.213  0.0977  0.1032 -0.0180
20590W        W38114   9.233   8.300   4.395 -0.2230  0.2727 -0.1740
20591W        W38115   3.286  14.770   4.403 -0.0617 -0.1157  0.1792
20592W        W38116  10.614   6.898  12.315  0.3358  0.1029  0.0841
20593W        W38117  12.132  11.125  13.244 -0.2369  0.3245  0.2754
20594W        W38118   0.659   4.390  15.831 -0.0579 -0.0469 -0.3808
20595W        W38119  14.110   8.651  15.931 -0.4650  0.0589  0.3847
20596W        W38120   8.750   0.820   1.860 -0.0130 -0.0766  0.0497
20597W        W38121  17.250   6.004  15.970  0.0871  0.1901  0.0347
20598W        W38122   3.581  10.352  16.374  0.0594  0.0884  0.0202
20599W        W38123   0.513  10.601   4.597 -0.3369 -0.2284  0.0443
20600W        W38124  13.977  13.542   1.444  0.1013 -0.1548 -0.2145
20601W        W38125   8.652   5.136   0.430  0.3163  0.1446  0.1017
20602W        W38126  13.745  10.568   3.761 -0.1531 -0.2257 -0.2903
20603W        W38127   1.837   7.316   4.382  0.0143  0.1206  0.0590
20604W        W38128  10.118   3.057  11.410  0.3988  0.0112  0.2619
20605W        W38129  13.303   1.452   2.867  0.0706 -0.0409 -0.0566
20606W        W38130   9.483   7.981   2.061 -0.0603 -0.2993  0.1192
20607W        W38131   0.272  10.125   0.867 -0.1140  0.0957  0.2112
20608W        W38132   5.702  16.526  13.155  0.2113 -0.2152  0.0298
20609W        W38133   2.239  17.343   1.854 -0.0968  0.0332  0.0111
20610W        W38134  15.496   0.879   0.753 -0.0046  0.1912 -0.1766
20611W        W38135  17.389   0.416   2.218  0.2180 -0.2618  0.2657
20612W        W38136  16.447  17.171   2.937 -0.0432 -0.0377  0.0175
20613W        W38137  15.878  14.879   4.016 -0.0485 -0.1519  0.0525
20614W        W38138   7.416  14.437   4.843  0.1283 -0.1634 -0.5599
20615W        W38139   4.592   1.715  14.823 -0.0609 -0.0528  0.3077
20616W        W38140   5.084   8.589   1.553 -0.0063  0.0430 -0.0835
20617W        W38141   4.033   2.214   4.215 -0.1021 -0.0771 -0.0834
20618W        W38142  11.324  11.756   5.202  0.1517 -0.0128 -0.4985
20619W        W38143  13.332   1.957   3.703  0.0022 -0.0178 -0.0338
20620W        W38144  12.394  12.329  15.643  0.0667  0.1024  0.0854
20621W        W38145  17.069   3.513   1.028  0.0482  0.1272 -0.2413
20622W        W38146   7.451   2.768  15.835  0.2176 -0.1077 -0.1054
20623W        W38147   1.311  16.554  13.120 -0.2327 -0.0632 -0.3252
20624W        W38148  17.782   2.180  15.839  0.0245 -0.1462 -0.1593
20625W        W38149   7.145   5.647  12.782 -0.3119 -0.0666 -0.2055
20626W        W38150   9.329  14.304   0.370 -0.0458 -0.1654 -0.1171
20627W        W38151   4.954   3.900   0.633 -0.2917  0.2388  0.0432
20628W        W38152  17.707   8.624   2.800  0.2762 -0.0797  0.0930
20629W        W38153  15.867   5.347  15.389 -0.1249  0.0913 -0.0639
20630W        W38154  13.562   1.340   4.925  0.0029 -0.2927  0.1331
20631W        W38155  12.983   4.537  10.791  0.0642 -0.0693  0.3965
20632W        W38156   1.671   5.797   3.112 -0.2700 -0.1646 -0.0719
20633W        W38157  12.484  13.064   2.784 -0.0302  0.2656  0.2007
20634W        W38158   2.629   7.258  15.077 -0.0935 -0.1360 -0.3472
20635W        W38159  16.400   8.994   2.705 -0.0606  0.3096 -0.1558
20636W        W38160  15.370  16.328  12.648  0.2209 -0.3277 -0.1638
20637W        W38161   3.412   8.684  14.836  0.0031 -0.1902 -0.1199
20638W        W38162  10.015  14.741   4.307 -0.1248 -0.0102  0.1995
20639W        W38163  12.764  10.899   5.179 -0.0264  0.0364 -0.2449
20640W        W38164   1.302  16.729   0.020  0.1805 -0.0289 -0.2792
20641W        W38165   0.224   0.961  13.216 -0.1775 -0.0141 -0.0652
20642W        W38166  14.554  10.090  14.218  0.1742  0.0453 -0.1330
20643W        W38167  10.120   9.505  13.783  0.1435  0.0812  0.0657
20644W        W38168  17.713  16.079   2.540 -0.0533 -0.1668 -0.4031
20645W        W38169   5.252   4.604  13.068 -0.0132  0.3206  0.3388
20646W        W38170   4.344   8.327  15.328  0.1213 -0.0773 -0.2215
20647W        W38171   4.170   3.376  15.521  0.2080 -0.1918  0.0581
20648W        W38172  12.257  11.790  14.855 -0.0399 -0.1837 -0.3433
20649W        W38173   9.013  17.168   0.654 -0.0689  0.1390  0.1059
20650W        W38174   8.303  15.889  13.145  0.1649  0.0165 -0.5118
20651W        W38175   9.824   0.722  14.669  0.0616 -0.2821 -0.0506
20652W        W38176   6.082   0.656  13.761 -0.0285  0.0531  0.0244
20653W        W38177   5.836  11.990  12.219 -0.2288  0.0063 -0.2603
20654W        W38178   5.077   3.812  16.108 -0.3427 -0.0705 -0.1667
20655W        W38179   9.587   7.200   2.272  0.0005 -0.1510 -0.2640
20656W        W38180   7.393   7.112   3.410  0.0122  0.0250  0.0173
20657W        W38181  13.513  17.093   3.275  0.1511  0.0527 -0.0630
20658W        W38182   7.553   4.836   3.426  0.0409 -0.0387  0.0923
20659W        W38183   6.898   2.199   3.556  0.2400 -0.1447  0.0434
20660W        W38184   2.841   0.114  14.360  0.1458  0.0449 -0.0093
20661W        W38185   1.993  17.807   0.509 -0.2278 -0.1904 -0.2338
20662W        W38186  15.135  16.957  15.124  0.2141 -0.1474 -0.1173
20663W        W38187   0.404   3.726   0.609 -0.2511  0.0230  0.1067
20664W        W38188  17.763  10.659   1.904 -0.1193 -0.1456  0.0442
20665W        W38189  14.265   7.820   4.798  0.2981 -0.1680 -0.0812
20666W        W38190   3.745   9.177   4.123  0.1996 -0.3210  0.2693
20667W        W38191  15.134  14.684   3.212  0.1679 -0.2321  0.0844
20668W        W38192   0.199   8.952  12.706  0.0780 -0.0785  0.2344
20669W        W38193  17.503   8.251  14.649  0.0794 -0.1154 -0.1151
20670W        W38194   3.373   4.321   0.010 -0.3716 -0.0716  0.1633
20671W        W38195  11.733   7.222  12.124  0.0842  0.1468 -0.0116
20672W        W38196  15.767  15.195   4.765 -0.3039 -0.1009 -0.0027
20673W        W38197  13.340  13.067   3.853 -0.1808 -0.0603 -0.3355
20674W        W38198  14.503  10.740   4.258  0.1373 -0.0514 -0.0861
20675W        W38199  10.030  10.899   2.373  0.3062  0.0275 -0.2880
20676W        W38200   6.328   7.539  12.812 -0.1784 -0.1966 -0.2778
20677W        W38201  16.501   4.274   3.551  0.0935 -0.0593 -0.2257
20678W        W38202   9.971  11.264  12.781 -0.0312  0.0071 -0.1726
20679W        W38203   1.017   3.850  15.403  0.1135  0.0210  0.0884
20680W        W38204   5.698  17.058  12.468  0.0941  0.1771 -0.1146
20681W        W38205  17.027  15.346   0.688 -0.2684  0.0113 -0.0135
20682W        W38206   4.266  12.477   5.323  0.0270  0.0545 -0.0619
20683W        W38207  10.162   9.829   0.569  0.0805  0.0057 -0.0301
20684W        W38208   5.438   0.356  12.749 -0.0673 -0.1571  0.4301
20685W        W38209   8.077   8.880  14.867  0.2084 -0.3571 -0.2079
20686W        W38210   8.501  16.094   2.118 -0.0996 -0.1856 -0.1254
20687W        W38211   1.138   1.000  15.148  0.2227  0.1462  0.0152
20688W        W38212  15.202  15.141  15.904  0.3633  0.1280  0.1504
20689W        W38213   5.725   8.112  13.034 -0.0375  0.0293  0.0742
20690W        W38214   0.067  13.540  12.036  0.0383  0.1379 -0.1613
20691W        W38215   4.729  11.121   4.683  0.0909  0.1774 -0.0801
20692W        W38216   2.307   3.169   3.559  0.0890  0.2015  0.0896
20693W        W38217  10.428   3.178  14.732 -0.0350 -0.2303 -0.0339
20694W        W38218  13.905   0.652   1.687 -0.1082  0.0210  0.2741
20695W        W38219  12.876   2.328   2.841  0.0603  0.0108  0.0333
20696W        W38220   0.327  14.213  16.309 -0.0472  0.3814  0.0822
20697W        W38221  12.769   2.615  14.561  0.1213 -0.0940 -0.0254
20698W        W38222   3.228   2.396   4.438 -0.0462  0.0740 -0.0651
20699W        W38223   2.995  10.712  13.843 -0.1577 -0.2347 -0.1661
20700W        W38224  13.102  11.851  10.826  0.1179  0.2240 -0.2842
20701W        W38225  14.920  10.818  12.329 -0.1907  0.0116  0.0039
20702W        W38226  10.438  15.924   0.221 -0.2380 -0.0982  0.0326
20703W        W38227   8.256  15.440  13.487  0.1436  0.0747 -0.0228
20704W        W38228   6.654  10.959  12.233 -0.0817  0.0321  0.3371
20705W        W38229  12.945   3.772   4.436  0.2064  0.1064  0.1881
20706W        W38230   6.479  17.083   6.120 -0.0197 -0.2589  0.1575
20707W        W38231   4.514   2.618  16.415  0.0131  0.0605  0.1745
20708W        W38232   9.733   2.155   2.887  0.0760  0.0487 -0.1459
20709W        W38233  13.084   9.022   4.780 -0.3695 -0.2126 -0.0720
20710W        W38234   0.724   6.230   1.595 -0.1162  0.0375  0.4293
20711W        W38235  15.573   1.010  12.882 -0.2108  0.1728  0.0764
20712W        W38236   6.288  13.894  16.086  0.0405 -0.0935 -0.0480
20713W        W38237   8.295   8.158  10.306  0.0261  0.1366 -0.0479
20714W        W38238   3.571  12.504   2.653  0.1445 -0.0411  0.3799
20715W        W38239  15.112  17.785   0.642  0.0881 -0.2149  0.0248
20716W        W38240   0.958  11.030  15.054  0.2110  0.2758 -0.1158
20717W        W38241   3.225   5.113   5.104 -0.0507 -0.1805 -0.1981
20718W        W38242   6.568  14.407   0.525 -0.2210 -0.1764 -0.4285
20719W        W38243  14.129   3.239   5.348  0.1690  0.0381  0.1866
20720W        W38244  17.947  10.539  14.166  0.1275 -0.3944  0.4338
20721W        W38245   4.586  16.415  15.017  0.0489  0.3135 -0.2077
20722W        W38246  10.418  12.583  15.669  0.0356  0.0316  0.3160
20723W        W38247   8.893  13.751  12.878 -0.0833  0.0703  0.0494
20724W        W38248  15.452  13.179  12.406  0.1878 -0.1291  0.3092
20725W        W38249   6.993   4.746   0.569  0.2131 -0.2861 -0.2514
20726W        W38250   4.685   5.890  16.380  0.0528  0.0029  0.1291
20727W        W38251   9.012   5.711   3.251  0.0824 -0.1635  0.0036
20728W        W38252   4.232  15.869   4.823 -0.4103 -0.2937  0.3450
20729W        W38253   6.933   3.378  11.488  0.0193  0.0064 -0.3088
20730W        W38254   6.184  17.149   3.030  0.0286 -0.2839  0.0462
20731W        W38255   6.179  14.969  16.006 -0.1235 -0.1860  0.0922
20732W        W38256  13.241  10.894   0.355 -0.1200  0.1837  0.2068
20733W        W38257   0.070   8.246   0.268 -0.0080  0.0155  0.2963
20734W        W38258   7.486  17.530  15.197  0.0108  0.2164 -0.1574
20735W        W38259   0.249  16.411   4.719 -0.0999 -0.0962  0.1930
20736W        W38260   4.312  14.060   0.051 -0.0345 -0.0143 -0.4391
20737W        W38261   8.757   2.901   1.436 -0.0157  0.0639 -0.0464
20738W        W38262   3.634  11.502   2.600  0.3029 -0.0255 -0.1087
20739W        W38263  11.666   2.254   3.599  0.2842  0.2093  0.1710
20740W        W38264   7.627  13.514   4.913  0.2999 -0.1510  0.0069
20741W        W38265   5.318   0.090  13.589  0.2306  0.0762  0.4715
20742W        W38266   5.345   4.114   3.327  0.2592 -0.0373 -0.4173
20743W        W38267  11.482  15.283  12.160  0.1643  0.2795  0.0513
20744W        W38268   1.396   6.502   0.737 -0.1524  0.1083  0.1325
20745W        W38269   3.677  10.191   2.490  0.0788 -0.3013  0.3849
20746W        W38270   5.144  11.599   1.488 -0.0113 -0.0301 -0.0422
20747W        W38271   3.004   0.328   0.786  0.1489  0.0587  0.1679
20748W        W38272   9.566  16.030  11.863  0.1685  0.3368  0.1115
20749W        W38273  10.886  11.111   3.918  0.1161  0.4017  0.2291
20750W        W38274   1.625   5.394   3.986 -0.0211 -0.0163 -0.2832
20751W        W38275  13.819  15.954   2.854 -0.1979 -0.0599 -0.0823
20752W        W38276  11.683  17.733   3.696 -0.2439 -0.0374 -0.0216
20753W        W38277   7.921   4.894   2.059  0.0361 -0.0386  0.1266
20754W        W38278   0.025   4.484  14.456 -0.2623 -0.1407 -0.0964
20755W        W38279  13.546   5.439  13.147  0.0299  0.2461 -0.2329
20756W        W38280   4.614  10.619  12.160  0.0492 -0.1566 -0.0678
20757W        W38281  17.155   3.779  13.617 -0.3021 -0.0159  0.1634
20758W        W38282   8.640  16.982   2.064  0.0414 -0.1227  0.1568
20759W        W38283   5.250   9.579  15.291 -0.3070 -0.0281 -0.0327
20760W        W38284   8.436   2.060  16.176 -0.1499 -0.1111  0.2324
20761W        W38285   2.573   7.217   4.028  0.1045  0.2139 -0.1447
20762W        W38286  10.292   4.803  12.916  0.0102  0.0269  0.2058
20763W        W38287   2.268   6.273  16.164  0.1179 -0.1018  0.0182
20764W        W38288  13.416  16.517  13.505 -0.0330 -0.1631 -0.0927
20765W        W38289   8.131   3.355  13.254 -0.1087  0.1118  0.1995
20766W        W38290   7.194   4.793  15.203  0.1412  0.0338  0.0972
20767W        W38291   1.212   5.662   4.361 -0.0271  0.2000 -0.3246
20768W        W38292   3.878  11.070   2.990  0.3865 -0.1207  0.1997
20769W        W38293   2.443   8.274  16.026 -0.0838 -0.0273  0.0406
20770W        W38294   2.913  14.019  12.783  0.0786 -0.0052  0.0666
20771W        W38295   3.236   5.874  14.334 -0.2470  0.2534  0.0099
20772W        W38296  15.466  17.504   0.985 -0.3100 -0.4690 -0.0135
20773W        W38297  10.971   9.121   3.023  0.1810  0.3014 -0.0949
20774W        W38298   9.127  16.270   3.526  0.0735 -0.1802  0.2706
20775W        W38299   3.644  13.489   5.059 -0.2789 -0.1227  0.0305
20776W        W38300  11.757  14.394  15.501  0.1434 -0.0332  0.1725
20777W        W38301   4.555  14.683   1.810  0.1568 -0.2581 -0.1372
20778W        W38302  16.810  11.128   1.919  0.2667  0.0132  0.0703
20779W        W38303   8.126  15.649   4.794 -0.3127 -0.1704  0.0455
20780W        W38304   4.590  15.752  13.125 -0.0660  0.0273  0.0533
20781W        W38305  17.298   6.832  12.237  0.1177 -0.1166  0.0271
20782W        W38306   6.891   6.979  12.469  0.0835  0.1874  0.1797
20783W        W38307  12.461  12.973  14.143  0.0189 -0.2180 -0.1250
20784W        W38308   2.563  17.902  11.804 -0.3024  0.0288 -0.2893
20785W        W38309   2.199  15.442  14.888 -0.0946  0.3381  0.1184
20786W        W38310   1.086  12.554   3.014 -0.0238  0.1415 -0.1356
20787W        W38311   5.688   0.729   4.584  0.0238  0.1935 -0.0369
20788W        W38312   0.525   7.874   5.820  0.0286 -0.0168  0.3134
20789W        W38313   1.179  17.398   2.898  0.2592  0.1049  0.2308
20790W        W38314   9.881   2.120  15.204 -0.0705  0.0087  0.3223
20791W        W38315   6.911   9.166   0.792  0.0208 -0.0093 -0.0648
20792W        W38316  16.745  12.693   2.182 -0.3396  0.0183 -0.0709
20793W        W38317  16.370   1.138   1.757 -0.2704 -0.0547 -0.2374
20794W        W38318   6.236  10.878  12.819 -0.0687  0.1941 -0.1998
20795W        W38319  12.992  12.778  14.819 -0.0751 -0.2968 -0.0825
20796W        W38320  10.620   7.951   4.865 -0.0151 -0.0264  0.1099
20797W        W38321  14.015   1.447   0.835  0.1547 -0.1718  0.0529
20798W        W38322   3.143   5.485   4.569 -0.0056 -0.1242 -0.1217
20799W        W38323   8.142   5.236   3.676 -0.0606 -0.0996  0.0438
20800W        W38324  10.291  10.233  14.269 -0.3689  0.2038 -0.0023
20801W        W38325   0.239  10.967   3.826  0.0693  0.2792  0.0983
20802W        W38326   8.762  11.146  14.690  0.2630 -0.2156  0.0069
20803W        W38327   7.141  17.877  15.267  0.0118  0.1952 -0.0490
20804W        W38328  15.563   0.503   1.125 -0.0887  0.0138  0.1438
20805W        W38329   5.997   4.742  15.758  0.0674  0.1540  0.1805
20806W        W38330   4.120   7.971   2.258  0.0335  0.1314  0.0839
20807W        W38331   3.787  11.669  14.483  0.1468  0.2515  0.2742
20808W        W38332   7.918  17.414   5.762  0.0715  0.3775 -0.2062
20809W        W38333   4.193  10.740   3.551 -0.1295  0.2707  0.0393
20810W        W38334  15.965   5.452  13.314 -0.2963  0.0217 -0.2055
20811W        W38335   5.234   8.694  15.058  0.0690  0.0338  0.4089
20812W        W38336  16.662   1.900  13.015  0.2811 -0.0080  0.2143
20813W        W38337   3.387   5.896  10.672  0.5667 -0.3262  0.0375
20814W        W38338   1.413  16.552  14.191 -0.0187  0.1288  0.0963
20815W        W38339   9.616   5.267   2.190 -0.1233 -0.0990 -0.2562
20816W        W38340   5.479  10.997   4.194 -0.2556 -0.0369 -0.0499
20817W        W38341   1.589  12.394   2.173  0.1853 -0.0517  0.4209
20818W        W38342   5.173   9.992  15.063 -0.1022  0.1914 -0.4158
20819W        W38343  14.867   8.257  13.930 -0.0961  0.1178 -0.0076
20820W        W38344   7.273   5.740   2.298  0.1816  0.3011 -0.2998
20821W        W38345   6.184  15.250   1.020  0.0914  0.1554 -0.0980
20822W        W38346  11.310   0.322  12.242  0.0506  0.1950  0.1976
20823W        W38347   4.337  12.597  11.383 -0.2570 -0.4839  0.4080
20824W        W38348  17.400  15.869  12.758 -0.1887  0.0957 -0.2708
20825W        W38349  10.919  15.361  11.597 -0.0014 -0.0005 -0.1526
20826W        W38350  15.378   7.961   3.735 -0.2627  0.0372  0.0845
20827W        W38351   2.829  12.105  14.699  0.3872  0.5231  0.0064
20828W        W38352   7.057  17.896   0.273 -0.1521  0.1090  0.2309
20829W        W38353  15.445   8.544   1.706  0.0250 -0.0491  0.1824
20830W        W38354   3.007   4.275  15.036  0.1079  0.0921  0.2116
20831W        W38355   7.776  16.312  15.902 -0.0886 -0.2114 -0.1334
20832W        W38356   3.919  13.144  13.490  0.0538  0.1263 -0.0016
20833W        W38357  13.235   2.717  14.768  0.2012  0.0625 -0.0369
20834W        W38358   9.962  10.315   0.649 -0.2649  0.0987  0.2577
20835W        W38359   6.931  10.156  10.299 -0.2427 -0.0603 -0.3380
20836W        W38360  17.426  16.698  13.237  0.0151  0.1262  0.1715
20837W        W38361  15.837   0.184   3.587 -0.2138 -0.2712 -0.2448
20838W        W38362   5.981   4.927   1.468  0.3737 -0.0292  0.2316
20839W        W38363  10.905   6.856   1.226 -0.0936 -0.0450  0.0703
20840W        W38364  15.524  16.965   0.472  0.0029 -0.0423  0.2710
20841W        W38365  12.908   5.704   4.427 -0.0791  0.2450  0.0463
20842W        W38366   8.198   1.811  15.274 -0.0987  0.0728  0.4679
20843W        W38367   8.081   5.481  15.058 -0.0924  0.5768  0.0460
20844W        W38368   6.038   0.540   2.970  0.0298  0.0281 -0.0200
20845W        W38369   0.491  14.166  12.839 -0.2117  0.1541 -0.1908
20846W        W38370   3.199  17.240  16.287  0.0252  0.2345 -0.1301
20847W        W38371   1.947  11.860   3.414 -0.3012  0.2996  0.0713
20848W        W38372  14.254   9.515   1.483 -0.0774 -0.0991 -0.0823
20849W        W38373   8.949   6.319  14.343 -0.0087  0.0250  0.1904
20850W        W38374  15.602  13.701  14.949 -0.0016  0.0331 -0.2320
20851W        W38375  14.368   6.966  12.340  0.2020  0.0029 -0.0574
20852W        W38376   0.556   5.510  12.843 -0.2754 -0.1358  0.2202
20853W        W38377   0.563  13.674  13.989 -0.1834  0.3761  0.0667
20854W        W38378  11.923  15.948   3.543 -0.0426  0.1960 -0.0869
20855W        W38379  17.787   9.982   3.493 -0.3237  0.1667  0.0773
20856W        W38380  15.944  15.865   4.276  0.0970 -0.0102 -0.1789
20857W        W38381  12.831   3.699  15.397  0.1908  0.2624 -0.1692
20858W        W38382  13.475   3.024  12.667 -0.1513  0.1028 -0.0205
20859W        W38383   9.662   4.936  12.499 -0.2191 -0.1569 -0.2065
20860W        W38384   6.600  17.589   4.429  0.0381 -0.3627  0.1463
20861W        W38385   7.684   7.367   0.616 -0.2151 -0.1059 -0.2264
20862W        W38386   7.920   5.703  11.169  0.0613 -0.0283 -0.1143
20863W        W38387   8.144   4.183  11.069 -0.0058 -0.0701  0.5106
20864W        W38388   6.405  17.172  11.855  0.2387 -0.0289  0.0488
20865W        W38389   5.670  11.595  15.352  0.2694 -0.2889  0.0151
20866W        W38390   5.586  15.653   5.352  0.0791  0.0464 -0.0466
20867W        W38391  12.199   3.074   0.209  0.1816  0.1653  0.1141
20868W        W38392   5.691   2.723   4.091  0.2715 -0.2131 -0.1561
20869W        W38393   6.717   4.184   0.259 -0.2217  0.0948  0.1541
20870W        W38394  14.384  16.838  16.145 -0.0352  0.0314  0.2480
20871W        W38395   0.443   6.641   0.770 -0.1027 -0.3872 -0.1870
20872W        W38396  17.878  17.853  14.158  0.0750  0.2124  0.0522
20873W        W38397   5.945   5.099   5.862  0.2439 -0.0868 -0.3982
20874W        W38398   1.126  12.272  12.178  0.1688  0.0576  0.1211
20875W        W38399   4.272  10.982   2.663 -0.1175 -0.1661  0.1308
20876W        W38400   6.305  15.201   1.506 -0.0478  0.1138  0.0767
20877W        W38401   2.019   6.953   1.423  0.0310  0.0695  0.0086
20878W        W38402  13.856   0.016   5.410  0.2467  0.5279  0.0571
20879W        W38403  13.685  16.155   1.879 -0.1361  0.1430  0.2594
20880W        W38404  14.848   6.747   2.841  0.1838 -0.2891  0.0402
20881W        W38405  10.947   6.049   2.943  0.0221  0.2113 -0.1463
20882W        W38406   3.623   3.709   2.717 -0.1782 -0.0558  0.1740
20883W        W38407   6.682  17.865  15.835 -0.0018  0.1180  0.2529
20884W        W38408  13.330   9.947   1.374 -0.1068 -0.0755 -0.2565
20885W        W38409  11.344  11.299  15.215 -0.0088  0.0579  0.2842
20886W        W38410   5.949   6.105  13.058 -0.0287 -0.1224  0.0493
20887W        W38411  12.576  17.269   5.034  0.3082  0.1303 -0.3073
20888W        W38412   0.548   0.678  13.891  0.3200 -0.1386  0.0940
20889W        W38413   7.599   4.461   1.890 -0.2016  0.1160  0.1291
20890W        W38414  15.162  15.909  11.635  0.0964  0.1879  0.1358
20891W        W38415  15.775   1.587   5.532  0.1649  0.1795  0.3566
20892W        W38416   2.178  14.603  11.728  0.2785  0.2319  0.1634
20893W        W38417  12.898   5.263  16.462 -0.1852  0.0514 -0.0357
20894W        W38418   6.382  16.626   3.355 -0.1432 -0.0861  0.0019
20895W        W38419   2.698   5.549   2.139  0.4120  0.0853  0.0385
20896W        W38420   0.648  14.612   0.244 -0.1069  0.1260  0.2357
20897W        W38421   8.724   9.634   3.327  0.1310 -0.1872 -0.1799
20898W        W38422  12.055  16.875  10.614  0.2878 -0.0732  0.0613
20899W        W38423   1.298   8.845   3.963  0.1094 -0.0027  0.2799
20900W        W38424   4.566   7.879  15.092  0.1254 -0.0096  0.0216
20901W        W38425  12.120  16.991   2.847 -0.1516 -0.2922 -0.2196
20902W        W38426   2.642  10.541  15.396  0.1577 -0.0978 -0.0249
20903W        W38427  12.615   3.870   4.804 -0.0881 -0.0112  0.1070
20904W        W38428   7.478  14.357   2.563  0.0091  0.0565 -0.0321
20905W        W38429   9.929   0.738  12.053  0.1030  0.0139  0.1113
20906W        W38430  10.756  13.287   0.423 -0.1300 -0.1321 -0.0639
20907W        W38431  12.986   4.069   2.057 -0.0569 -0.1055 -0.2552
20908W        W38432  17.555  12.643  13.222  0.2477 -0.2045 -0.2668
20909W        W38433   1.652  10.589  16.232 -0.1700  0.1239 -0.0127
20910W        W38434   3.360  11.054   4.642  0.2582 -0.1567  0.1270
20911W        W38435   7.106  13.773  15.708 -0.1490 -0.0388 -0.2043
20912W        W38436   7.254   3.139   0.057 -0.4829 -0.1944 -0.0682
20913W        W38437   5.551  14.401  15.028 -0.1228 -0.0442 -0.4144
20914W        W38438  13.896   4.283   1.964  0.3635 -0.0194 -0.0721
20915W        W38439  12.365   2.295   4.540  0.2036  0.0372 -0.2083
20916W        W38440  16.118   4.072  14.096  0.3078 -0.1034 -0.1995
20917W        W38441   9.683  13.159   2.609 -0.0123 -0.2427 -0.0920
20918W        W38442   9.797  15.945   4.406 -0.0759 -0.1715 -0.0117
20919W        W38443   7.318  11.511  12.033 -0.3909 -0.0964  0.1438
20920W        W38444  11.951  17.036   2.062 -0.2955  0.1251 -0.0593
20921W        W38445   6.817   4.907  11.660 -0.0247  0.2058  0.2125
20922W        W38446  14.047   2.488   3.865 -0.1902  0.2966 -0.0720
20923W        W38447   1.724   5.445   0.038  0.1062  0.0259  0.0810
20924W        W38448   6.355   9.516   1.460 -0.2960  0.2755  0.0831
20925W        W38449   6.441   6.150  13.014  0.2869  0.0824  0.0442
20926W        W38450  14.769   2.536  13.705 -0.0900 -0.0512  0.0561
20927W        W38451  15.804   9.168   4.140 -0.0764 -0.4092 -0.2453
20928W        W38452   8.355  11.035  15.568  0.0213  0.1226  0.1764
20929W        W38453  13.666  10.010   2.821 -0.0333  0.2347 -0.1285
20930W        W38454  12.414  14.001  10.947  0.4127  0.1606  0.1906
20931W        W38455  10.455  13.570   1.144  0.0447  0.0587  0.2144
20932W        W38456  10.312   4.889   4.496  0.2431  0.1376 -0.2893
20933W        W38457  16.871   1.238  12.850 -0.1094 -0.0336 -0.0945
20934W        W38458   6.192  10.152  11.651  0.1028  0.0390  0.1833
20935W        W38459   9.294   5.071   4.895  0.0242 -0.0342  0.1244
20936W        W38460  16.414   8.621   9.998  0.1506 -0.1003 -0.0814
20937W        W38461  12.254   4.505  12.493  0.0577  0.3227 -0.2559
20938W        W38462   3.333  16.197  13.165 -0.4040  0.0108 -0.4371
20939W        W38463  14.415   0.395   2.347 -0.3491 -0.2817  0.0422
20940W        W38464   7.563   6.221   2.422 -0.1573 -0.1669 -0.1613
20941W        W38465  11.579  11.742   1.209 -0.1949  0.0167 -0.0513
20942W        W38466   9.231   6.841   3.279 -0.2711 -0.2267 -0.1101
20943W        W38467  11.371  11.319  13.381  0.2052  0.1688  0.1546
20944W        W38468   2.777   5.563  15.682  0.0702  0.0896 -0.0045
20945W        W38469   8.884  11.450  13.970  0.1542  0.2044  0.0461
20946W        W38470  16.663   2.784  11.829  0.2313  0.0727 -0.2027
20947W        W38471  12.873   5.861   0.110 -0.1695 -0.1764  0.1678
20948W        W38472   5.154  13.989   0.010  0.2032  0.1013 -0.0116
20949W        W38473  14.150   9.267  10.525 -0.1153  0.0554  0.1467
20950W        W38474  15.144   1.532  12.673 -0.3914  0.1963 -0.3471
20951W        W38475   6.221   4.453  14.584 -0.2813 -0.0125  0.1524
20952W        W38476  16.088  17.416  16.352  0.3262 -0.4366 -0.2799
20953W        W38477   0.853  15.761   3.382  0.1814  0.0703 -0.0182
20954W        W38478  16.858   6.823  16.081 -0.2043 -0.0014  0.3608
20955W        W38479   8.689   1.054   5.613  0.2036  0.0188  0.0292
20956W        W38480   4.623   9.309   2.875 -0.2749 -0.2366 -0.0632
20957W        W38481   0.576   5.123   3.817  0.2868 -0.2642  0.3256
20958W        W38482   5.704   5.951  15.757  0.4722  0.0048 -0.0652
20959W        W38483   2.840  11.772   5.082 -0.0683  0.2643  0.2779
20960W        W38484   9.706   9.826   1.759 -0.2078  0.0150  0.0484
20961W        W38485   7.639   3.479  14.457  0.4180 -0.0583 -0.1100
20962W        W38486   0.733  14.395  14.140  0.1284 -0.0316 -0.0434
20963W        W38487   2.898   5.218   4.211 -0.0236 -0.2402 -0.4688
20964W        W38488  10.503   2.004  15.894 -0.2646  0.0708  0.1787
20965W        W38489   8.138  11.668   1.502 -0.0100 -0.4023 -0.0206
20966W        W38490  13.328  12.828   0.946 -0.2191  0.0248  0.1694
20967W        W38491  13.731   1.517   3.807  0.4218  0.0738  0.2555
20968W        W38492   4.418   6.269  12.330 -0.0494  0.1159  0.1584
20969W        W38493   7.441  15.685  13.084 -0.0254  0.0981  0.0447
20970W        W38494  13.514  12.379  12.112 -0.3232 -0.1296 -0.2389
20971W        W38495  17.213  12.846   2.424  0.2300 -0.2083 -0.0226
20972W        W38496  16.745  14.481  14.019  0.0035 -0.3608 -0.1290
20973W        W38497  13.085  10.565   2.595  0.1324  0.1765  0.1362
20974W        W38498  17.210   5.235   0.875  0.1174 -0.0148 -0.1873
20975W        W38499   4.108  12.199  15.925  0.1477  0.2120 -0.0419
20976W        W38500   3.841  17.466   4.572 -0.4033 -0.0303  0.1865
20977W        W38501   9.261   9.878  15.216 -0.0030  0.0482  0.0735
20978W        W38502   2.502   0.772   5.835 -0.1028  0.2054  0.3779
20979W        W38503  12.450   6.253  12.805  0.0831  0.1240  0.0748
20980W        W38504   6.171  15.863   1.592 -0.1826 -0.0916  0.1248
20981W        W38505   2.518  16.298   5.074 -0.0141 -0.0168  0.0200
20982W        W38506  12.267  14.608  11.603  0.2590  0.4853 -0.0899
20983W        W38507  11.945   0.222   2.434 -0.1380 -0.1583 -0.1514
20984W        W38508   3.801   8.645  12.848 -0.1459 -0.1019 -0.1095
20985W        W38509   5.419   7.598  16.460 -0.1802  0.1139 -0.0654
20986W        W38510   1.815   2.642  13.915 -0.0108  0.2851 -0.2151
20987W        W38511  15.689  11.298  13.354  0.3902 -0.0228  0.0407
20988W        W38512   4.072   5.853   3.450 -0.0361  0.1007  0.1323
20989W        W38513  13.672  12.297  14.143  0.0553  0.0777 -0.0057
20990W        W38514  10.277   0.237   2.905 -0.1910 -0.2096 -0.1057
20991W        W38515  16.197  17.166  13.389 -0.0428 -0.1960 -0.1906
20992W        W38516  13.820   1.427  15.268 -0.0881  0.0641  0.2372
20993W        W38517  17.692  12.933   1.111 -0.1991  0.0519 -0.1120
20994W        W38518   8.154   9.792  13.332  0.1231 -0.0608 -0.0127
20995W        W38519  10.503   1.212  14.186  0.0500  0.0577 -0.0830
20996W        W38520  16.073  17.966  16.376 -0.4685  0.3896 -0.2292
20997W        W38521  17.424  16.469   0.267 -0.0312 -0.4955  0.0670
20998W        W38522  11.038   7.566  14.972  0.0603 -0.1048  0.0297
20999W        W38523  16.581  10.161  14.846  0.2268  0.4978 -0.1875
21000W        W38524   6.770   0.677  13.503  0.3776 -0.0804 -0.0459
21001W        W38525  16.391  16.484  14.077  0.0581 -0.1820  0.2567
21002W        W38526  17.342  15.202  12.734  0.1255  0.0101 -0.0767
21003W        W38527  11.206  15.532   2.648 -0.0715  0.3106 -0.0044
21004W        W38528  13.823   7.719  14.903  0.1885 -0.1078 -0.0957
21005W        W38529  12.900   5.463   0.489  0.0712  0.0462 -0.1058
21006W        W38530  14.539  14.488  13.131  0.0652 -0.3541  0.0954
21007W        W38531   7.053   8.185   3.902 -0.1898  0.1021  0.0465
21008W        W38532  10.254  10.953   4.113 -0.0655  0.0605  0.0874
21009W        W38533   5.150   6.391   4.481 -0.0572  0.0415  0.2625
21010W        W38534   4.434  13.482   0.236 -0.4372 -0.0168 -0.0090
21011W        W38535   0.567   2.581   1.182 -0.2305  0.2657  0.2076
21012W        W38536   8.512   1.415  15.592  0.1869 -0.0008  0.0885
21013W        W38537  11.352  10.470  13.615 -0.0055  0.1467 -0.1455
21014W        W38538  13.631   1.827   4.176  0.0089 -0.2734  0.2484
21015W        W38539  17.470   1.404  11.457 -0.2235 -0.1495 -0.0216
21016W        W38540   8.956   9.240  12.354 -0.3944 -0.1563 -0.2312
21017W        W38541   0.822   9.240  14.499  0.2207  0.1176  0.0543
21018W        W38542   9.282  17.649  13.431 -0.0628  0.1692  0.1069
21019W        W38543   0.789  11.718   1.641  0.1296 -0.0943 -0.1310
21020W        W38544  13.325   9.802   4.331 -0.1270  0.0946 -0.1001
21021W        W38545   0.987  11.611   1.126 -0.4242  0.0944 -0.2765
21022W        W38546   7.497   5.470   0.302  0.0071 -0.0333 -0.0267
21023W        W38547  14.284  10.418   3.248 -0.1292  0.0183 -0.2454
21024W        W38548   8.559   0.541  15.768  0.2292  0.1659  0.0257
21025W        W38549  11.890   5.454   1.489  0.0221  0.0888  0.0074
21026W        W38550  12.482   6.010  14.270  0.2107 -0.3748  0.0221
21027W        W38551  12.493  12.457   3.161 -0.0199 -0.4027  0.1277
21028W        W38552  10.869   1.109  16.046  0.0685  0.2895 -0.1915
21029W        W38553  15.647  10.510   3.342 -0.1459  0.2376  0.0785
21030W        W38554   3.002   8.306   2.738  0.0725  0.0327  0.0577
21031W        W38555  11.962   8.950  13.701 -0.2328  0.0665  0.0231
21032W        W38556  11.776   8.550   4.333  0.3508  0.3304 -0.3617
21033W        W38557   3.588   8.892   2.539  0.2467 -0.1156 -0.0726
21034W        W38558  13.967   3.421   0.602  0.2671  0.3192 -0.0899
21035W        W38559  16.518  13.726   2.386  0.2358  0.2833 -0.0911
21036W        W38560  14.609  10.093   2.290 -0.0103  0.1807 -0.1055
21037W        W38561  12.395   9.593   2.022  0.0706 -0.4684  0.1010
21038W        W38562  12.653   9.169   2.897 -0.2480 -0.1623  0.2351
21039W        W38563  11.009  12.981  12.775  0.1815  0.2330 -0.0779
21040W        W38564   7.256  10.727   0.783  0.1695 -0.1721  0.1706
21041W        W38565   9.049  17.717  15.040  0.0827 -0.0377  0.0060
21042W        W38566   6.813   1.464   0.150 -0.1966 -0.2873 -0.0279
21043W        W38567   4.695   1.577   5.348  0.0320 -0.0054  0.0100
21044W        W38568  12.670   0.496   2.387  0.3240 -0.0953  0.0411
21045W        W38569  13.016   4.525  14.513 -0.0855  0.0812 -0.2096
21046W        W38570  12.657   5.534  14.589  0.0974 -0.2691 -0.2389
21047W        W38571   2.291   9.424   1.632  0.1233 -0.3347 -0.2505
21048W        W38572   0.524   6.066  13.027  0.3572 -0.2855 -0.0216
21049W        W38573   3.362  16.127   2.850  0.2617  0.4372  0.0521
21050W        W38574  16.869  13.817  15.871  0.0342 -0.1394  0.1770
21051W        W38575   8.285   2.117  12.747 -0.0406 -0.0879  0.2392
21052W        W38576  15.660  12.716   0.269  0.0629  0.0549 -0.0930
21053W        W38577  15.174   8.581  12.989  0.1147 -0.0215  0.5774
21054W        W38578   8.223   9.466  16.253 -0.5561 -0.2233 -0.1729
21055W        W38579  17.183  10.862   0.763  0.3298 -0.0156  0.0186
21056W        W38580   2.376   6.260  13.122 -0.0382  0.0807  0.0232
21057W        W38581  10.794  17.085   2.744 -0.1146  0.0533  0.0856
21058W        W38582   4.553  10.197   4.142  0.0532 -0.1223  0.0088
21059W        W38583   3.219  10.405   2.748  0.1529 -0.1600  0.0537
21060W        W38584   0.713   2.674  14.506 -0.1765 -0.1971 -0.2871
21061W        W38585  13.033   1.963  12.388 -0.0253 -0.4554 -0.1885
21062W        W38586   1.624   1.767  13.871 -0.0582 -0.4169  0.2929
21063W        W38587  15.845  16.582  12.229  0.0796 -0.1811 -0.3891
21064W        W38588   7.606   2.045   3.972 -0.1827  0.0060  0.2239
21065W        W38589   7.304  12.854   2.218 -0.1061  0.2203 -0.2625
21066W        W38590   6.048   3.547  13.120 -0.0979 -0.0666  0.2317
21067W        W38591   5.115   1.965  13.185  0.2733 -0.2461 -0.0816
21068W        W38592  10.171   2.352   5.930  0.0360  0.3105 -0.1367
21069W        W38593  12.360  10.197  11.711 -0.0254 -0.1595  0.0027
21070W        W38594  17.809  11.358  12.718 -0.1003 -0.2466 -0.0834
21071W        W38595   7.643  15.812  12.039 -0.0477 -0.0511 -0.1408
21072W        W38596   5.731   0.925  13.530  0.1306  0.0794  0.2116
21073W        W38597  10.042  11.452   4.785 -0.2180  0.0449  0.0447
21074W        W38598  11.860   3.683   3.064 -0.0846 -0.1764 -0.1326
21075W        W38599   0.312  14.444   3.997 -0.0386  0.1567  0.0804
21076W        W38600  16.697  13.776  12.643  0.1076  0.0671 -0.0725
21077W        W38601   5.737  12.864   3.210 -0.1039  0.0439 -0.1714
21078W        W38602   9.109  12.981  12.394 -0.2400  0.1237  0.4790
21079W        W38603  15.783  17.653   4.780 -0.1629  0.0977 -0.1757
21080W        W38604   6.638   5.561   0.059  0.2307 -0.0142 -0.0284
21081W        W38605  16.991   3.873  14.597 -0.1507 -0.1444 -0.0550
21082W        W38606  15.102  15.657   4.091  0.0908  0.1683  0.3387
21083W        W38607  14.302  13.007   5.330  0.0409  0.1469  0.2846
21084W        W38608   7.535  13.581   0.189 -0.1477 -0.1176  0.1854
21085W        W38609  11.116  14.725   5.153 -0.1230 -0.2139  0.0952
21086W        W38610  11.667  12.221  14.138  0.3352  0.2411  0.1642
21087W        W38611   7.371   0.641   2.504  0.1850 -0.1322  0.0079
21088W        W38612  14.448  14.943   0.538 -0.2082 -0.0064  0.3238
21089W        W38613  15.538   1.499   2.363 -0.1481 -0.0364  0.1036
21090W        W38614  14.253   4.218  14.049  0.2322  0.1123  0.2589
21091W        W38615  14.531  16.242   1.208 -0.0798  0.0353  0.3165
21092W        W38616  15.557   0.539   4.701  0.0496 -0.2458 -0.2450
21093W        W38617  14.015  12.620   4.654  0.1816 -0.4582 -0.2328
21094W        W38618   4.897   4.187   2.517 -0.2236  0.1294 -0.2701
21095W        W38619  16.992   5.113  15.469  0.1285  0.0537 -0.0719
21096W        W38620   0.510   4.716  14.480 -0.0489 -0.4202  0.3802
21097W        W38621  15.840  13.282   1.210  0.0208  0.1080  0.0139
21098W        W38622  15.080  15.157   5.273  0.0075  0.0141 -0.2391
21099W        W38623  11.460   8.401   2.970  0.3048  0.1656  0.1491
21100W        W38624  10.158   6.171   4.794  0.2993  0.0147 -0.2209
21101W        W38625  10.690   4.909   5.525 -0.2853  0.2228 -0.1454
21102W        W38626  13.916   4.143   1.371  0.3036  0.0884 -0.1969
21103W        W38627   2.806   6.764   4.017  0.2657 -0.0772 -0.2586
21104W        W38628  13.696   7.912  12.832  0.2932  0.1133  0.4033
21105W        W38629   1.093   1.843   0.768 -0.0204 -0.1187  0.0791
21106W        W38630  12.793   3.788   3.684 -0.4363 -0.0995  0.1748
21107W        W38631   5.300  14.688   1.784 -0.1588  0.0325 -0.0325
21108W        W38632   5.196   0.063   1.357 -0.2110  0.0621 -0.0620
21109W        W38633   7.802  10.185  15.234 -0.2136 -0.1789  0.0097
21110W        W38634  13.414  12.688  11.658  0.0357 -0.0387  0.0166
21111W        W38635   1.275   9.214   3.542 -0.0796 -0.0412 -0.0956
21112W        W38636  12.189   5.176  15.425  0.2472  0.1127  0.0658
21113W        W38637  15.277   2.576   0.918  0.0728  0.1858 -0.0099
21114W        W38638   2.341   7.335   4.506  0.1104  0.2863 -0.0198
21115W        W38639  14.285   1.238  11.912 -0.0990 -0.0052  0.1358
21116W        W38640  17.842  14.346  12.381  0.1442 -0.2067 -0.0677
21117W        W38641  13.851  11.068   3.033  0.0526  0.1751 -0.2333
21118W        W38642   9.025   0.927  13.627 -0.4598  0.1765 -0.0763
21119W        W38643   0.632  11.435  15.712 -0.0050  0.0858  0.0373
21120W        W38644   3.271   7.639   0.221  0.2733 -0.0588 -0.3262
21121W        W38645  17.613  11.776  15.579  0.0616 -0.0602 -0.4883
21122W        W38646   8.003   9.861  16.040 -0.2405 -0.0017 -0.0690
21123W        W38647   7.043  10.111  11.143 -0.1205 -0.4321  0.3002
21124W        W38648  17.200   0.824   2.051  0.0338  0.2498 -0.1141
21125W        W38649  16.980   2.247   3.884 -0.3858  0.2330  0.1053
21126W        W38650   2.697   3.992   3.317  0.0628  0.0223  0.2901
21127W        W38651   1.113   3.334   1.142  0.0553 -0.1328  0.2765
21128W        W38652  15.923  12.342   3.151  0.0094 -0.0934  0.0350
21129W        W38653   0.436   0.522   1.660  0.4661  0.0200 -0.0307
21130W        W38654  11.895   8.446   1.182  0.1700 -0.1079 -0.2867
21131W        W38655   4.915   9.055  15.236  0.1815 -0.2431  0.0500
21132W        W38656   7.226   0.162   3.666  0.0303 -0.4013 -0.0469
21133W        W38657   8.384  12.931  11.546 -0.1856 -0.2617 -0.0860
21134W        W38658   8.315   2.090   0.222 -0.0521  0.1158 -0.0420
21135W        W38659  12.233   7.063  13.418  0.1371 -0.0372  0.1312
21136W        W38660   2.544   5.237  14.395 -0.0685  0.4637 -0.0900
21137W        W38661  10.932   3.669  14.140  0.2709  0.1319 -0.1656
21138W        W38662   4.317  17.926  14.573 -0.0165  0.0769  0.2726
21139W        W38663   4.663   5.137  13.687 -0.2591  0.2168 -0.0666
21140W        W38664  14.950   9.464  13.078 -0.1408 -0.2796 -0.3717
21141W        W38665   3.410  17.919   2.094  0.1950 -0.1430 -0.0407
21142W        W38666   8.713   0.167  13.194  0.2010  0.0038  0.1195
21143W        W38667  17.684   9.259  12.616  0.1845  0.0287 -0.1569
21144W        W38668  12.664  16.446  15.558 -0.3240 -0.0936  0.1567
21145W        W38669   2.203   2.916  16.156  0.0876 -0.2296 -0.1288
21146W        W38670   4.286  13.764  14.412 -0.0624  0.2215 -0.2276
21147W        W38671  10.281   3.741   1.103 -0.2515  0.1808  0.3991
21148W        W38672   9.028  12.162  11.652  0.0319 -0.0083  0.1199
21149W        W38673  13.499   8.575   1.913 -0.0064 -0.3553  0.0290
21150W        W38674  16.961   2.923  13.987  0.3741 -0.1118  0.3382
21151W        W38675  15.141   4.349   0.696  0.1960 -0.0740  0.0209
21152W        W38676  11.056  12.697  11.912 -0.0375 -0.1720  0.3572
21153W        W38677  16.589   8.562   2.441 -0.2062 -0.3164 -0.0391
21154W        W38678  13.166   7.266   2.210  0.1763  0.2617  0.2063
21155W        W38679   1.016  11.328   4.258  0.3186  0.4124 -0.2853
21156W        W38680   6.180   8.025   1.217  0.1972  0.0704 -0.0485
21157W        W38681   2.684  14.361   2.337  0.1033 -0.2972  0.1144
21158W        W38682  15.903   5.437   2.008  0.3868  0.2713  0.0572
21159W        W38683  11.861   8.090   3.133 -0.0240 -0.2276  0.7541
21160W        W38684   8.870   2.466  15.286  0.1726  0.1702 -0.1704
21161W        W38685  16.805   9.117   1.787 -0.0972  0.1608  0.0825
21162W        W38686  17.754  10.237   0.779  0.2288  0.1660 -0.0135
21163W        W38687  10.976  13.667   0.118 -0.1381 -0.1585  0.0422
21164W        W38688   7.113   5.749   0.103 -0.0068  0.0867 -0.1674
21165W        W38689  16.320   6.581   4.261  0.0567 -0.0308  0.1477
21166W        W38690  13.600  15.568   0.169  0.0328 -0.1585  0.1174
21167W        W38691  17.620   5.058  14.153  0.1745  0.2114  0.1677
21168W        W38692  15.668   6.900   0.149 -0.1498  0.0074  0.3580
21169W        W38693   2.767  14.057   0.417 -0.3240 -0.0929 -0.1409
21170W        W38694   4.606  15.739  11.510  0.2278 -0.1842 -0.0888
21171W        W38695   5.090  17.077  11.443  0.0851  0.1445 -0.2445
21172W        W38696  14.414   7.576  16.233 -0.4076 -0.2870 -0.1330
21173W        W38697  15.202   2.588  11.879 -0.0991 -0.5210  0.1511
21174W        W38698  10.191   6.774  12.703  0.2325 -0.0979  0.2775
21175W        W38699   2.269   5.326   0.585  0.1633 -0.2461  0.0140
21176W        W38700  13.244  16.927  14.424 -0.0617  0.1031 -0.4212
21177W        W38701  16.366  12.407   1.428 -0.1183 -0.2193  0.0124
21178W        W38702   8.173  10.287  15.915  0.0216  0.0127  0.0995
21179W        W38703  17.924   8.015   2.793 -0.1972  0.0561  0.0713
21180W        W38704   1.721   7.835  11.944 -0.0696  0.1754 -0.0347
21181W        W38705  13.814   1.701   1.795 -0.0390 -0.1246  0.2849
21182W        W38706   5.334   1.988  16.417  0.0445 -0.0935 -0.3012
21183W        W38707  13.457  12.006  14.582 -0.0523 -0.2021 -0.1287
21184W        W38708   3.713   3.062   4.720  0.1432  0.1801  0.1329
21185W        W38709   3.745  16.583  15.198  0.2500 -0.2935 -0.0414
21186W        W38710   4.325   3.083   2.455  0.0799 -0.1378 -0.2442
21187W        W38711  14.843  16.202  14.587 -0.0084  0.1542  0.2644
21188W        W38712   5.083   7.652  12.667 -0.2015 -0.2363 -0.1883
21189W        W38713   4.108   5.580  12.100 -0.1103  0.2480 -0.0187
21190W        W38714  10.837   0.127   3.779  0.0161  0.1419  0.0475
21191W        W38715   1.042  16.905  15.047  0.2120 -0.4358  0.1075
21192W        W38716  17.635   4.556  14.840 -0.0829  0.1771 -0.0521
21193W        W38717   7.488   1.711  13.216 -0.0859  0.0126  0.0008
21194W        W38718  13.906   0.728   2.715 -0.5264  0.2639  0.2622
21195W        W38719   3.477   0.275  14.500 -0.3254  0.1686  0.1581
21196W        W38720   3.432  10.721   2.135  0.0094  0.2190 -0.0112
21197W        W38721  17.536  16.894   1.846 -0.1949  0.1978 -0.2755
21198W        W38722   0.560   9.063   4.454 -0.0853  0.2040 -0.0082
21199W        W38723  17.491   2.939   2.571 -0.0079 -0.1619 -0.1068
21200W        W38724  12.904   0.963   0.772 -0.0298  0.1592  0.2334
21201W        W38725  14.826   2.856  12.106  0.1800 -0.1645  0.0098
21202W        W38726  10.103   2.035  14.638  0.0444 -0.1486 -0.1137
21203W        W38727   2.278   3.935  12.647  0.1654  0.1873 -0.1728
21204W        W38728   2.317  14.845  14.243  0.4231  0.1573 -0.1952
21205W        W38729   4.853  10.951   0.020 -0.1659 -0.1160 -0.3517
21206W        W38730  10.549  17.642   4.804 -0.2697 -0.0289  0.1243
21207W        W38731  12.224  12.537   4.830 -0.1524  0.1353 -0.0921
21208W        W38732   0.720   3.757  10.505 -0.1431 -0.0067  0.0671
21209W        W38733  10.461   5.248  15.393  0.2048  0.0369  0.2223
21210W        W38734  14.674   1.604   2.447 -0.1969 -0.3494 -0.1091
21211W        W38735  15.156   8.632   2.974 -0.3856  0.0288 -0.4070
21212W        W38736   7.847   1.760  14.976  0.4858  0.1660 -0.0484
21213W        W38737  15.100  12.803   1.064  0.1101  0.0651 -0.1013
21214W        W38738  12.331   4.656   0.571  0.2412 -0.0541  0.2726
21215W        W38739  12.859  15.901   0.807 -0.3445 -0.1539  0.1132
21216W        W38740  11.122   0.139  15.089 -0.0429 -0.0935  0.1643
21217W        W38741  12.778   1.381  13.524  0.1771 -0.0482 -0.1322
21218W        W38742  15.054   8.756  13.848  0.1660  0.1115 -0.3925
21219W        W38743   5.737   1.123   3.727  0.0051 -0.3513  0.1480
21220W        W38744  15.302   1.494   0.499  0.2622  0.0692 -0.1042
21221W        W38745   4.074  13.236   3.669 -0.1612  0.2124  0.1513
21222W        W38746   1.770   1.022  12.304 -0.3080 -0.0155 -0.0570
21223W        W38747  13.843   6.765   3.435  0.0854  0.0539  0.1049
21224W        W38748  14.789  17.318   3.103  0.2464 -0.0069  0.0239
21225W        W38749   8.520  14.869  13.673 -0.0898 -0.0958 -0.2559
21226W        W38750  16.045  14.228  12.017 -0.0317  0.3022 -0.0192
21227W        W38751   5.653  14.568   3.222  0.1353 -0.1172 -0.3872
21228W        W38752   2.399   1.415   3.562 -0.0268  0.1363 -0.2105
21229W        W38753  10.710   5.168   4.533 -0.2730 -0.0500 -0.0722
21230W        W38754   9.386   2.527  10.924 -0.1068  0.3474 -0.3399
21231W        W38755  15.508   0.023   1.183 -0.2204  0.0530  0.3919
21232W        W38756   4.621  15.729   1.740  0.1252 -0.2733 -0.0171
21233W        W38757   5.363   2.308  12.728  0.0030 -0.0709 -0.0364
21234W        W38758  13.577  17.237  11.375  0.2286 -0.0006 -0.0347
21235W        W38759   5.980   4.328   2.408  0.0738 -0.0341 -0.2241
21236W        W38760   6.057  13.298   3.359  0.4205 -0.2171 -0.3463
21237W        W38761   9.561  17.610  14.347  0.1097  0.1067 -0.0428
21238W        W38762  16.562   8.718  11.046  0.2725  0.0853  0.3172
21239W        W38763   9.856   3.663   4.959 -0.0018 -0.1311  0.0519
21240W        W38764  15.573   1.516   3.644  0.2792 -0.2668  0.0875
21241W        W38765   3.515   2.136   4.982  0.1860  0.1745 -0.1166
21242W        W38766   6.405   3.800   1.766 -0.1914  0.1134  0.1616
21243W        W38767   6.140   9.840  16.236 -0.1175  0.0136  0.0607
21244W        W38768   1.629  11.632   3.051  0.2787  0.4024  0.2131
21245W        W38769  11.487   5.587  15.199  0.1758 -0.5741 -0.0628
21246W        W38770   7.021  13.038   4.350 -0.3578 -0.4221 -0.0329
21247W        W38771   2.083   6.563   6.214 -0.0209 -0.0094 -0.0710
21248W        W38772  10.366  15.853  13.685  0.0550 -0.0853  0.0988
21249W        W38773  12.914   7.139   3.019  0.1474  0.2966 -0.3182
21250W        W38774   3.429   3.243  13.709  0.2432  0.2716  0.1375
21251W        W38775   6.999   7.937  14.278 -0.1782  0.2809  0.0916
21252W        W38776   7.067  10.754  15.760 -0.1328  0.0402  0.0139
21253W        W38777   2.610   4.118  12.233  0.1164 -0.0725  0.3666
21254W        W38778   4.016   0.312  13.746 -0.3321  0.2801  0.2073
21255W        W38779   4.856  16.519  15.521 -0.0113  0.1515  0.2526
21256W        W38780   6.458  16.621  15.602  0.3075 -0.2270  0.2073
21257W        W38781  14.378   0.005  13.160  0.1935 -0.2473  0.2208
21258W        W38782   4.018   1.181   0.454 -0.1184 -0.0593 -0.3279
21259W        W38783   4.085   0.329  16.266 -0.3517 -0.0617 -0.0512
21260W        W38784   9.910   9.223  15.692  0.0095  0.2562  0.2225
21261W        W38785  15.691   9.841  14.666  0.0821  0.1089  0.0815
21262W        W38786  11.256   2.604   1.542 -0.1891 -0.2656 -0.2267
21263W        W38787   4.302   7.068  14.060  0.1432  0.3374  0.3365
21264W        W38788   4.534  14.841  15.493 -0.2952  0.1780 -0.2803
21265W        W38789   4.772   7.200   2.368 -0.0721 -0.0943 -0.2306
21266W        W38790  13.580   9.052   2.664  0.0590 -0.1652  0.0144
21267W        W38791  13.107   5.023  15.560 -0.2043 -0.1597  0.2555
21268W        W38792  10.463   7.453  14.805  0.0221  0.3956  0.0410
21269W        W38793   6.621   9.454   3.468  0.1472  0.0503 -0.1831
21270W        W38794   4.707   3.605   1.884 -0.0720 -0.0894 -0.2480
21271W        W38795   9.463  12.211  12.838  0.3674 -0.2273 -0.2191
21272W        W38796   1.102  10.737   1.615 -0.1518 -0.4043 -0.0626
21273W        W38797  12.708   1.537   1.954  0.3714  0.2347 -0.2049
21274W        W38798  17.797  13.860   1.129  0.0413  0.1242 -0.2463
21275W        W38799   3.938   9.209   4.600 -0.3002  0.1078  0.0093
21276W        W38800  12.419  17.439  16.411 -0.3529  0.4069 -0.2418
21277W        W38801  10.081   9.563   0.133 -0.1935  0.0001 -0.5125
21278W        W38802   3.348   8.405  14.073 -0.0490  0.0349 -0.0236
21279W        W38803   4.087  11.467   5.304 -0.0239 -0.4274  0.0042
21280W        W38804   1.059   5.604   2.664 -0.1014 -0.0044 -0.0275
21281W        W38805  12.281   1.673  16.289 -0.1071 -0.0688 -0.0191
21282W        W38806   7.787   1.705   2.738 -0.0007  0.0477 -0.0254
21283W        W38807   1.578   3.499   3.999  0.0812  0.0485  0.1335
21284W        W38808   2.753   5.930  12.999 -0.0532 -0.0112  0.2014
21285W        W38809  11.168   5.394  16.122  0.4218 -0.0826 -0.1325
21286W        W38810   5.420   9.027  13.489 -0.0509  0.2504  0.0411
21287W        W38811   8.826  17.168   4.706  0.1590  0.0934  0.2432
21288W        W38812  10.100  17.539  15.527 -0.1100 -0.2273 -0.0054
21289W        W38813   7.241  16.867  11.933  0.3906 -0.2420  0.2589
21290W        W38814  17.702   5.077  12.893 -0.0339 -0.0038 -0.2339
21291W        W38815  14.745   6.305  14.243  0.0377  0.2038  0.1163
21292W        W38816   2.577   9.357  12.638 -0.0002  0.1890  0.0490
21293W        W38817   8.936  12.412  14.393  0.0425 -0.1464 -0.1198
21294W        W38818  11.660   8.511  15.541  0.3940  0.1041 -0.3922
21295W        W38819   4.795   1.299   3.349 -0.0003 -0.0010  0.0608
21296W        W38820   7.285  15.515  11.771 -0.0881 -0.0602  0.0827
21297W        W38821   8.189   3.831  12.095 -0.1396 -0.1499  0.3402
21298W        W38822   3.697  17.362  16.200 -0.2144  0.0373 -0.0381
21299W        W38823   8.030   5.777  12.185  0.1160  0.0820 -0.2109
21300W        W38824  15.953  14.694  15.762  0.2374  0.0124  0.1483
21301W        W38825   9.360   3.907   0.807 -0.0773 -0.1882  0.1738
21302W        W38826   8.911   0.219  16.005 -0.0183 -0.1176 -0.0473
21303W        W38827   9.200  13.562   3.983 -0.0262 -0.1167  0.1600
21304W        W38828  11.872  15.036   5.703  0.1852 -0.2380  0.2588
21305W        W38829   8.607  10.273   2.866 -0.4083  0.1306 -0.0327
21306W        W38830   3.040   2.122   2.208  0.2684 -0.0759  0.0251
21307W        W38831   8.550   4.797   3.424  0.2266 -0.1252 -0.2637
21308W        W38832   4.279  14.013   2.043 -0.1317  0.5895 -0.0168
21309W        W38833  12.032  13.552   5.284 -0.1236  0.2595  0.1910
21310W        W38834  11.926   4.589   4.246 -0.0351  0.2474  0.1333
21311W        W38835   7.549   8.902   4.501 -0.1179  0.1353  0.0193
21312W        W38836   2.879   6.263   4.109  0.3395  0.1032 -0.0388
21313W        W38837  11.449   6.497   2.268 -0.0270 -0.2295 -0.0706
21314W        W38838   1.687   3.714  14.832  0.1627 -0.2145  0.0583
21315W        W38839  10.453   8.951   0.449 -0.2200 -0.0813  0.0931
21316W        W38840   2.259   7.940   1.316  0.0132 -0.0174 -0.2084
21317W        W38841  11.405   9.960   1.355 -0.0282 -0.2299  0.1276
21318W        W38842   9.324  11.744  16.084  0.0812 -0.1827  0.1110
21319W        W38843   0.052   1.971   3.251  0.1587 -0.2680  0.0656
21320W        W38844   4.491  17.239  11.811  0.1367  0.0508 -0.3840
21321W        W38845  10.036  17.759  14.467  0.0746  0.0824  0.2602
21322W        W38846   2.628  10.322   4.756 -0.4351 -0.1334  0.1142
21323W        W38847   4.875  14.853   3.630 -0.2094 -0.0318  0.0820
21324W        W38848   8.574  16.887  11.786  0.1396 -0.0540  0.2369
21325W        W38849  15.639  11.201   4.532  0.1521 -0.3161  0.3341
21326W        W38850   7.722   4.265  12.926  0.0509  0.1128 -0.0500
21327W        W38851   0.498   7.334   4.631  0.1901 -0.0562  0.4723
21328W        W38852   3.592  14.333   3.485  0.0677 -0.0115 -0.0525
21329W        W38853  10.117   4.810  13.782 -0.0824  0.0286 -0.0365
21330W        W38854   0.728   7.839  16.022 -0.0692  0.1717 -0.2939
21331W        W38855   9.294  15.187   4.496 -0.1191  0.2299 -0.1771
21332W        W38856   8.420  16.053  12.385 -0.2734 -0.0118 -0.0910
21333W        W38857  15.860   0.648  13.272  0.0301  0.2466  0.1158
21334W        W38858  15.789  17.119  12.210 -0.0996  0.0297  0.1820
21335W        W38859   6.008  11.547   1.760  0.0215 -0.1277 -0.6355
21336W        W38860   2.774   7.020  13.857 -0.1463  0.0414  0.0576
21337W        W38861  15.682   0.348   2.297  0.1180 -0.1779 -0.0455
21338W        W38862  13.787  10.053   1.247  0.0181 -0.2486  0.4089
21339W        W38863  10.678  12.693  15.232  0.2293 -0.2946 -0.0455
21340W        W38864   4.284   1.586   0.311 -0.0544  0.2642 -0.0402
21341W        W38865   1.476  16.425   2.962 -0.1963 -0.0109 -0.2293
21342W        W38866   3.316   2.726   1.566 -0.3307  0.1347  0.0512
21343W        W38867   3.756   9.561  11.802  0.1916 -0.1230 -0.1178
21344W        W38868  11.196  16.686   3.402 -0.1060 -0.2530 -0.1122
21345W        W38869  15.811   5.603  12.463 -0.0393  0.4031 -0.0840
21346W        W38870   4.548   6.123   5.043 -0.2247  0.1397  0.0025
21347W        W38871   9.240   9.972   0.889  0.2997 -0.1467 -0.3260
21348W        W38872   0.983  14.993   1.707 -0.0382 -0.0888  0.1519
21349W        W38873   3.876  16.050   1.016 -0.0824 -0.3355  0.0844
21350W        W38874   6.026   2.552   1.803 -0.3696  0.0087 -0.1948
21351W        W38875  17.439  13.498  13.738  0.0138 -0.2846  0.1316
21352W        W38876   9.709   2.530   3.238  0.0837  0.1642  0.0333
21353W        W38877  11.516   4.945   2.677  0.0972  0.0766 -0.3081
21354W        W38878   6.384  16.691   2.880  0.1126  0.1311 -0.2521
21355W        W38879  11.496  13.815  14.021  0.0860  0.0663 -0.1501
21356W        W38880   0.585   7.348  12.482 -0.3882  0.1240  0.1113
21357W        W38881  17.274   3.282  13.795 -0.0703 -0.0421 -0.1077
21358W        W38882   8.122  12.044  15.724  0.1192 -0.1159 -0.2422
21359W        W38883   8.554   9.527  13.711 -0.0091 -0.1456  0.3331
21360W        W38884   1.019   9.458   5.006  0.2256  0.1017  0.0953
21361W        W38885  13.047   0.592  11.121  0.1669  0.4328  0.0147
21362W        W38886  15.486   7.133   1.528  0.0910  0.0263  0.0270
21363W        W38887   5.023  14.942   5.414 -0.2309  0.0620  0.2675
21364W        W38888  11.547   0.232  10.635  0.1644 -0.2176 -0.3358
21365W        W38889   1.124  12.556   1.300  0.0903  0.3916  0.1928
21366W        W38890   2.123   3.843  15.132  0.1691  0.0744  0.2034
21367W        W38891  16.638   4.250  11.109 -0.2276  0.1278  0.3112
21368W        W38892   2.165   7.628  11.741  0.1871  0.1741 -0.0059
21369W        W38893   7.382   3.661  16.337 -0.2125  0.0320  0.0004
21370W        W38894   7.434   8.501   4.084 -0.0209  0.0007 -0.0751
21371W        W38895  12.424  10.053  14.755 -0.0640  0.0826 -0.0717
21372W        W38896  12.090   8.019  13.494 -0.1703 -0.2395  0.1490
21373W        W38897   0.506   6.593  11.666  0.3301  0.0316  0.1209
21374W        W38898   9.459  13.669  13.824 -0.4166  0.0385 -0.0638
21375W        W38899  16.725   9.005  11.479  0.0530 -0.1642 -0.0229
21376W        W38900   5.162   7.867  13.160  0.1720  0.0585 -0.3466
21377W        W38901   8.874   1.518  16.193 -0.3628  0.0790  0.4203
21378W        W38902  10.111  12.692   4.370  0.2146  0.0355 -0.2171
21379W        W38903  11.303  12.416  12.810 -0.0740 -0.0310 -0.0582
21380W        W38904   2.090   4.331  14.465 -0.1735  0.0190 -0.0809
21381W        W38905   5.443   3.468  15.122  0.0827  0.1872 -0.1186
21382W        W38906  11.287  15.625   2.162  0.1454  0.4340 -0.1486
21383W        W38907  15.231   0.495   2.016 -0.1944  0.1706 -0.4873
21384W        W38908   5.171  13.060   4.357 -0.0902  0.1843  0.0897
21385W        W38909  11.343  12.207   3.861  0.1265 -0.0039 -0.0484
21386W        W38910  11.194  14.120  14.255  0.2474 -0.0958 -0.1366
21387W        W38911  12.343  11.346  15.456  0.1113  0.1051 -0.0687
21388W        W38912  12.690  10.902  13.851  0.2576 -0.0242  0.2353
21389W        W38913   5.542  16.650   3.915  0.1555  0.2021 -0.1036
21390W        W38914   0.094   6.723  16.247  0.3481  0.2412 -0.0587
21391W        W38915   9.963  16.967   4.964 -0.1392 -0.0926 -0.0583
21392W        W38916   9.930   1.160  14.114 -0.3579  0.3339  0.0944
21393W        W38917  13.315  15.743   3.672  0.3053  0.2679 -0.0860
21394W        W38918  17.669  15.776  13.648  0.1303 -0.0321  0.2417
21395W        W38919   0.737   7.912   2.176  0.0698 -0.2412  0.0592
21396W        W38920   1.078   3.834   4.715 -0.3057  0.0009 -0.2203
21397W        W38921  13.666   7.269   0.213  0.1332 -0.1395 -0.1094
21398W        W38922   0.196   3.216  13.892 -0.1379  0.0558 -0.0144
21399W        W38923   6.107  11.223  12.346 -0.3659 -0.0306  0.0580
21400W        W38924   9.385  11.653  12.772 -0.0537  0.2575  0.1831
21401W        W38925   0.630   3.441   1.022  0.1152 -0.2344  0.1463
21402W        W38926   6.151   9.402  13.765  0.0163 -0.0146  0.4326
21403W        W38927   8.695  10.416  14.805 -0.1196  0.0564  0.3276
21404W        W38928   9.628  10.887  13.764  0.1669  0.0711  0.0278
21405W        W38929   2.944   6.735  14.295  0.0810 -0.1798 -0.1521
21406W        W38930   2.975   7.898  16.366 -0.0555  0.0074  0.0505
21407W        W38931  13.612   1.434  14.364 -0.0293 -0.0716  0.0710
21408W        W38932  17.781   9.598   3.801  0.2427 -0.1534  0.0146
21409W        W38933  16.877   5.888   4.061 -0.0088 -0.4660 -0.0892
21410W        W38934   9.535  15.838  15.849  0.1350  0.2589 -0.0589
21411W        W38935  11.478   6.573  14.821 -0.1104  0.3135  0.0465
21412W        W38936   9.614  11.454  11.880  0.0946  0.3198  0.0394
21413W        W38937   4.774  17.549   0.553  0.0025  0.3599  0.1789
21414W        W38938  15.910   0.440   0.142 -0.0170  0.0202 -0.2793
21415W        W38939   4.575   4.512  13.699 -0.2511  0.3085  0.1830
21416W        W38940   5.894   0.598  13.090 -0.1215  0.1593 -0.1236
21417W        W38941   3.744   2.782  14.935  0.0347 -0.2794  0.2405
21418W        W38942  15.570   9.387   3.732  0.0647 -0.0908 -0.0574
21419W        W38943   7.192   7.548  14.070 -0.2990  0.0063 -0.0716
21420W        W38944  15.053   2.020  12.680 -0.0497  0.1155  0.0904
21421W        W38945   0.075   6.946   3.039 -0.4175 -0.2227 -0.0148
21422W        W38946   4.769   6.390   2.118 -0.0489  0.0504 -0.2010
21423W        W38947  10.942  16.202   3.242 -0.2093 -0.1139  0.0299
21424W        W38948   9.325   2.990  14.977 -0.0450 -0.0570 -0.1064
21425W        W38949   1.912   0.365  13.640  0.4102 -0.0688  0.2288
21426W        W38950  12.167   9.119   3.020 -0.0782  0.2277 -0.0469
21427W        W38951   4.625  11.061   3.695 -0.0962  0.0014 -0.3233
21428W        W38952   3.519  12.686   2.147 -0.0219 -0.3346 -0.3035
21429W        W38953  12.359  10.564   1.951  0.0984 -0.2221 -0.0156
21430W        W38954  10.160  12.624  13.861  0.0868 -0.0899  0.0140
21431W        W38955  13.620   6.316   3.320  0.1768  0.5855 -0.0755
21432W        W38956   9.451   9.497   0.946  0.0489 -0.0328  0.3618
21433W        W38957   1.057  10.495  14.909 -0.0132  0.2494  0.1876
21434W        W38958  10.636   4.426   3.275  0.0957 -0.0168 -0.2943
21435W        W38959   6.179  10.208   3.991  0.0558 -0.2523  0.3045
21436W        W38960  10.816  15.739   5.169  0.0843  0.1273 -0.1427
21437W        W38961  13.421   8.373  15.997 -0.4552 -0.0283 -0.0119
21438W        W38962   9.595  10.882  15.546  0.0484  0.0757 -0.3449
21439W        W38963   5.616   1.932  14.547  0.3070  0.0631 -0.0736
21440W        W38964   3.624   3.575   1.968 -0.0502 -0.4156  0.3092
21441W        W38965  17.771  17.804   4.222  0.2097 -0.0559 -0.5618
21442W        W38966  13.156  14.328  15.618  0.0328 -0.0554 -0.0620
21443W        W38967  15.522   9.872   2.839 -0.4115 -0.0067 -0.0410
21444W        W38968   5.758  11.783   3.092 -0.1545 -0.2826 -0.0887
21445W        W38969  13.127   3.900  13.752  0.1039  0.5248 -0.0009
21446W        W38970   4.756   3.734  15.700  0.2008 -0.1495 -0.2706
21447W        W38971   1.701   8.888  16.068  0.1439  0.0636 -0.1137
21448W        W38972   1.228  16.471  12.538  0.2304  0.0057 -0.0627
21449W        W38973   1.794   1.301  11.780 -0.2023 -0.0825 -0.2958
21450W        W38974   3.275   1.848   2.609  0.0727 -0.2434  0.2701
21451W        W38975  16.461   8.372  11.424 -0.2171  0.0059 -0.0612
21452W        W38976   5.061   9.765  14.336 -0.1072  0.0567  0.2219
21453W        W38977  11.169   3.545  12.645  0.0084 -0.0571 -0.3457
21454W        W38978  15.263   3.459   1.329 -0.0208 -0.0746  0.1031
21455W        W38979   6.983  11.152   4.068 -0.0276  0.3358 -0.2265
21456W        W38980   5.964   4.394  13.729 -0.1160 -0.0686 -0.2862
21457W        W38981   9.141   7.458   2.180 -0.0601 -0.4294 -0.1368
21458W        W38982  10.737  10.189   4.501 -0.1509  0.2629 -0.1293
21459W        W38983   8.965  10.666  13.268  0.1290 -0.0115  0.2972
21460W        W38984  16.383  13.369  12.847 -0.0064 -0.1494 -0.1240
21461W        W38985   2.361   0.468  13.050 -0.3657 -0.0587  0.1384
21462W        W38986   5.888  13.651   2.172  0.0911  0.1206 -0.1546
21463W        W38987   5.812  16.821  15.795  0.1823 -0.1258  0.1698
21464W        W38988   2.222  17.653  14.926 -0.0722 -0.1354 -0.2493
21465W        W38989  11.300  11.414   4.330 -0.3986 -0.0938  0.0709
21466W        W38990   9.118  17.403   0.186  0.3555  0.0040  0.4814
21467W        W38991  14.935  13.857   0.025 -0.0241 -0.0623  0.0510
21468W        W38992   0.386  17.623   5.790  0.0452  0.0068 -0.0737
21469W        W38993   2.265   2.502  14.702  0.1994 -0.2127 -0.0945
21470W        W38994   1.397   8.412   4.190 -0.0737  0.0023 -0.3033
21471W        W38995   0.736   5.804  15.233  0.2053 -0.1124  0.0938
21472W        W38996  11.257  15.748   1.393  0.0255 -0.0852 -0.2589
21473W        W38997   5.510  15.660  15.895 -0.1423 -0.0773  0.0079
21474W        W38998   4.403   6.450   2.941 -0.0561 -0.0635  0.1363
21475W        W38999  11.972  14.362   5.237 -0.1588 -0.1885  0.0446
21476W        W39000  16.753  16.382  12.656  0.3040 -0.1697  0.2134
21477W        W39001   8.431  14.573  10.672 -0.2286  0.2120 -0.2439
21478W        W39002   7.695  15.107  11.306  0.0086 -0.2305  0.1339
21479W        W39003   1.978   6.039   4.002  0.0484  0.2902 -0.1957
21480W        W39004   7.200  17.192   0.077  0.2085  0.1007 -0.0614
21481W        W39005   2.058  11.005  15.926  0.3018 -0.0579  0.0229
21482W        W39006   7.878  15.801  13.438 -0.0064 -0.2971 -0.1639
21483W        W39007   0.082   7.150   4.129 -0.1590 -0.2371 -0.2253
21484W        W39008   7.900   4.596   0.397 -0.2922 -0.1124  0.0703
21485W        W39009   4.911   0.701  16.132  0.1283  0.2141  0.2717
21486W        W39010   7.772   3.591   1.425 -0.1214 -0.1673 -0.0227
21487W        W39011   6.605  17.388  11.166  0.0476  0.0699  0.4736
21488W        W39012   5.571  14.803  10.608 -0.1123  0.1674  0.0830
21489W        W39013   5.718  15.531   2.867  0.0770  0.0863 -0.0841
21490W        W39014   8.197  16.592   3.692 -0.3905 -0.0758 -0.3875
21491W        W39015   1.289   5.799  15.696  0.1851  0.1995 -0.2097
21492W        W39016   5.593   4.601  16.026 -0.0507 -0.2198  0.1237
21493W        W39017   5.022   7.306  13.099  0.2711  0.0311  0.0972
21494W        W39018  16.117  16.378   1.523  0.0962  0.1554  0.1544
21495W        W39019   5.502   0.959  13.069 -0.0681  0.1090 -0.0252
21496W        W39020   4.681  10.342   2.024 -0.1134  0.0607 -0.0322
21497W        W39021   7.914  12.024  11.371  0.3293 -0.0988 -0.1643
21498W        W39022   1.637   1.583   4.023  0.1734  0.0859  0.1661
21499W        W39023  15.828   5.849  15.495  0.0808 -0.3089 -0.1390
21500W        W39024   2.180  14.272   2.276 -0.0093  0.4165  0.0172
21501W        W39025  13.445  10.359  12.670  0.1090  0.0356  0.0631
21502W        W39026  12.395   5.788   4.368  0.1165 -0.0750 -0.0360
21503W        W39027  13.188   7.930  14.133  0.0831  0.0996 -0.1988
21504W        W39028   6.092  17.009   0.327  0.0294 -0.2930  0.2253
21505W        W39029   2.604   6.974   5.312 -0.4373 -0.2395 -0.2375
21506W        W39030   3.438   2.135  13.543 -0.0782  0.1512  0.2950
21507W        W39031   1.021  12.274  15.748 -0.1489 -0.2209  0.4012
21508W        W39032   0.868  10.831  14.368  0.0048 -0.0715 -0.1897
21509W        W39033   2.562   6.386  14.481 -0.2302 -0.1439  0.1084
21510W        W39034   4.549   5.056   0.179 -0.0952 -0.0106 -0.1558
21511W        W39035   9.512   0.223   2.370 -0.0584 -0.1384 -0.2705
21512W        W39036   9.423   3.737   4.575 -0.0463  0.1165 -0.3711
21513W        W39037  15.339   6.701  14.415 -0.0603  0.0764  0.1394
21514W        W39038   6.248  17.584   0.391 -0.1239  0.0745  0.0775
21515W        W39039   9.648   1.093   1.321  0.1547  0.1832 -0.2342
21516W        W39040   7.368   1.535  15.779  0.3002 -0.0175 -0.1798
21517W        W39041  12.034  15.145  13.733 -0.1520 -0.2611  0.2377
21518W        W39042  13.672  10.330   5.407  0.0083 -0.1215 -0.2826
21519W        W39043   7.748  15.994   5.043  0.3055  0.0059 -0.1425
21520W        W39044   9.164  11.845  10.914 -0.1798  0.0205  0.0346
21521W        W39045  11.356  16.286  16.013  0.0659 -0.1591  0.0346
21522W        W39046  16.818  12.522   1.711 -0.1670  0.2516  0.0961
21523W        W39047   7.808  13.676   0.656  0.0995 -0.1010  0.0944
21524W        W39048  10.841  10.115  14.155  0.2006  0.1819 -0.0489
21525W        W39049   5.340   1.685  11.387 -0.3159 -0.0709  0.0451
21526W        W39050  12.939  10.998   4.753  0.2456  0.1420 -0.0415
21527W        W39051  11.260  14.076  16.421 -0.3705  0.2380  0.2535
21528W        W39052   3.104   3.545  11.287 -0.2267 -0.0275 -0.0685
21529W        W39053   1.643   7.162   1.015 -0.1846  0.2636 -0.1493
21530W        W39054  15.108   5.987  14.092 -0.1894 -0.0245 -0.0196
21531W        W39055  13.953   5.154   2.547  0.1447 -0.3100  0.0152
21532W        W39056   4.814   3.676   2.435 -0.2157  0.3816 -0.0274
21533W        W39057   5.126   1.328  13.120 -0.3938  0.1053 -0.2462
21534W        W39058  15.505   0.269  15.416 -0.1698  0.1574  0.2326
21535W        W39059  11.513   9.715  11.918 -0.0174  0.0380  0.0555
21536W        W39060   2.610   7.990   2.834 -0.0907 -0.1076 -0.1630
21537W        W39061   9.854   3.597   0.093  0.2151  0.2282 -0.1680
21538W        W39062  13.037   4.956  11.605 -0.2242  0.3192  0.0344
21539W        W39063   9.388   3.036  12.996  0.0898  0.2858 -0.0587
21540W        W39064   1.184  12.741   3.542 -0.0270 -0.0981 -0.1468
21541W        W39065   6.873  17.281  14.145  0.0983 -0.2346 -0.0332
21542W        W39066   7.383   3.854  13.579 -0.0826 -0.1564 -0.0008
21543W        W39067   5.978  17.611   5.028  0.0033 -0.1602 -0.1587
21544W        W39068  14.660  13.092  15.828 -0.3106  0.0340 -0.0631
21545W        W39069  10.076   0.652  15.177  0.0127 -0.2206 -0.2114
21546W        W39070   5.994   3.282  11.164 -0.0862  0.2032  0.0903
21547W        W39071   8.666   6.892  14.386  0.2366  0.0487  0.1175
21548W        W39072  13.715   4.081  14.639  0.2125 -0.0784  0.1765
21549W        W39073   9.703  16.985   2.056  0.2032  0.1134  0.1230
21550W        W39074   8.631  10.815   0.699 -0.0263  0.0568 -0.1563
21551W        W39075  15.189  12.895  15.986 -0.0027 -0.1198  0.0647
21552W        W39076  12.801  13.654   2.429  0.1410 -0.1159  0.1831
21553W        W39077   7.811  13.152  12.912  0.1502 -0.0914 -0.0153
21554W        W39078  12.238   1.760   3.975 -0.0979  0.1185  0.1591
21555W        W39079  10.040  12.408  12.090 -0.1907 -0.2652  0.0585
21556W        W39080  14.866   5.750   5.258  0.1010  0.0122 -0.0459
21557W        W39081  11.988  12.921  13.147 -0.3161  0.1559 -0.2067
21558W        W39082  12.043   7.809   3.749 -0.1610  0.0281  0.0416
21559W        W39083  14.029   2.648  12.420  0.1041  0.3190 -0.0113
21560W        W39084   6.003   9.315  12.269  0.0108  0.0023  0.2658
21561W        W39085   8.053   6.174   4.376 -0.2987  0.0241 -0.0547
21562W        W39086   9.553  12.552   0.878  0.3257 -0.3373 -0.0386
21563W        W39087  14.229   2.866   4.924 -0.3036 -0.2898  0.1345
21564W        W39088  14.186   8.433  12.210 -0.2402  0.2003  0.0164
21565W        W39089  16.838  10.701  12.460 -0.0366 -0.1334  0.3250
21566W        W39090  17.066  12.085  12.147 -0.1872  0.0201 -0.0509
21567W        W39091   9.466   5.452   3.099  0.0956  0.1042 -0.0601
21568W        W39092   7.552  17.917  16.029 -0.0213 -0.1390  0.1652
21569W        W39093  14.487  17.574   5.867 -0.1822  0.0851 -0.0918
21570W        W39094   2.219  14.946  14.740 -0.0614 -0.0361  0.1606
21571W        W39095  16.105  15.028   2.673 -0.0464 -0.0302 -0.1348
21572W        W39096  12.363   4.952  12.704  0.1833 -0.2358  0.0175
21573W        W39097   1.575   4.917  12.950  0.3446  0.0817  0.2530
21574W        W39098  15.710   0.256  12.302  0.1121  0.0486 -0.2027
21575W        W39099  10.755   4.926  15.761 -0.0573  0.1280 -0.2002
21576W        W39100  10.731  14.972   4.934  0.0527  0.1622  0.1672
21577W        W39101  11.509  15.393  15.722  0.2001 -0.1265  0.1780
21578W        W39102  16.044   0.478  16.104  0.4604  0.0298  0.2166
21579W        W39103  10.730   5.855   2.387 -0.6378 -0.1873  0.1206
21580W        W39104  17.775   9.796  12.689 -0.2763  0.0499 -0.0819
21581W        W39105   3.883   7.649   1.941 -0.0724 -0.0225 -0.2162
21582W        W39106   0.101  13.850  16.001  0.1763 -0.1079  0.1619
21583W        W39107   2.215  17.914   0.044  0.1325  0.0541 -0.0133
21584W        W39108   4.726   4.278   4.703 -0.3036  0.0494 -0.0620
21585W        W39109  10.061   2.266   4.645  0.1506  0.2722  0.1601
21586W        W39110   4.938   3.365  16.419  0.1028  0.3366  0.0373
21587W        W39111   4.602  10.205   1.547 -0.0840  0.1018  0.0758
21588W        W39112  11.606  16.303  14.223  0.0113  0.3197 -0.0316
21589W        W39113  14.990  13.782   5.299  0.3616  0.0050 -0.2249
21590W        W39114  17.794   9.214  15.332  0.1637  0.3775 -0.1478
21591W        W39115   7.743  15.470   3.950 -0.0464 -0.0773  0.3182
21592W        W39116   5.637   8.011  14.872 -0.3021 -0.0189  0.1341
21593W        W39117   1.421  16.848   4.384  0.1931  0.0940  0.2716
21594W        W39118   6.633   4.978  16.348 -0.3935  0.2427  0.0576
21595W        W39119   0.103  15.718  12.249 -0.0337  0.2883  0.2445
21596W        W39120  13.881  14.969  13.879  0.1997 -0.2989  0.2596
21597W        W39121   5.690  15.033   2.501 -0.0668  0.0749 -0.0611
21598W        W39122   8.780   3.376   2.106  0.1132 -0.3803 -0.0503
21599W        W39123  11.258   8.791  14.256  0.0403  0.0437 -0.0322
21600W        W39124  11.300   9.296  14.405  0.1706 -0.0030  0.1015
21601W        W39125   9.244   4.283   5.387 -0.2416  0.1855  0.0827
21602W        W39126  16.985  15.897   4.405  0.0149 -0.1872 -0.2072
21603W        W39127  14.216   0.229   1.795  0.1300 -0.0446 -0.2389
21604W        W39128   1.049  14.150   3.332  0.0450  0.2663 -0.0325
21605W        W39129   4.885  15.709   4.153 -0.0713  0.1508 -0.1543
21606W        W39130  17.819  14.622   4.063 -0.1543 -0.1493 -0.1714
21607W        W39131   1.759   2.014   2.582  0.1520  0.1750  0.2142
21608W        W39132  14.907   5.756  12.395 -0.0874  0.0452 -0.0954
21609W        W39133   0.256  11.285  12.117 -0.2791  0.1073 -0.2319
21610W        W39134  10.767   4.637   1.957  0.0587  0.0701 -0.2170
21611W        W39135  15.151  12.404  14.299  0.1194  0.0699  0.5599
21612W        W39136   9.242  12.292   5.445  0.2059 -0.2144 -0.0579
21613W        W39137  16.092   5.498  14.586  0.0967 -0.1143  0.1042
21614W        W39138  13.532   9.592   1.962 -0.1433  0.0899  0.0716
21615W        W39139  15.459  13.549  10.562  0.1084 -0.1737 -0.0014
21616W        W39140  16.619  14.799  11.848 -0.2783  0.1755 -0.0788
21617W        W39141   6.672  14.897  12.374 -0.3134  0.1440  0.1281
21618W        W39142   2.152   6.633  14.296  0.0147  0.1595 -0.1409
21619W        W39143   7.634  12.651  12.604 -0.0803 -0.1649 -0.0624
21620W        W39144   8.393   5.038   2.910 -0.2825  0.0413  0.3438
21621W        W39145   8.996   5.929   4.736  0.1235 -0.1031 -0.1714
21622W        W39146   2.020   6.180  15.725  0.3352 -0.0756 -0.1985
21623W        W39147  12.596  16.485   1.623  0.0982 -0.1975 -0.0447
21624W        W39148  13.947   3.547   0.017  0.1330 -0.0288  0.3733
21625W        W39149   4.474  17.195   1.287  0.1479  0.0791  0.1238
21626W        W39150  14.409   5.089   3.675  0.0149 -0.0192 -0.0680
21627W        W39151  12.592  17.643   3.397 -0.0549 -0.0103  0.0839
21628W        W39152  11.261  17.779  13.133  0.0408  0.2048  0.1464
21629W        W39153  13.481   1.821   2.354 -0.2490 -0.1858  0.0376
21630W        W39154   8.417   6.015  11.926 -0.1041  0.0898  0.1541
21631W        W39155   1.041  16.733   5.211 -0.0236  0.4961 -0.2253
21632W        W39156  10.519  12.272   3.772  0.0821 -0.0617  0.1139
21633W        W39157  17.296   0.007  12.959  0.1344  0.6894 -0.1356
21634W        W39158  16.778  11.056   3.707 -0.2568 -0.0758  0.0734
21635W        W39159  11.242   0.670   1.088  0.0311 -0.0827 -0.0607
21636W        W39160  10.247   8.864   5.447  0.0255 -0.1672 -0.0269
21637W        W39161  11.622  12.368  15.077  0.1700 -0.1111 -0.0118
21638W        W39162   7.163   5.917  14.359 -0.0001 -0.0071 -0.0436
21639W        W39163  12.502   4.285   3.178 -0.2239  0.0144  0.0051
21640W        W39164   7.616  10.491   1.604 -0.0442 -0.3364  0.0986
21641W        W39165  16.469   3.270  12.216 -0.2808  0.2057  0.0089
21642W        W39166  11.024  17.332  15.815 -0.3681  0.1084  0.0435
21643W        W39167  11.491  17.021  12.768 -0.0797  0.0606  0.0940
21644W        W39168   7.498  17.560   3.432 -0.0586 -0.0164  0.1017
21645W        W39169   2.381  17.239   0.946  0.2891  0.1090  0.2826
21646W        W39170   0.735  11.044  16.155  0.2515  0.1090  0.1351
21647W        W39171  14.654  10.064   3.218  0.1796  0.0899 -0.0510
21648W        W39172   0.120  15.402  11.789 -0.0925  0.0654  0.1258
21649W        W39173  12.370   1.131  16.219 -0.0159 -0.0642 -0.1383
21650W        W39174   5.228   8.019   0.995  0.1490 -0.1742  0.3236
21651W        W39175  11.367  10.242   3.511 -0.0851 -0.0223  0.1730
21652W        W39176   7.633   3.164  16.193  0.1914  0.1357  0.7514
21653W        W39177  15.715   3.601   0.089  0.1192 -0.0076 -0.0980
21654W        W39178   3.533   4.726  15.784  0.3256  0.1098  0.0629
21655W        W39179  17.200  12.749   3.714  0.2003 -0.1963  0.2394
21656W        W39180   0.276   2.318   0.600  0.1176  0.0429 -0.1667
21657W        W39181   0.690  13.826  14.933 -0.2590  0.0885  0.1746
21658W        W39182   1.487  17.352   2.082 -0.1544  0.1008  0.1228
21659W        W39183   0.117  17.608   1.223  0.0318 -0.1330 -0.3542
21660W        W39184   9.806   6.633   4.729  0.0616 -0.0001  0.3047
21661W        W39185   9.611  15.781   1.206 -0.2033  0.3316 -0.1460
21662W        W39186  16.312  13.959   3.798 -0.2016  0.2493 -0.0589
21663W        W39187  14.408  15.328  14.649 -0.3233 -0.4633 -0.0377
21664W        W39188   9.943   8.764  14.443  0.1918 -0.1722 -0.0391
21665W        W39189   1.598  12.139  14.113 -0.0616 -0.2722  0.2123
21666W        W39190  14.730   9.215   2.724  0.1315  0.0295 -0.0270
21667W        W39191  11.331  11.869   0.783 -0.0279  0.0594 -0.0239
21668W        W39192  15.532   6.752  13.646  0.0518  0.1034  0.2561
21669W        W39193   0.385  15.408   5.734 -0.3520 -0.2677 -0.0075
21670W        W39194   1.065   1.094   4.745  0.0191  0.3924  0.0417
21671W        W39195   0.585  17.689   5.309 -0.3245  0.0247 -0.1903
21672W        W39196  15.736  15.671  13.829  0.3216 -0.4012  0.0203
21673W        W39197   8.131  15.937  12.008  0.0860  0.2974  0.0490
21674W        W39198  16.778   8.366  14.221 -0.1172 -0.1103 -0.3134
21675W        W39199   4.393   5.411   5.375 -0.2232 -0.0081 -0.1176
21676W        W39200  15.334   9.033   0.898 -0.1139 -0.5778 -0.1679
21677W        W39201   2.463  15.022   1.796  0.2756  0.1020  0.2237
21678W        W39202   3.832   0.298   3.629 -0.0848  0.0329 -0.1105
21679W        W39203   5.906   8.861  13.587 -0.0471 -0.0530  0.2921
21680W        W39204   0.786   5.126  14.521 -0.2403  0.0713 -0.0303
21681W        W39205   2.047   7.402  15.901  0.2082  0.0668  0.0070
21682W        W39206   1.000   9.857  16.041  0.0846 -0.2348  0.1225
21683W        W39207   5.577  12.087   3.652  0.0966 -0.2374 -0.0893
21684W        W39208  17.041  13.016   0.634  0.0701  0.1429  0.0155
21685W        W39209  12.523  17.038   2.348  0.1732  0.0800 -0.0574
21686W        W39210  14.512  16.810  11.501  0.1672 -0.1633  0.2084
21687W        W39211  17.195  14.011   0.496 -0.0708 -0.0528 -0.1435
21688W        W39212   4.037  10.937   0.453  0.1428  0.1104 -0.2504
21689W        W39213   2.549  17.157  15.203  0.1244  0.1080 -0.2596
21690W        W39214   3.375   7.542  13.136 -0.0417 -0.0725  0.0640
21691W        W39215  13.340  16.032  16.113 -0.2927 -0.0393  0.2654
21692W        W39216   5.271  16.597  12.159  0.2238  0.0845 -0.3587
21693W        W39217  13.350   7.533  10.578  0.1467  0.0713  0.0124
21694W        W39218  11.018  12.244   1.363  0.0992 -0.2140  0.1252
21695W        W39219  12.364  17.007   0.296  0.1136 -0.0325 -0.1717
21696W        W39220  15.469   3.036  11.782  0.0336  0.0085  0.0220
21697W        W39221   6.205  17.675  11.970 -0.0383 -0.0058  0.0522
21698W        W39222  16.496   8.987   0.849  0.1923  0.0314 -0.0265
21699W        W39223   2.745   4.517  14.220  0.1049  0.2708  0.1330
21700W        W39224   4.023  16.580  13.569 -0.2433  0.1458  0.2028
21701W        W39225  14.422  14.398  15.118  0.0584  0.0897  0.1642
21702W        W39226  11.220  15.082   4.834 -0.0141 -0.0002  0.1192
21703W        W39227   3.936   4.560   3.080  0.1665  0.0693  0.1068
21704W        W39228   5.309   8.104  11.976 -0.1769  0.0590  0.0071
21705W        W39229   9.656   9.879   0.596  0.1125  0.2201 -0.0829
21706W        W39230  14.338   5.047  15.987  0.0173 -0.0721  0.0426
21707W        W39231   9.440  15.179   2.776 -0.0841  0.0387  0.3068
21708W        W39232  14.263   7.524   3.762  0.1037  0.1804  0.0394
21709W        W39233  12.237  16.196  12.117  0.2316 -0.0514 -0.1849
21710W        W39234   2.025  15.681  11.905 -0.0182  0.0746 -0.0610
21711W        W39235  16.532   1.351   5.713 -0.2935  0.0292  0.1265
21712W        W39236   5.539  15.245  11.188  0.0736  0.1001 -0.0136
21713W        W39237  17.455  13.320  14.590 -0.0922  0.1813 -0.1689
21714W        W39238   5.503  12.377  15.637  0.3667 -0.1504 -0.0742
21715W        W39239   2.139   6.916   5.157  0.1566 -0.1070  0.1992
21716W        W39240  15.890   1.353   2.068 -0.0616  0.3171  0.2018
21717W        W39241   9.761  14.195   0.626 -0.0979  0.2363  0.0392
21718W        W39242  10.931  16.041   1.680  0.2587  0.1000 -0.3994
21719W        W39243  13.527   5.138  11.701  0.0982 -0.2025 -0.2693
21720W        W39244   0.355   3.493  15.269  0.0294 -0.1887 -0.2330
21721W        W39245   4.236   7.637   4.674  0.0854  0.0706 -0.1010
21722W        W39246   6.578   3.736  16.364  0.0144  0.5099  0.2284
21723W        W39247   7.547  14.058   4.373 -0.0526  0.0897  0.0293
21724W        W39248  12.394   8.609   1.155  0.1927 -0.2538  0.2073
21725W        W39249   0.828   9.092  13.205  0.0753  0.2147  0.1994
21726W        W39250   5.883   9.882   4.578 -0.2675 -0.0994  0.0728
21727W        W39251   6.331  17.268  15.375  0.1356 -0.1093  0.0730
21728W        W39252  15.848   3.183   3.944  0.1123 -0.1130 -0.1683
21729W        W39253   5.326   3.561  14.289 -0.1223 -0.1380  0.1498
21730W        W39254  15.929   7.815  12.636  0.0016 -0.2641  0.0390
21731W        W39255   2.660  17.528  12.305 -0.2141  0.1836 -0.4716
21732W        W39256   2.679   9.179  13.184 -0.0618  0.0430 -0.0549
21733W        W39257  12.400  15.805   0.576  0.0499  0.3450  0.0545
21734W        W39258  12.359  14.005   3.265  0.0113 -0.1081  0.0663
21735W        W39259   2.158  10.637  16.316  0.0684 -0.2426 -0.0367
21736W        W39260   9.798   6.992  12.404 -0.1857  0.3730  0.0455
21737W        W39261   8.441   1.950   3.447 -0.0338 -0.0485  0.1663
21738W        W39262  14.818   7.764   1.576 -0.1051  0.1785 -0.0975
21739W        W39263  12.236   9.936   2.443  0.0901 -0.0355  0.0693
21740W        W39264   1.604  14.280  15.808  0.1380 -0.1733 -0.1501
21741W        W39265   4.846  17.750  15.602  0.0370 -0.1553  0.2430
21742W        W39266  13.429   6.715   1.325  0.1331 -0.1543 -0.0645
21743W        W39267   4.456   4.064   3.771  0.0555 -0.1503 -0.3279
21744W        W39268   9.509  17.801   4.548 -0.2007 -0.0837  0.1403
21745W        W39269  17.497  17.756  14.547 -0.0022  0.0836 -0.1552
21746W        W39270   8.050   2.797  14.050 -0.1710 -0.2243  0.1025
21747W        W39271  13.050  11.055  15.401 -0.1287  0.1022 -0.2225
21748W        W39272   7.097   5.162  12.762 -0.2423  0.0758  0.2627
21749W        W39273   9.084   7.127  14.985 -0.1637 -0.2735  0.3384
21750W        W39274   4.044   2.164   2.804  0.0405 -0.2578 -0.0365
21751W        W39275   3.138   0.103  15.723 -0.0882  0.3108 -0.0684
21752W        W39276   8.074  15.456  11.202  0.0382 -0.0537 -0.3307
21753W        W39277   2.727  12.501   5.439 -0.0976 -0.0100 -0.1259
21754W        W39278  14.743  13.434   0.170  0.1009 -0.0324  0.4922
21755W        W39279   0.902  16.865   4.136  0.1320  0.1396  0.1146
21756W        W39280   7.890   2.663   1.939 -0.3458  0.2224  0.0180
21757W        W39281   0.755  17.628   2.236  0.2097  0.0867 -0.0317
21758W        W39282  16.949   8.950   2.864 -0.1664 -0.1488  0.5335
21759W        W39283   7.028  17.502   2.750  0.0364  0.0923 -0.1299
21760W        W39284   7.993   2.259   3.730 -0.5192 -0.0144 -0.2712
21761W        W39285  12.263   6.977  15.583  0.1793  0.0036  0.1063
21762W        W39286   2.572   8.909  13.949 -0.0886 -0.0968  0.1601
21763W        W39287  17.362   2.845   0.216 -0.0228  0.3255 -0.3211
21764W        W39288   0.444   8.387   4.061 -0.2392 -0.1619 -0.5501
21765W        W39289  12.849   6.601  15.409  0.0463  0.0156 -0.3668
21766W        W39290   6.850   1.572   2.821  0.3677  0.2332  0.1062
21767W        W39291  13.534   4.500  14.424 -0.0716  0.0482 -0.2460
21768W        W39292   3.687  16.519   2.673  0.1567 -0.0408  0.0917
21769W        W39293   8.719  11.565  14.948  0.0631  0.0667 -0.0220
21770W        W39294  11.482   5.796   3.059 -0.2002  0.2133 -0.0957
21771W        W39295  14.366   3.371   4.821  0.3297  0.2379 -0.2525
21772W        W39296   1.484   4.735   2.288  0.0003  0.0284 -0.1129
21773W        W39297   3.440   0.777   1.667  0.1144  0.1647  0.1660
21774W        W39298   3.111   7.189   0.849 -0.0014  0.3701  0.0685
21775W        W39299   7.154   2.046  13.271  0.0254 -0.1086  0.0491
21776W        W39300   7.002   8.393  14.079  0.0590 -0.2431  0.1783
21777W        W39301   7.142  10.768   1.280  0.0533 -0.2339  0.0351
21778W        W39302  10.586   5.915   3.539  0.0665 -0.1718 -0.4960
21779W        W39303   2.734  15.202   3.943 -0.0236 -0.0245  0.1678
21780W        W39304  11.850   1.539  16.047 -0.1372  0.3232 -0.0751
21781W        W39305   4.514   9.347   3.940 -0.2994  0.1688 -0.0450
21782W        W39306   3.891  15.521  15.975 -0.0335  0.0309 -0.0487
21783W        W39307   5.340   9.228  11.892  0.2913  0.1210  0.0592
21784W        W39308   1.154  15.083   2.880 -0.0309 -0.1626 -0.0188
21785W        W39309   1.629  10.828   0.244 -0.0761 -0.3865 -0.0873
21786W        W39310   6.703  11.454   4.875  0.3650 -0.0968  0.0545
21787W        W39311  11.681   8.174   2.607  0.0026  0.1374 -0.0358
21788W        W39312   0.313   8.738  15.366 -0.3795  0.0132 -0.0399
21789W        W39313   0.218  11.865   2.972  0.1187 -0.3776  0.1228
21790W        W39314   8.883  11.597   2.656  0.1775  0.0126  0.0840
21791W        W39315  11.488   2.741  10.642  0.2390 -0.2904 -0.3518
21792W        W39316  16.082   3.602  12.162  0.0073  0.2496  0.0448
21793W        W39317   5.995   5.504   4.143 -0.2131  0.0594  0.2323
21794W        W39318  13.226   7.814   3.593 -0.3595 -0.1283  0.4195
21795W        W39319   3.521  11.635  13.383 -0.0708  0.0660 -0.1646
21796W        W39320  16.896   1.407   3.713  0.1816  0.0484 -0.0073
21797W        W39321  13.804   6.521  12.950 -0.0638  0.0956 -0.0802
21798W        W39322  14.555   6.709   4.883 -0.0656 -0.0531 -0.0234
21799W        W39323   0.643   5.675   1.475  0.1055  0.1125  0.0449
21800W        W39324  10.713  17.141  13.450  0.1510 -0.1757  0.1666
21801W        W39325   2.322   5.682  15.511 -0.0159 -0.0999 -0.0360
21802W        W39326   7.032   8.650  11.781  0.0279 -0.0600 -0.1426
21803W        W39327  12.142   8.973   3.525 -0.0955 -0.0958 -0.2217
21804W        W39328   1.123  15.774   0.598 -0.4815  0.0205  0.2009
21805W        W39329  11.536   4.226   0.880 -0.2879 -0.2381  0.0593
21806W        W39330   6.282  17.756   2.579  0.0804  0.0389 -0.3465
21807W        W39331   7.623   8.551   3.636 -0.3452  0.0111  0.0159
21808W        W39332  14.935   6.557  11.739  0.2658  0.1064  0.1697
21809W        W39333   4.479   8.891   2.645 -0.3604  0.1567  0.1699
21810W        W39334  16.946  17.428   2.874  0.1362 -0.6267 -0.1502
21811W        W39335  12.705  11.142  11.908  0.1436 -0.0781  0.0438
21812W        W39336  16.741   8.327   1.177 -0.3407 -0.3205 -0.4834
21813W        W39337  12.893  17.607  12.237 -0.0090  0.0624 -0.1469
21814W        W39338  12.488   4.090  13.211 -0.3918 -0.1353 -0.1410
21815W        W39339   4.348   1.815   2.483 -0.1451  0.1012 -0.0965
21816W        W39340  11.873  17.167  11.487  0.2446  0.0063 -0.1975
21817W        W39341   0.382  13.164   1.516  0.0105  0.0561  0.0715
21818W        W39342  14.660  13.659  15.560  0.0158 -0.1149 -0.3788
21819W        W39343  11.260   0.545  15.349 -0.1336  0.0961  0.1335
21820W        W39344  12.837  14.726  16.123  0.0303  0.1356 -0.3537
21821W        W39345  16.483   8.052  16.437 -0.0290  0.3645 -0.0687
21822W        W39346   0.381  16.484  12.159  0.1210  0.1981 -0.0726
21823W        W39347   7.548   0.071   2.097  0.0987 -0.1598  0.1900
21824W        W39348   1.913  11.010  14.824 -0.0780 -0.3920  0.2125
21825W        W39349   0.312   5.568  15.279  0.3205  0.0232  0.0722
21826W        W39350   0.590   9.644   1.888 -0.0493  0.1310  0.1165
21827W        W39351  11.748   3.872  11.273  0.0389  0.1700  0.1158
21828W        W39352   2.243   5.014  15.159 -0.2535  0.3513 -0.0323
21829W        W39353  10.155  11.171   0.503  0.2091 -0.0662  0.0416
21830W        W39354  14.355  17.181   0.594 -0.0426 -0.0579  0.3059
21831W        W39355  17.943   3.600  13.487 -0.2908  0.1087 -0.3109
21832W        W39356   3.631  16.379   4.393 -0.2557  0.1423  0.0746
21833W        W39357  10.088   9.974  11.128  0.0511  0.3268 -0.0043
21834W        W39358   8.569  11.368   1.345 -0.3110 -0.3801  0.5302
21835W        W39359   7.653  13.762   3.991  0.0859 -0.0548 -0.0760
21836W        W39360   6.831   7.397  15.579  0.1595  0.3116  0.2753
21837W        W39361  13.998  13.585   2.990  0.0041 -0.0223  0.0407
21838W        W39362   8.648  10.315  15.762  0.0605 -0.1621  0.1649
21839W        W39363  15.376   4.201  13.047 -0.1306  0.5370 -0.0334
21840W        W39364   4.164  10.491   4.339  0.0092  0.0426 -0.1676
21841W        W39365   9.427   9.183  12.681  0.3701 -0.1144  0.2545
21842W        W39366  11.436   7.845   2.934 -0.1086 -0.0426 -0.0865
21843W        W39367  17.543   1.579   2.365  0.2935  0.4884  0.4464
21844W        W39368   9.361  11.417   2.425  0.1657 -0.1030  0.0187
21845W        W39369  15.402   4.087   0.157 -0.2535 -0.0874 -0.1888
21846W        W39370   2.078   7.880  15.729 -0.2024  0.0701 -0.0055
21847W        W39371  15.955   8.662   3.378  0.1932 -0.0239  0.2132
21848W        W39372  14.186  12.998  13.461 -0.1545 -0.2346 -0.2700
21849W        W39373  15.544   5.029   5.438  0.1127 -0.2242 -0.1190
21850W        W39374  17.574   7.227   3.812 -0.3197 -0.3660 -0.0850
21851W        W39375   7.265   5.445  14.583 -0.0127 -0.2749  0.0812
21852W        W39376   7.012  13.279  13.860 -0.1673 -0.1241  0.2256
21853W        W39377   3.313  13.704   4.604  0.2178  0.0179 -0.1943
21854W        W39378   7.112   7.884   0.291  0.1521 -0.0117  0.0862
21855W        W39379   0.005  13.832  13.306 -0.0326  0.0443 -0.2387
21856W        W39380   0.634   7.323  11.558 -0.0802 -0.0247 -0.0666
21857W        W39381  16.404   8.111   2.630 -0.3156  0.0098 -0.1387
21858W        W39382   8.643  10.000  13.345  0.0189  0.0834 -0.0271
21859W        W39383  16.739   6.083  12.702  0.0935 -0.1137 -0.1506
21860W        W39384   0.922   6.989   4.459  0.1563  0.1702 -0.3476
21861W        W39385   5.360   6.086   4.178 -0.2801 -0.0362 -0.1044
21862W        W39386   1.379   6.951   0.541  0.1016  0.0371  0.1667
21863W        W39387  10.674   1.253   3.685 -0.1503 -0.2187 -0.0416
21864W        W39388   6.428  11.908   1.810 -0.0427 -0.4541 -0.0340
21865W        W39389  10.172   6.594   4.242  0.2352 -0.3684 -0.4143
21866W        W39390  11.287  10.526   0.493  0.0857  0.0770 -0.0777
21867W        W39391   5.614   4.146   4.335 -0.2149 -0.2327 -0.2947
21868W        W39392  17.737   1.532   5.244  0.0219 -0.3158  0.0147
21869W        W39393  13.586  11.414   2.170  0.2468 -0.1112 -0.0350
21870W        W39394   0.285  13.947   1.301 -0.0002 -0.0482 -0.0439
21871W        W39395  11.109   1.425   2.839 -0.1064  0.0305 -0.2476
21872W        W39396   7.066   6.175  11.588  0.0680  0.3046  0.6005
21873W        W39397   5.141   9.399  12.500  0.0966 -0.0702  0.3103
21874W        W39398  11.187   1.457  15.775  0.1132 -0.0488  0.0048
21875W        W39399   8.682  14.205   0.898 -0.2185 -0.1416 -0.0790
21876W        W39400   1.249   7.331  16.362  0.1651  0.3465 -0.0508
21877W        W39401  14.570   5.799  16.344 -0.0711 -0.2484  0.1060
21878W        W39402  12.301   7.059   1.451  0.1278  0.2633 -0.0488
21879W        W39403   3.640  12.959   3.610 -0.0088  0.4467 -0.0528
21880W        W39404  13.078   6.420  14.856 -0.1146  0.2519 -0.0313
21881W        W39405   2.735   9.866  16.184 -0.1072  0.1870  0.0305
21882W        W39406   4.742   1.209  15.451 -0.4657  0.0785  0.2465
21883W        W39407   5.908  17.296  13.487  0.2464  0.2967 -0.2849
21884W        W39408   2.198   6.096  14.293 -0.1656 -0.0650  0.0251
21885W        W39409   8.061  14.073   0.439  0.3081  0.0931  0.0322
21886W        W39410  11.434   6.501  15.809 -0.0005  0.1037  0.1015
21887W        W39411  17.363   9.653  12.361 -0.3363 -0.2607 -0.0688
21888W        W39412  10.633  17.183  15.505 -0.0475  0.1274  0.4230
21889W        W39413  16.861   8.213  13.668  0.1501  0.0991  0.2375
21890W        W39414   8.340  16.422  11.368 -0.2390  0.3123  0.2049
21891W        W39415  17.379   7.717   3.055 -0.1025  0.2003 -0.3417
21892W        W39416  14.264  10.028  12.374 -0.0884  0.2639 -0.1608
21893W        W39417   2.709  16.534   4.073  0.1291  0.4714 -0.0695
21894W        W39418   2.476  12.279   0.965  0.2946  0.0852  0.0221
21895W        W39419   5.260  12.796  15.561 -0.1546 -0.0605 -0.1005
21896W        W39420   5.523  16.602  15.319 -0.1990 -0.1543  0.2044
21897W        W39421   1.662   1.006   1.103  0.2159 -0.0588  0.2044
21898W        W39422   3.610  13.531  13.261  0.1771 -0.1977  0.0043
21899W        W39423   3.958   4.624   3.625 -0.3038  0.2260  0.0806
21900W        W39424   3.449  10.899  12.144 -0.0360  0.0879 -0.0920
21901W        W39425  14.433   0.408  15.843  0.1016 -0.1333 -0.2356
21902W        W39426  12.997  16.224   2.477  0.2079  0.0064 -0.0624
21903W        W39427  17.595  11.483   3.975  0.0910 -0.0014  0.2524
21904W        W39428  17.459   0.789   4.095  0.0220 -0.1780  0.3091
21905W        W39429  11.251   1.001   3.999 -0.0054  0.0197 -0.0759
21906W        W39430   7.710  12.137  12.624 -0.0472  0.1703 -0.2014
21907W        W39431   2.601   7.959   1.680 -0.1672 -0.0669 -0.3680
21908W        W39432   7.285   9.083  15.747 -0.0709  0.0730 -0.0285
21909W        W39433  11.729  11.994  13.227  0.2296 -0.4821  0.1275
21910W        W39434   9.768  13.370   4.800  0.1599 -0.0669 -0.2230
21911W        W39435  14.152  14.001  14.141  0.1293  0.0173  0.2401
21912W        W39436  11.985  10.266  12.152  0.0163 -0.3512  0.0687
21913W        W39437   4.519  17.583   2.380  0.0665 -0.1160  0.0839
21914W        W39438  10.384   5.299   4.162  0.0504 -0.0539  0.2584
21915W        W39439  16.518  10.751  13.304  0.1537  0.1665 -0.1186
21916W        W39440  14.848  12.648   2.050  0.1680 -0.0531 -0.1159
21917W        W39441  17.560  10.403  11.477 -0.2537 -0.0711  0.0260
21918W        W39442   4.335  13.105   3.080 -0.1725  0.1004  0.0227
21919W        W39443  11.067  12.006   2.093  0.2857  0.0812  0.1505
21920W        W39444  13.587  15.859   2.422 -0.0096  0.1105 -0.1983
21921W        W39445  12.144   6.373  14.165  0.0145 -0.0333  0.0544
21922W        W39446  13.677   2.842   3.936  0.2588 -0.3007 -0.1827
21923W        W39447  11.243   8.517   1.927 -0.1501  0.2514 -0.0813
21924W        W39448   3.452  17.261   3.767  0.2109 -0.4496 -0.4072
21925W        W39449  11.818   6.097   4.734 -0.0033  0.1629 -0.1425
21926W        W39450   4.892  17.307  13.681 -0.1111 -0.3109  0.0346
21927W        W39451   6.591   7.807   3.395  0.0134 -0.0435 -0.0018
21928W        W39452  11.776  17.240   2.516  0.0301  0.3343  0.3477
21929W        W39453  15.066   5.421   1.761 -0.0443 -0.2414  0.4280
21930W        W39454  17.698   6.781   1.407  0.2651 -0.1476 -0.1211
21931W        W39455  16.877   4.137   4.462 -0.0280  0.1905 -0.1451
21932W        W39456  12.318   7.573   1.230 -0.3880  0.1063 -0.1294
21933W        W39457   7.625   6.583  15.017 -0.0454 -0.1749 -0.0355
21934W        W39458   3.407  15.951   4.230  0.0391 -0.0283 -0.0667
21935W        W39459  11.415   0.497  10.056 -0.0585 -0.0041 -0.2550
21936W        W39460  12.377   2.407  14.374  0.1593 -0.2889 -0.2290
21937W        W39461  13.567   1.633  12.009 -0.3122  0.2260 -0.1621
21938W        W39462   0.194   7.976   2.065  0.1223 -0.4048 -0.0450
21939W        W39463   0.704  10.565  13.211 -0.2167  0.1920  0.0695
21940W        W39464   9.321   2.101  15.131  0.0588 -0.0093  0.0019
21941W        W39465  13.002  14.708   0.217  0.1369 -0.1556  0.0094
21942W        W39466   8.732   9.388  14.252 -0.1060 -0.1508  0.2657
21943W        W39467   3.594  11.097   4.129  0.0316 -0.1527 -0.0271
21944W        W39468  16.309   5.695   0.365 -0.0366  0.3402 -0.1372
21945W        W39469  17.258   6.724   3.636  0.0132 -0.0244  0.0876
21946W        W39470  12.438  13.343   2.021 -0.2959 -0.0034  0.2275
21947W        W39471  10.104   0.984   1.306  0.1174 -0.1754 -0.0245
21948W        W39472  11.350   9.710   0.506 -0.0791  0.0462  0.0281
21949W        W39473   9.382   9.316  14.919  0.1405  0.0519  0.0170
21950W        W39474   9.805  14.309  14.124  0.0644  0.1159  0.2111
21951W        W39475   4.283  11.550  12.654  0.3396  0.1521 -0.1079
21952W        W39476   5.296   9.320   4.666  0.0165  0.0396  0.0162
21953W        W39477   7.036   6.106  14.776  0.2560  0.0989  0.0095
21954W        W39478  14.222   3.440   3.366 -0.3533 -0.6298 -0.2045
21955W        W39479   8.592  14.408  16.436 -0.0089 -0.2280 -0.1039
21956W        W39480   4.931   7.509  10.975  0.1797  0.2106 -0.0260
21957W        W39481  15.550   1.407  15.739 -0.0545  0.2823 -0.0974
21958W        W39482   4.520  16.507   2.314  0.0793  0.0200 -0.2433
21959W        W39483   8.853   0.584  11.714  0.2535  0.0368  0.1011
21960W        W39484  13.951   2.858  11.717  0.2181  0.1276  0.0082
21961W        W39485  11.565  10.251   1.730  0.0107 -0.0785 -0.4402
21962W        W39486   6.622  16.875  13.159  0.2312  0.0071 -0.1123
21963W        W39487   9.206  16.426  15.424 -0.0357 -0.0500 -0.2506
21964W        W39488   3.560  15.374   0.923 -0.0428  0.2637  0.0550
21965W        W39489  12.944   1.837  14.442  0.0426  0.1779 -0.0197
21966W        W39490   0.939   0.196  13.230 -0.2958 -0.0312 -0.0670
21967W        W39491  13.227  12.616   3.644 -0.1270 -0.0149 -0.0873
21968W        W39492  14.692   9.910  13.214  0.0151 -0.2795  0.0604
21969W        W39493  16.726  13.216   2.288  0.2089 -0.1827 -0.0355
21970W        W39494   1.282  16.481   3.476 -0.2842  0.3602 -0.3100
21971W        W39495  13.447  14.685   0.871  0.1844 -0.1138 -0.2661
21972W        W39496  16.555   3.526   4.393  0.0700  0.1834 -0.0080
21973W        W39497  15.886   1.986  11.619  0.0490 -0.0151  0.2244
21974W        W39498  17.777  11.059   4.680 -0.1791 -0.0390  0.3038
21975W        W39499  15.334   2.087   2.923 -0.1384  0.3433  0.0997
21976W        W39500   0.803   3.155   1.501 -0.1667 -0.2196  0.3082
21977W        W39501  14.748  16.448   6.285 -0.1845 -0.1627 -0.1096
21978W        W39502  12.622   0.663  12.411 -0.0123  0.0287 -0.2736
21979W        W39503   3.847   5.963   2.658 -0.0972 -0.0458  0.1330
21980W        W39504  17.175   4.860  12.738  0.2231 -0.2008  0.0416
21981W        W39505  11.755   5.482   1.985  0.0797 -0.2403  0.0572
21982W        W39506   2.133  14.329  12.603 -0.1744 -0.0919 -0.2010
21983W        W39507   7.549   2.474   4.743 -0.0944  0.1115 -0.1536
21984W        W39508   5.737   0.210  13.342 -0.0175  0.1237  0.0109
21985W        W39509  17.034   1.446  16.412 -0.1041 -0.1922  0.1017
21986W        W39510   8.158   5.791  14.691 -0.2665 -0.0466 -0.0203
21987W        W39511   1.036  15.289  14.054  0.1332  0.0633 -0.0932
21988W        W39512  12.764   6.653  11.360 -0.1072 -0.2328 -0.2588
21989W        W39513  16.640   2.559  14.256  0.1769  0.1265  0.0238
21990W        W39514   2.186   4.556  13.979  0.0346  0.0150 -0.1730
21991W        W39515   7.432   6.709  13.836 -0.1210 -0.2213 -0.0199
21992W        W39516  12.752   4.105  13.594  0.0253 -0.0308  0.0932
21993W        W39517   8.279   6.336  13.213 -0.0595  0.1053 -0.0356
21994W        W39518  17.468   0.252   1.722  0.2065  0.0035  0.1319
21995W        W39519   9.549  16.866  11.616 -0.3754 -0.1993 -0.1295
21996W        W39520   1.907  15.481  13.521 -0.1405  0.4226  0.3147
21997W        W39521   8.964  10.197  12.495  0.2308 -0.0496 -0.1963
21998W        W39522  15.385   3.134  14.394  0.0648  0.2070  0.0448
21999W        W39523   2.032   8.928  12.185 -0.0286  0.0680 -0.1693
22000W        W39524   6.284  13.284  16.118  0.1921  0.2945 -0.2420
22001W        W39525  15.992  13.600  13.493  0.1079  0.2715 -0.1854
22002W        W39526  10.166  13.416   5.052 -0.1399  0.0192 -0.2864
22003W        W39527   4.244  15.598   5.228  0.0563  0.0380 -0.0740
22004W        W39528   0.493   6.849  11.217  0.0251  0.0557  0.3741
22005W        W39529   3.072   5.557   1.781 -0.1105 -0.1326 -0.1057
22006W        W39530   1.753  12.153   1.671  0.2136 -0.1627 -0.3067
22007W        W39531   1.150   8.607  13.082  0.0392 -0.2382 -0.2481
22008W        W39532  17.474   6.668  14.477 -0.2048  0.0743  0.1253
22009W        W39533   8.863   6.693  13.989 -0.1436  0.1327 -0.2357
22010W        W39534  10.738   3.182  15.153 -0.1241 -0.2188  0.1323
22011W        W39535   2.719  16.171   4.637 -0.1684  0.0078  0.1088
22012W        W39536  15.992   0.824   1.013  0.0766  0.1726  0.2874
22013W        W39537  11.940   7.661  12.554 -0.0106  0.1437 -0.1484
22014W        W39538  17.319   8.488  15.127 -0.0462 -0.3875  0.3981
22015W        W39539   0.060   0.990   0.633 -0.0519 -0.0395  0.3719
22016W        W39540  17.511   8.430  15.671  0.0392  0.0071 -0.2876
22017W        W39541  14.402  17.421  16.329  0.1240 -0.0152 -0.3293
22018W        W39542   2.148  16.773  15.200  0.1510  0.2615 -0.1136
22019W        W39543   0.061   8.624   3.797  0.0342 -0.2541  0.0461
22020W        W39544  17.046   0.331  12.749 -0.3449 -0.0135  0.1106
22021W        W39545   8.745  12.069   2.504 -0.0471 -0.1750 -0.0420
22022W        W39546   1.258   5.829   5.203 -0.3875  0.0899  0.1021
22023W        W39547  16.170  17.716  15.072 -0.1153  0.1120  0.0100
22024W        W39548  13.224   4.590  15.810 -0.0717 -0.0666 -0.0619
22025W        W39549   9.141  15.745  16.136 -0.4103 -0.0133 -0.2276
22026W        W39550   8.236  13.463   3.293  0.4103  0.2746  0.0358
22027W        W39551  13.636   5.316  15.560  0.1460 -0.4503 -0.0350
22028W        W39552   2.379  14.792   3.149  0.0503  0.2013  0.1764
22029W        W39553  14.109   5.255   2.013 -0.1427 -0.1813  0.5188
22030W        W39554  13.402   8.137  13.525 -0.1687  0.0737 -0.1026
22031W        W39555  14.651  15.290  12.807 -0.1954  0.0007 -0.0405
22032W        W39556  10.472   0.336  15.844 -0.1250  0.2804  0.1527
22033W        W39557   6.897  12.012   0.800 -0.0661  0.0089  0.1668
22034W        W39558   7.806   9.870  14.461 -0.1640  0.1472 -0.2540
22035W        W39559   9.307  14.963   1.223  0.0243 -0.0878 -0.2163
22036W        W39560   2.121   1.155  12.689 -0.0916  0.1994  0.1762
22037W        W39561  15.463   0.985  13.922 -0.2213  0.1762 -0.0704
22038W        W39562   0.164   7.711   4.863 -0.2226  0.2071 -0.0984
22039W        W39563   1.641  16.035   3.649  0.1796 -0.2331 -0.0006
22040W        W39564   7.065   9.844  11.878 -0.0165  0.2048 -0.4374
22041W        W39565   0.579  12.266  14.211 -0.0933 -0.3268  0.1269
22042W        W39566   3.554   6.457  14.133  0.0454  0.1265  0.0004
22043W        W39567  10.531   8.024   4.323  0.0862 -0.0108 -0.1477
22044W        W39568  14.515   1.061   0.210  0.1245  0.0911  0.0138
22045W        W39569   5.914   2.197  12.722 -0.2775  0.2009  0.0902
22046W        W39570   8.483  15.450  12.993 -0.0299  0.3509 -0.0955
22047W        W39571  16.093  14.959   1.397 -0.0201  0.3462  0.2646
22048W        W39572   0.600   6.368  12.185  0.3869  0.1586 -0.0573
22049W        W39573  11.582  11.409   0.016 -0.1029  0.4244  0.2084
22050W        W39574   0.689  12.505   2.158  0.0654 -0.0096 -0.3300
22051W        W39575   6.676   8.873   0.280  0.0157 -0.2799 -0.0063
22052W        W39576   2.635   0.351   5.528  0.1833 -0.2123  0.0569
22053W        W39577   6.739  17.388  13.159 -0.0618  0.1102  0.0148
22054W        W39578  13.971  13.315  13.806  0.4996 -0.2300  0.0621
22055W        W39579   0.934   0.174   3.854 -0.1023  0.1919  0.2451
22056W        W39580   3.376   6.443   0.822 -0.1127 -0.0215 -0.1067
22057W        W39581  11.008  11.817   4.814 -0.0433  0.0912 -0.1831
22058W        W39582   2.610   6.160  12.504 -0.1481 -0.0340  0.3498
22059W        W39583  16.156  12.524  11.372  0.0854  0.0763 -0.1562
22060W        W39584   6.836  16.735   3.398 -0.3341 -0.0621  0.0821
22061W        W39585   6.509   0.469   4.139 -0.3488  0.0468  0.0149
22062W        W39586   5.033  13.524   2.414 -0.1345 -0.0919  0.1285
22063W        W39587  16.998  12.454  13.125  0.2273 -0.0863 -0.0117
22064W        W39588   7.030  14.849   3.660  0.3073  0.0517 -0.1933
22065W        W39589   8.663  12.599   4.021  0.0137 -0.3184  0.2225
22066W        W39590  15.460   9.988  10.760 -0.2232  0.1303  0.0447
22067W        W39591  17.950   7.746   1.590  0.1512  0.0659  0.2043
22068W        W39592  13.041   4.664   0.148  0.0492 -0.1621 -0.6531
22069W        W39593   7.788  13.727   5.369 -0.1229  0.1458  0.2317
22070W        W39594   8.760  16.063   4.943  0.2202 -0.1084 -0.0519
22071W        W39595   4.757   5.285  12.717 -0.3814 -0.0466 -0.2910
22072W        W39596   8.055  14.693  15.651 -0.0107 -0.1431 -0.1235
22073W        W39597  15.406   8.780  14.180 -0.0386 -0.0424  0.2339
22074W        W39598  13.738  10.660  13.230 -0.0349  0.2496  0.0255
22075W        W39599   4.435   4.061  14.696  0.2186  0.2344  0.2366
22076W        W39600   9.779  10.178   4.332  0.2553  0.0604  0.3111
22077W        W39601   0.592   5.645   2.388  0.1706  0.3100 -0.0176
22078W        W39602  17.030   8.382   4.731 -0.1924 -0.0781 -0.0889
22079W        W39603  10.404   9.860  12.814 -0.0542 -0.1499  0.0026
22080W        W39604  17.700  12.738   3.628  0.0548  0.2511 -0.0745
22081W        W39605   5.932   0.387   2.055  0.0715  0.2834  0.1018
22082W        W39606   5.724   0.476   0.616  0.0507  0.0972  0.0039
22083W        W39607  12.940   3.129  16.391 -0.0010  0.1021 -0.2676
22084W        W39608  11.601   0.697   3.068 -0.1257  0.0604  0.0602
22085W        W39609  13.656  15.449  12.260 -0.2530  0.0772  0.1091
22086W        W39610  14.621  16.737  13.471 -0.4199  0.0293  0.1438
22087W        W39611   6.773   3.120   0.274 -0.0345 -0.3785 -0.0056
22088W        W39612   3.389   5.624  13.868  0.0655 -0.1303  0.1913
22089W        W39613   5.011   5.810  14.114  0.3791 -0.1631  0.1263
22090W        W39614  16.768  14.660   2.049 -0.0454  0.1456 -0.2518
22091W        W39615   7.047   9.841  12.725  0.0556 -0.1125  0.0765
22092W        W39616   0.546  15.947   4.924  0.0518 -0.0809  0.0669
22093W        W39617  16.513   0.482  13.231  0.1210  0.1235  0.1106
22094W        W39618  12.751   9.433  14.136  0.1102  0.0462 -0.0322
22095W        W39619  14.274  15.377   3.468  0.2576  0.1515  0.1295
22096W        W39620  13.882  12.773  12.972  0.1548 -0.1927 -0.2684
22097W        W39621   1.618  12.887  12.899  0.1294  0.2371 -0.0555
22098W        W39622  16.275  16.733   3.205  0.0100  0.0465 -0.0277
22099W        W39623  10.342   7.660  15.352 -0.1095  0.0540 -0.1773
22100W        W39624  17.179   1.587  14.721  0.1311  0.2528 -0.2053
22101W        W39625   1.016  13.410  14.922 -0.2169  0.3652 -0.1429
22102W        W39626  11.961   4.285  16.118  0.1219 -0.1724 -0.1452
22103W        W39627  16.468   3.166   0.178  0.0195  0.3531 -0.0684
22104W        W39628  17.664   0.799  16.297  0.3016  0.0045 -0.0701
22105W        W39629  14.566  15.416  14.179  0.0469  0.0613  0.2090
22106W        W39630  16.221  14.220   4.310  0.1832  0.2109 -0.1110
22107W        W39631   4.590   3.755   4.742  0.1506  0.2870  0.2202
22108W        W39632   2.174   2.796   1.681 -0.0833 -0.1942 -0.0017
22109W        W39633   1.325   4.428   4.192  0.0748  0.2318  0.1558
22110W        W39634   5.799  10.043  14.645 -0.1621 -0.1289  0.0660
22111W        W39635   1.911   6.221  12.980 -0.0957 -0.2198  0.1984
22112W        W39636   0.447   3.363  11.766  0.2665 -0.1039  0.1412
22113W        W39637  17.342  14.432   1.264 -0.0285 -0.0289 -0.1671
22114W        W39638   5.723  11.256   3.394 -0.3306  0.2320 -0.1479
22115W        W39639  15.623   7.769   0.038 -0.0539  0.2537 -0.1124
22116W        W39640   1.552  11.918  13.218  0.1894 -0.3128  0.0176
22117W        W39641  16.876  16.605   3.864  0.2305  0.1174  0.0082
22118W        W39642  16.457  11.736  16.276  0.0773  0.3778 -0.0337
22119W        W39643   0.714   8.500   0.935 -0.0311 -0.1848 -0.0418
22120W        W39644  11.248   3.320   2.104  0.1948  0.0600  0.1133
22121W        W39645  12.604   3.341   0.353 -0.2929  0.1088 -0.0703
22122W        W39646   6.969   3.835   1.564 -0.0795  0.0860  0.3180
22123W        W39647   8.182   3.454   1.720  0.2893 -0.1906  0.1624
22124W        W39648   6.937  15.310   5.111 -0.0211  0.2493  0.1233
22125W        W39649   0.183  15.918   1.033 -0.2510 -0.3398  0.1369
22126W        W39650  14.260  10.188  16.263  0.3338  0.1572 -0.1633
22127W        W39651   2.914   4.166  16.317 -0.2123  0.0041 -0.1664
22128W        W39652  11.866  12.424  16.425  0.0907 -0.0395 -0.2868
22129W        W39653   9.494   2.941  14.126  0.0630 -0.1186 -0.0993
22130W        W39654  13.363   3.308  12.073 -0.1671  0.1755 -0.0861
22131W        W39655   3.198  13.204   3.703  0.1435  0.3112  0.1329
22132W        W39656  13.850   6.456   1.896 -0.0875  0.0576  0.1870
22133W        W39657  14.579  14.366  12.587 -0.1820  0.3374 -0.0292
22134W        W39658   7.731  16.179   0.904  0.1745 -0.0697  0.2437
22135W        W39659  11.907   0.457  14.930 -0.0078 -0.0495 -0.2366
22136W        W39660  14.058  16.421  14.259 -0.0116 -0.0117 -0.2383
22137W        W39661   8.852   3.823   5.316 -0.2068 -0.2827 -0.0314
22138W        W39662  14.327   9.622   5.379  0.0863 -0.2985 -0.0088
22139W        W39663   9.309  17.542  15.765  0.2352  0.0022 -0.1868
22140W        W39664  15.790  15.160   0.194  0.0717  0.0714 -0.0138
22141W        W39665  13.771   9.782  13.197 -0.1410  0.1870 -0.2365
22142W        W39666   5.455   1.177  11.356  0.2766  0.0874  0.1093
22143W        W39667   6.194   2.218  15.552  0.0229 -0.0231 -0.0241
22144W        W39668   5.520  11.438   3.987  0.3038  0.0538  0.1668
22145W        W39669   5.491   6.415  15.509 -0.0358  0.2061 -0.0399
22146W        W39670  17.743  12.141   2.697  0.0892 -0.0258 -0.1829
22147W        W39671  12.615  17.439   1.470  0.0581  0.3276  0.0649
22148W        W39672  16.554   6.401   3.111 -0.1062 -0.0128  0.2695
22149W        W39673   9.386   3.785  12.312 -0.2095  0.1916 -0.2097
22150W        W39674  14.245   1.714   2.650  0.2042  0.0746 -0.2567
22151W        W39675   0.780   5.724  15.710 -0.0257 -0.0205  0.0360
22152W        W39676  15.568   2.397  11.617  0.0021  0.2257  0.0131
22153W        W39677   3.897  12.479  14.083  0.0456  0.4261 -0.0504
22154W        W39678  15.530   7.954   1.721  0.0159  0.0398 -0.1898
22155W        W39679  14.354  11.693  15.297 -0.1558 -0.2959 -0.0387
22156W        W39680  10.799  14.198   1.976 -0.0026 -0.1728  0.2136
22157W        W39681   5.921   7.173  15.014 -0.0669 -0.2984  0.0572
22158W        W39682   5.973  10.455  12.762  0.1104  0.2044  0.0124
22159W        W39683   9.309   3.426   0.595  0.0779 -0.0466  0.0469
22160W        W39684  17.831  10.809  12.846  0.0081  0.1275  0.0934
22161W        W39685  12.293   4.538  10.728  0.2354  0.0368  0.1166
22162W        W39686  16.794  15.672  13.418  0.0762 -0.3320  0.1739
22163W        W39687  14.226  14.280  16.440  0.2118  0.0820  0.3180
22164W        W39688   4.908  10.436   3.926 -0.1528  0.2734  0.0043
22165W        W39689   1.452  15.710  12.526 -0.0973 -0.2705  0.0020
22166W        W39690  11.746   4.842   2.217 -0.2022  0.0066 -0.0687
22167W        W39691   9.282  13.672   4.799  0.2880 -0.2983 -0.0162
22168W        W39692   8.706  14.848  15.115 -0.1116  0.0569  0.0566
22169W        W39693  15.476  17.907  14.302  0.4729 -0.0909  0.0644
22170W        W39694   4.456  10.159  12.401 -0.4955 -0.2871 -0.0296
22171W        W39695  10.091  13.830   1.379 -0.1767  0.2597 -0.1462
22172W        W39696   7.442   0.144  11.507 -0.1596  0.3593  0.0409
22173W        W39697  11.132   3.170   0.134  0.1109  0.1175  0.0859
22174W        W39698   5.633   1.240   3.164  0.0896 -0.1305  0.0971
22175W        W39699   6.082  14.365   0.802  0.0164 -0.3243  0.2926
22176W        W39700   3.098   5.252   2.166  0.1958  0.0730  0.1073
22177W        W39701   3.104  10.245   0.207 -0.1201  0.0498  0.2937
22178W        W39702  12.704   8.402  11.640  0.0734 -0.1318 -0.0157
22179W        W39703   8.357   5.710  12.548  0.2699 -0.0039  0.0294
22180W        W39704   1.034  15.924   4.184 -0.2423  0.1990  0.1357
22181W        W39705  10.553   3.650  11.812 -0.2390 -0.1172  0.2470
22182W        W39706  14.801   4.253  14.993 -0.0432  0.0808  0.0444
22183W        W39707   9.703  11.534  16.455 -0.1974 -0.3686  0.1947
22184W        W39708   8.226   9.310  13.423 -0.0405 -0.1730  0.0150
22185W        W39709   3.840  14.777  16.218  0.2287  0.1349  0.1414
22186W        W39710  11.461  14.913  14.488 -0.0118  0.1695  0.0713
22187W        W39711   2.115   4.735  15.916  0.0064 -0.3660  0.0345
22188W        W39712  12.832  16.313   3.465  0.2173  0.0351  0.1347
22189W        W39713   5.024  15.897  12.806 -0.0178 -0.0504  0.0206
22190W        W39714  17.802   6.408  15.426 -0.0315  0.0703  0.0136
22191W        W39715  11.313  16.852   4.627 -0.2504 -0.0632 -0.0397
22192W        W39716  12.089   5.840  16.113  0.0945 -0.1995 -0.1549
22193W        W39717  13.345   0.767   0.956 -0.0750 -0.0083 -0.0804
22194W        W39718  10.342   0.756   3.638 -0.1195 -0.1856  0.0449
22195W        W39719  16.732   7.450  11.716  0.2557 -0.0470  0.0042
22196W        W39720  12.632  10.636  12.737  0.1056  0.0298  0.0327
22197W        W39721   3.192  11.193   1.240 -0.0371  0.1172  0.2687
22198W        W39722   9.329  10.932   4.709  0.2266 -0.0803  0.0452
22199W        W39723   8.680  16.020  15.745  0.0324  0.1067  0.0972
22200W        W39724   6.427  11.842   0.856 -0.0884  0.1230 -0.0216
22201W        W39725   8.573  10.188  11.865 -0.1072 -0.0950 -0.1239
22202W        W39726   5.533   3.272   4.355  0.2790 -0.0646 -0.0221
22203W        W39727  15.451   8.736  13.475 -0.0214 -0.0523  0.0363
22204W        W39728  14.531  17.037  15.549  0.0434 -0.4974  0.0308
22205W        W39729  17.184  16.000  11.888 -0.2751  0.0989  0.4194
22206W        W39730   3.023   3.185   2.144  0.1860  0.2464  0.1262
22207W        W39731   6.572   9.971   0.592  0.0940 -0.0531 -0.0274
22208W        W39732  10.754   7.363  12.308 -0.0073  0.0132  0.3371
22209W        W39733  17.573  13.215   3.682  0.2173 -0.4175  0.1689
22210W        W39734   2.404   5.410   2.552 -0.0392 -0.3684  0.4061
22211W        W39735   0.334   9.348  11.048  0.0751 -0.1655 -0.2699
22212W        W39736  14.640  16.952   2.294 -0.0851  0.1184 -0.2279
22213W        W39737   3.898  17.839   1.815  0.3733  0.2327 -0.0763
22214W        W39738   5.981  17.601   2.948  0.4478  0.0800 -0.1444
22215W        W39739   8.970   5.842  14.154  0.1660  0.0147  0.3573
22216W        W39740  12.265   0.621   1.781 -0.1268  0.0708  0.6249
22217W        W39741   1.668   8.701   0.851  0.0955 -0.0682  0.0231
22218W        W39742  12.393  12.724  10.429  0.0602  0.1048 -0.0257
22219W        W39743   9.679   7.206   3.194 -0.3219  0.0866  0.0070
22220W        W39744   5.170  15.161  12.538 -0.4173  0.2590 -0.2551
22221W        W39745   4.682  14.157   2.573 -0.1565  0.0100 -0.1243
22222W        W39746   0.100  17.780   2.021  0.1330 -0.2618  0.1329
22223W        W39747  12.071  12.314  11.853 -0.3205  0.0865  0.0836
22224W        W39748  16.938   7.123  10.982  0.1083 -0.1394 -0.1099
22225W        W39749   4.997   2.372   4.967 -0.0486  0.1991 -0.0627
22226W        W39750  12.677  12.072  14.964  0.0964 -0.0423 -0.2994
22227W        W39751  13.387   5.826   3.039 -0.0057  0.3187  0.1061
22228W        W39752   8.966   4.607  15.219  0.1454  0.0711  0.0540
22229W        W39753   4.122   5.375  13.552  0.0533 -0.1382 -0.3569
22230W        W39754   9.415   1.596   1.218  0.5213  0.0432  0.4255
22231W        W39755   6.963   8.670   3.893  0.0511  0.0344  0.2356
22232W        W39756  15.810  12.960   4.446  0.0640 -0.1505  0.0526
22233W        W39757   6.030  15.160   0.524  0.2872 -0.1431  0.0954
22234W        W39758   0.544   8.083  10.792 -0.0486  0.2692 -0.2112
22235W        W39759  14.859  14.406   2.196 -0.1237  0.0746  0.1268
22236W        W39760  11.891  17.754  13.835 -0.2050 -0.0287 -0.0643
22237W        W39761   0.606   3.215  15.690 -0.1224  0.1782 -0.2201
22238W        W39762   2.597   0.986   1.599  0.2838  0.2675 -0.1901
22239W        W39763   6.608  17.166  16.283  0.0602  0.0424 -0.0031
22240W        W39764  13.322  12.126   2.065  0.0031 -0.2202 -0.0711
22241W        W39765   2.215  15.875   1.066 -0.0469  0.2638  0.0021
22242W        W39766   7.378  17.556   1.439  0.0321 -0.0012 -0.2094
22243W        W39767  15.563  16.066   0.801  0.0591 -0.3336 -0.2060
22244W        W39768   5.561  10.595   3.347 -0.1095  0.0605  0.1868
22245W        W39769  17.172   4.379  14.713  0.0053  0.0981  0.2110
22246W        W39770   2.085   2.244  12.714 -0.3328  0.2084  0.2677
22247W        W39771  10.260   4.940  15.046  0.1497  0.1607  0.0742
22248W        W39772  16.017   3.213  12.538 -0.1394  0.1485 -0.3060
22249W        W39773   6.050  13.274   2.517  0.0236  0.1997 -0.2282
22250W        W39774   5.693   0.131  16.035 -0.0219  0.1017  0.0703
22251W        W39775   2.533   1.289  16.182  0.0828 -0.0374  0.4346
22252W        W39776  10.378   0.221  16.384  0.1121 -0.1395  0.1564
22253W        W39777  15.158   4.766  15.416  0.0784 -0.2462 -0.0585
22254W        W39778   1.612   5.494  11.802  0.0789 -0.0037  0.1045
22255W        W39779   4.801   7.031  14.165 -0.6159 -0.1492 -0.1436
22256W        W39780  14.955   0.838   2.854 -0.0892 -0.1036 -0.1810
22257W        W39781  11.632   1.414  14.038 -0.2831 -0.0334 -0.2051
22258W        W39782  13.502  10.514   4.995  0.1944  0.0951  0.2337
22259W        W39783   2.718   0.395   0.053 -0.1902  0.0458 -0.1383
22260W        W39784   6.238  17.895  13.702  0.1702 -0.0553  0.0582
22261W        W39785   7.826   8.986  14.342 -0.1495 -0.1036  0.0408
22262W        W39786  13.474   3.207   0.559 -0.2660 -0.1905 -0.0705
22263W        W39787   5.427   7.252  14.481  0.0018 -0.1146  0.0069
22264W        W39788   8.946  14.229   1.692  0.1634  0.3536  0.2686
22265W        W39789   1.966  12.502  12.755 -0.0780 -0.0791  0.0554
22266W        W39790  14.988  12.761  15.099  0.2704  0.1075 -0.2310
22267W        W39791  12.103   5.339   2.293  0.6017 -0.2753 -0.2799
22268W        W39792   2.244  17.437  12.014  0.1011  0.2245  0.2505
22269W        W39793   1.315  14.590  10.689 -0.3687 -0.3017 -0.0450
22270W        W39794  11.406   6.758  11.267  0.0048 -0.0032  0.0418
22271W        W39795  17.538   0.997  13.895 -0.3124 -0.0365 -0.1583
22272W        W39796   5.817   4.509  14.240 -0.0399 -0.0235  0.0206
22273W        W39797   2.974   4.691   4.294  0.0184  0.0401  0.3152
22274W        W39798  12.948   8.626   1.987  0.2091 -0.2057  0.2474
22275W        W39799   4.967  10.362  12.443  0.2780 -0.1633  0.2109
22276W        W39800  10.924   9.426   4.017  0.0301 -0.0836 -0.1670
22277W        W39801   2.563  17.841   4.625  0.1597 -0.0350  0.0546
22278W        W39802   7.803   3.859  11.616 -0.0707  0.1022  0.0911
22279W        W39803   1.994   2.755   4.220  0.0273  0.2849 -0.3028
22280W        W39804   0.481   8.560   0.076  0.0379 -0.1591  0.1749
22281W        W39805   8.829   2.369  13.989  0.4359 -0.0079 -0.0149
22282W        W39806  17.086   9.597  13.450  0.2541  0.0532  0.0525
22283W        W39807  16.664  10.996  14.524 -0.2006  0.0739  0.1379
22284W        W39808  17.173  12.991   1.149 -0.0064  0.2783 -0.1778
22285W        W39809  13.422   9.438  14.676 -0.0034  0.1641 -0.1633
22286W        W39810  10.312   9.584   3.909  0.1081 -0.3222 -0.1013
22287W        W39811  14.512   3.946  12.617 -0.1080 -0.0135 -0.1706
22288W        W39812  15.176  12.059   4.302 -0.0271 -0.3381  0.0468
22289W        W39813  14.379   6.267  16.094  0.2316 -0.1180  0.1808
22290W        W39814  10.723   6.356   2.169  0.0238  0.0560 -0.2222
22291W        W39815   5.058  11.923  12.672  0.0621 -0.0891  0.2730
22292W        W39816   1.177   7.511   2.841  0.1549 -0.0544  0.1377
22293W        W39817   6.268   9.101   0.625 -0.3169 -0.1880  0.1581
22294W        W39818   8.411   2.728  15.601 -0.2433  0.0161 -0.0197
22295W        W39819  11.540   5.935  14.126 -0.1850  0.1086 -0.1097
22296W        W39820  16.130  14.535  14.759 -0.1046  0.1878  0.2193
22297W        W39821   6.929  16.259   4.796  0.2283  0.0951 -0.0963
22298W        W39822  15.943   7.016  12.187 -0.0281 -0.1966  0.1366
22299W        W39823   2.945   0.493   3.746  0.2677 -0.0534 -0.5554
22300W        W39824   2.676  15.626  14.726 -0.2110  0.0441  0.2602
22301W        W39825   0.163  17.469   2.850  0.0988  0.1162  0.0575
22302W        W39826   3.606  12.068  11.913  0.0186  0.0998  0.0623
22303W        W39827   6.372  14.710   1.686 -0.1710 -0.0792  0.2924
22304W        W39828  11.446   4.840  13.643  0.0139 -0.3709 -0.3299
22305W        W39829   3.548   0.361  12.520 -0.0988  0.3344  0.0078
22306W        W39830  14.441  11.181  16.064 -0.3877  0.1369 -0.1187
22307W        W39831   9.505   5.500  15.970  0.0857  0.2129  0.0453
22308W        W39832  16.808   1.873  12.482  0.0224  0.0441 -0.3089
22309W        W39833   9.975   5.285  11.266  0.4207  0.1590 -0.0502
22310W        W39834  14.073  17.704  15.741 -0.1119  0.1450  0.1605
22311W        W39835  12.743   8.813   5.854  0.0054  0.0495 -0.0735
22312W        W39836  15.130  13.593  15.235 -0.2446 -0.1853  0.0579
22313W        W39837  14.068  15.430   5.538 -0.2541 -0.2379  0.0114
22314W        W39838  13.090   0.363  12.212  0.1384 -0.2001 -0.0210
22315W        W39839   8.097   0.325   2.943  0.2856  0.1635  0.1209
22316W        W39840   7.867   8.259   1.706 -0.0138 -0.2265 -0.0480
22317W        W39841   5.424  14.765  12.371 -0.2278  0.0548  0.3026
22318W        W39842  10.592   5.809   4.041 -0.3907  0.2235  0.1246
22319W        W39843   3.104   6.813  12.724 -0.1512  0.2604  0.2854
22320W        W39844   4.922  17.486   1.402  0.0358  0.0583  0.2263
22321W        W39845   3.676  10.433  12.411  0.0368 -0.2906 -0.0410
22322W        W39846  11.113   2.377  15.033 -0.0042 -0.0219 -0.0859
22323W        W39847   6.125  12.624  11.592 -0.1723 -0.1050 -0.0667
22324W        W39848  13.091  16.953  14.902  0.2734  0.0283 -0.0506
22325W        W39849   2.064   9.127   0.779  0.0189  0.2689 -0.1012
22326W        W39850   5.279   2.929  13.540  0.0316 -0.0018 -0.1947
22327W        W39851  16.723  13.994  11.529  0.2065 -0.4120 -0.0743
22328W        W39852   8.133   7.361  13.890  0.1355 -0.1148 -0.0406
22329W        W39853   7.730   1.498   1.194 -0.1545  0.2566  0.0104
22330W        W39854   3.071   3.699   0.491  0.0112 -0.0440  0.1373
22331W        W39855   8.310   1.923  11.004  0.1385 -0.1198 -0.2103
22332W        W39856   2.445   0.336   0.906 -0.2443 -0.4941  0.3155
22333W        W39857   3.000   9.188  12.476 -0.2783 -0.0053  0.4609
22334W        W39858  15.860   0.557   1.513  0.1616 -0.1612  0.1061
22335W        W39859   0.091  16.433  13.940  0.0519 -0.0163  0.2063
22336W        W39860   3.079   3.864   2.350  0.0152 -0.0515 -0.2014
22337W        W39861  13.700   8.606   0.222 -0.1475  0.1361  0.0547
22338W        W39862   0.464  16.875  13.268 -0.2196  0.1443  0.0344
22339W        W39863  17.942   7.776  13.839  0.1835 -0.3132 -0.1026
22340W        W39864  16.133   9.063   4.928 -0.0406 -0.0663 -0.1007
22341W        W39865   0.558  11.162   2.447 -0.1199 -0.0622 -0.0315
22342W        W39866  15.064   8.367  13.446 -0.2716  0.1548  0.0977
22343W        W39867   7.162   8.602   3.387  0.1394 -0.1209  0.0937
22344W        W39868  15.957   3.182   0.782 -0.0313  0.0825 -0.3407
22345W        W39869  15.394  12.032  13.614 -0.0573  0.0658  0.3275
22346W        W39870   1.240  12.082   3.037 -0.1173 -0.0387  0.1692
22347W        W39871   1.483  13.363   1.827  0.1861 -0.1823  0.1353
22348W        W39872   6.342   0.846  13.342  0.0635  0.1147  0.2499
22349W        W39873  14.534   5.590   1.951  0.0285 -0.0296  0.0671
22350W        W39874  16.860   1.921   3.533  0.0361 -0.4011  0.2232
22351W        W39875   9.352   7.714   4.029 -0.1756  0.1667 -0.2122
22352W        W39876   8.009  17.173   0.736  0.2282  0.0319 -0.0688
22353W        W39877   3.660  16.637   2.186  0.0205  0.1177 -0.1178
22354W        W39878  10.371  13.611  14.306  0.1890 -0.1342  0.0482
22355W        W39879   0.343   6.304   4.515 -0.0303  0.2054 -0.2370
22356W        W39880  12.353   5.374   3.045  0.1022  0.1850 -0.1054
22357W        W39881   5.924  12.925  13.078 -0.1489  0.0545 -0.0607
22358W        W39882  14.587   4.021  12.011 -0.2261  0.0842 -0.0554
22359W        W39883   1.628   9.902  13.330 -0.0776  0.2160 -0.0040
22360W        W39884  16.495   1.070  12.444  0.0099  0.1858 -0.1370
22361W        W39885   2.359  16.400  10.964 -0.0825 -0.0998 -0.3174
22362W        W39886  13.169  13.279   0.798 -0.1006 -0.1099 -0.0906
22363W        W39887   1.633   6.289   4.886 -0.0275  0.2255  0.4043
22364W        W39888  11.624   4.657  11.938  0.1871  0.0286 -0.1430
22365W        W39889   1.657  16.014  11.715  0.0593  0.1869  0.0974
22366W        W39890   2.291  13.196   1.489  0.2356 -0.0129  0.0938
22367W        W39891   0.714   8.712  11.632 -0.0244  0.2812 -0.2814
22368W        W39892   3.710   0.946   3.475  0.2354  0.3028  0.1882
22369W        W39893  16.418   1.500   2.134 -0.0734  0.4981 -0.2453
22370W        W39894  15.052  11.584   4.070  0.0496 -0.2668  0.1167
22371W        W39895   7.109  14.797   1.733 -0.1492 -0.1889 -0.0851
22372W        W39896  17.800   2.406   3.424 -0.1014  0.0859  0.0006
22373W        W39897   4.348   1.594  12.378  0.1516  0.1975 -0.1913
22374W        W39898   3.814   0.121   4.111 -0.0601 -0.0496  0.2243
22375W        W39899  15.846  16.319  12.638  0.0425 -0.1469  0.1283
22376W        W39900  11.968  16.762  12.918 -0.0556 -0.0038  0.1254
22377W        W39901   1.637  14.373   1.083 -0.1260  0.1261 -0.0704
22378W        W39902   3.016  11.492   4.661  0.0320 -0.0147 -0.2758
22379W        W39903  12.064   2.671   0.522 -0.1263  0.0172 -0.0584
22380W        W39904   6.696  16.285  13.019  0.2214 -0.1061  0.0307
22381W        W39905   4.336   6.935   2.776 -0.4384  0.0589 -0.5491
22382W        W39906  14.212   3.350   1.106  0.0037 -0.1621  0.2076
22383W        W39907  13.687  17.460   4.718 -0.0244  0.1368 -0.0605
22384W        W39908   0.058   9.039  12.245 -0.0221 -0.0040 -0.0301
22385W        W39909   5.347   9.101  15.485  0.0136 -0.0264 -0.0099
22386W        W39910  13.796   4.962   3.067  0.4532  0.0624  0.0983
22387W        W39911   7.696  17.682  13.163 -0.2140 -0.3356  0.3311
22388W        W39912   8.550  12.405   0.908 -0.1444  0.0381 -0.0658
22389W        W39913   7.069  10.453  14.724 -0.2642 -0.1152 -0.2724
22390W        W39914  16.964  17.901   3.131  0.0116  0.0170  0.2601
22391W        W39915   4.276   4.916   2.954 -0.0053  0.1073  0.0243
22392W        W39916   7.079  10.654  11.431  0.4257  0.1397  0.0761
22393W        W39917  10.349  17.084  13.893  0.1423  0.3217  0.4108
22394W        W39918   7.845  11.327  12.058  0.1222  0.0253 -0.0117
22395W        W39919  15.917  14.383   3.158  0.3259  0.0957 -0.3128
22396W        W39920  12.288  14.629  12.824 -0.4734 -0.1022 -0.3063
22397W        W39921  12.547  12.647   1.594 -0.0361  0.4973  0.0149
22398W        W39922  12.923   4.308   4.508 -0.2608  0.0100 -0.0303
22399W        W39923   4.702  13.219   4.693 -0.1361  0.0880 -0.1134
22400W        W39924   3.205   5.329   0.657  0.1520  0.0235 -0.1544
22401W        W39925   4.338   6.394  14.911 -0.2285 -0.0523  0.0780
22402W        W39926   7.170   3.394   3.938 -0.2145 -0.0157 -0.1359
22403W        W39927   6.568   1.127   1.294  0.3469  0.0319  0.1453
22404W        W39928   2.114   7.972  13.616 -0.3192 -0.1652 -0.2348
22405W        W39929  11.179   4.179   5.446  0.0851  0.0297 -0.0975
22406W        W39930  11.290  14.106   1.836 -0.0903 -0.0439 -0.1594
22407W        W39931  15.774  11.394  15.883  0.3022  0.0422  0.3225
22408W        W39932   3.476  13.644  12.349  0.1427  0.1525 -0.0473
22409W        W39933  17.286   2.131  14.713  0.1553 -0.3327 -0.1813
22410W        W39934   8.937  12.160  13.243 -0.3753  0.0359 -0.1640
22411W        W39935  12.291  11.351   0.708  0.0374  0.1078 -0.3976
22412W        W39936  10.310  17.397  14.250  0.1929  0.0655  0.3357
22413W        W39937  16.842   9.242   2.474  0.6386 -0.0264  0.0451
22414W        W39938   5.162   2.696  12.451  0.1806 -0.1984 -0.3218
22415W        W39939  13.985   7.019  15.630  0.0705 -0.0530  0.1676
22416W        W39940   4.576   6.553  14.344  0.0240  0.0679 -0.0479
22417W        W39941   0.078  11.515   1.473  0.5432 -0.2081 -0.1777
22418W        W39942   7.595   6.049   4.065  0.1178 -0.2156 -0.1698
22419W        W39943   2.223  14.638   5.130  0.1195 -0.3378 -0.1862
22420W        W39944   3.031   6.639   4.422 -0.3174  0.0674  0.3741
22421W        W39945   0.536  10.037  11.654 -0.2213 -0.2482  0.1093
22422W        W39946   5.001  12.208   4.892 -0.4182 -0.0293  0.0718
22423W        W39947   3.077   9.471   0.625  0.2543 -0.1828 -0.0902
22424W        W39948  10.087  11.655   1.933  0.0692  0.1876  0.2791
22425W        W39949   5.610  14.080   4.307 -0.0102  0.0721  0.1678
22426W        W39950   3.539   2.197  15.035  0.4649  0.0341  0.2282
22427W        W39951   2.917  11.970   4.613 -0.4813  0.2488  0.2431
22428W        W39952  13.624   8.094  10.483  0.0466  0.2351  0.0607
22429W        W39953   0.759  15.309  12.918  0.2171 -0.1751 -0.0786
22430W        W39954   0.249   4.044  15.845  0.1138 -0.4049  0.0736
22431W        W39955  12.396  11.666   3.606  0.0271 -0.1021 -0.0097
22432W        W39956  10.212   9.068  11.783 -0.3369  0.0299  0.0940
22433W        W39957   6.318  16.106   1.124  0.0842  0.2088 -0.0022
22434W        W39958   1.729   1.694  12.763  0.1505  0.0012 -0.1371
22435W        W39959   3.174   6.830  11.631  0.1399 -0.0365  0.0962
22436W        W39960   6.226  17.971   2.078  0.0747  0.1282 -0.1047
22437W        W39961  16.086  14.368   0.575  0.2586  0.0727  0.2631
22438W        W39962  12.769  16.031  14.475 -0.2647 -0.1299  0.2006
22439W        W39963   7.814   7.365  12.640 -0.2788 -0.0009 -0.3293
22440W        W39964   2.032  10.734   1.485  0.5699 -0.0479 -0.2615
22441W        W39965   9.988   8.490  15.594  0.1682 -0.1623  0.2303
22442W        W39966   8.739   0.424  12.710  0.0536  0.2163 -0.0188
22443W        W39967   3.818   3.753  14.891  0.2003 -0.0494  0.2618
22444W        W39968  16.813   2.140  13.417  0.2177  0.1099  0.0637
22445W        W39969   6.342   1.278  10.863  0.0732 -0.0159  0.0885
22446W        W39970  13.882  12.996   0.086 -0.0157  0.1648  0.0927
22447W        W39971   7.252   4.714   2.952  0.2639  0.1397 -0.2014
22448W        W39972   6.019  16.280  13.367  0.3910  0.2360  0.1211
22449W        W39973  17.451   2.339   0.261 -0.2033 -0.0938  0.0821
22450W        W39974  15.590  17.933  12.781 -0.3111 -0.1582  0.0408
22451W        W39975   3.029   9.994  12.073  0.0442  0.2514  0.0525
22452W        W39976   0.914   0.720   3.993  0.2433 -0.0424  0.0652
22453W        W39977  11.602   1.312  15.519 -0.3448  0.3019 -0.1311
22454W        W39978  11.051   6.123   5.119 -0.0491  0.0431 -0.3194
22455W        W39979   4.826  13.405  16.014 -0.1454 -0.0051  0.1280
22456W        W39980   0.992  12.922  13.543  0.1255 -0.2653  0.3831
22457W        W39981  10.584  15.769  16.236  0.2214  0.0083  0.0454
22458W        W39982  13.416  14.318   2.896  0.0106  0.0983  0.0566
22459W        W39983  13.432   5.804  14.266  0.0083 -0.3306 -0.1179
22460W        W39984   5.055  15.197   4.925  0.0869 -0.0676  0.0123
22461W        W39985   6.775   4.560   4.820 -0.1287 -0.1220 -0.0857
22462W        W39986   4.232   4.570   2.514 -0.1142 -0.2508 -0.1152
22463W        W39987  13.369   5.617  11.969  0.0530 -0.0576  0.5038
22464W        W39988   0.804   1.149   3.807  0.1180 -0.1771  0.0416
22465W        W39989   9.685  11.213   0.497 -0.0187  0.1630  0.1386
22466W        W39990  17.874   9.986  12.198 -0.0442  0.4048  0.1832
22467W        W39991   8.331  17.629   2.351  0.1539  0.0732 -0.0673
22468W        W39992   2.402  10.689  11.875  0.0373  0.0147  0.0752
22469W        W39993   8.681   9.686   4.194  0.1755 -0.2702 -0.1980
22470W        W39994   6.905  13.477   0.856  0.0219  0.2806 -0.0507
22471W        W39995  16.674   4.261  14.799  0.0375 -0.3446  0.0470
22472W        W39996   5.210   1.138  15.884  0.1494 -0.1175  0.1849
22473W        W39997   1.537  12.580   2.620  0.4237  0.0563  0.2720
22474W        W39998   8.283  11.328   3.948 -0.2739  0.0212  0.3214
22475W        W39999  17.859  11.498  15.252 -0.0143 -0.3362 -0.2220
22476W        W40000   8.783   6.544   4.431 -0.1859 -0.1737  0.1906
22477W        W40001  16.397   4.175  10.665 -0.2551 -0.0977 -0.0450
22478W        W40002  17.415   8.537   5.767 -0.0080  0.0360  0.0147
22479W        W40003   4.168  10.197   2.062  0.1505  0.0620  0.3302
22480W        W40004  10.150  13.547  11.187 -0.0938 -0.1101  0.2902
22481W        W40005   1.879  14.608  15.454 -0.3500 -0.1713 -0.1765
22482W        W40006   6.697  14.079   2.312 -0.2451  0.4270 -0.2149
22483W        W40007   4.137  11.042   1.437  0.1909  0.1531 -0.0535
22484W        W40008  17.549   3.415  15.339  0.1732  0.3703  0.1421
22485W        W40009  15.098   7.363   4.616 -0.5563 -0.0322  0.1267
22486W        W40010   2.893   7.291  13.310 -0.0803  0.5769  0.0145
22487W        W40011   6.095   2.670   1.278 -0.1396  0.1243 -0.1918
22488W        W40012   7.230  14.032  14.440  0.0434 -0.1807 -0.4446
22489W        W40013   0.972   0.799  13.342 -0.3413  0.1049 -0.0635
22490W        W40014  17.308  16.081  15.073 -0.2963  0.0785 -0.1676
22491W        W40015   0.336  13.174  11.727 -0.1687 -0.2463 -0.0387
22492W        W40016  17.625   2.099   4.644 -0.0442 -0.1909 -0.2390
22493W        W40017  13.969  13.933   1.832  0.0501  0.3105 -0.2104
22494W        W40018   1.148   4.645   0.059 -0.3009  0.1913 -0.0969
22495W        W40019  10.013  15.439  11.486  0.2901  0.0524 -0.1760
22496W        W40020  13.352  13.998  12.612  0.0295 -0.2903  0.2929
22497W        W40021  17.325  12.182   1.081  0.1447  0.0442  0.1415
22498W        W40022  10.351   9.584  11.835  0.1231 -0.3101 -0.0357
22499W        W40023   7.912   5.571  12.795 -0.2555 -0.0830 -0.2316
22500W        W40024  14.985  11.222   0.745 -0.0779  0.2119  0.2019
22501W        W40025  15.650  15.838   4.775  0.0934 -0.0767 -0.2067
22502W        W40026   5.810   4.995  11.653 -0.0447  0.2551  0.1955
22503W        W40027   2.121  16.011  16.291 -0.0674 -0.1060 -0.0391
22504W        W40028   6.494   6.093  14.623  0.0271  0.1977 -0.3850
22505W        W40029  12.195  17.073   4.709 -0.0448  0.2594  0.1288
22506W        W40030   9.870   2.257   3.662  0.1327 -0.0648  0.0453
22507W        W40031  16.824   1.572  10.788 -0.0301 -0.1550 -0.0276
22508W        W40032   0.028  14.025  12.790 -0.3182  0.1901 -0.1708
22509W        W40033   5.030   8.962   1.181  0.0059  0.4434  0.0732
22510W        W40034  16.305   0.490   2.346  0.3041  0.1515  0.1913
22511W        W40035   2.496  10.468   3.304 -0.2369  0.1665  0.2227
22512W        W40036   5.333  16.329  13.422  0.1019 -0.2024 -0.1121
22513W        W40037   3.031   1.594  11.882 -0.0079 -0.2444 -0.0693
22514W        W40038  14.153   1.481  14.319 -0.0757  0.1763 -0.1401
22515W        W40039  11.543   4.522  14.052  0.0966 -0.1692 -0.0939
22516W        W40040  11.916  11.444   5.879 -0.1160 -0.2650 -0.0439
22517W        W40041  14.366  15.221   2.423  0.3168 -0.1279  0.0150
22518W        W40042  17.749   3.680  12.929  0.1591  0.1841  0.0756
22519W        W40043   9.296  15.470   0.061 -0.0834 -0.0281  0.1438
22520W        W40044  17.179  16.951   4.039 -0.0934 -0.3571  0.0458
22521W        W40045  16.040   9.260  13.945  0.1704  0.1489 -0.2281
22522W        W40046   1.753   1.779  15.177 -0.1520 -0.1492  0.1760
22523W        W40047   2.625  12.228   0.480 -0.1618 -0.0551 -0.0427
22524W        W40048  13.244  14.524  12.657 -0.0811 -0.1510 -0.0008
22525W        W40049   1.405  13.594   3.870 -0.0538 -0.0151 -0.0739
22526W        W40050   8.385   0.085   3.852 -0.0927  0.0456 -0.1163
22527W        W40051   0.889   9.392   3.229 -0.0665  0.0520  0.0739
22528W        W40052   5.240  17.827   2.301  0.1465 -0.0391 -0.2966
22529W        W40053  16.743  16.026  15.316 -0.0651 -0.3895  0.1747
22530W        W40054   9.335   0.002  13.930 -0.3239  0.1869  0.3925
22531W        W40055   8.505  11.499  11.711  0.0900  0.0756 -0.0538
22532W        W40056  17.321   5.373  12.683 -0.1720  0.2498 -0.1049
22533W        W40057  13.898  14.036  14.972 -0.3510  0.0832 -0.0307
22534W        W40058   6.954   0.325  11.560  0.4378 -0.0608  0.1313
22535W        W40059   8.267  14.839   3.455 -0.2806 -0.0740  0.3905
22536W        W40060  11.509  17.411   2.031  0.0212 -0.3632 -0.1143
22537W        W40061  11.948  17.140  15.653  0.0194  0.2334 -0.0583
22538W        W40062   5.486   8.674  16.358  0.0355  0.0980 -0.2597
22539W        W40063  13.566   1.161   2.499 -0.0561 -0.1998  0.1051
22540W        W40064  13.476  13.600   2.964 -0.2599 -0.0817 -0.2467
22541W        W40065   4.807   8.746  11.422 -0.0176 -0.2058 -0.0255
22542W        W40066  14.438   2.258   0.396 -0.3372  0.2181 -0.1583
22543W        W40067  15.976  10.731   3.603  0.0167  0.0137 -0.2232
22544W        W40068  17.162   0.352  14.569 -0.0508  0.2155  0.1345
22545W        W40069  12.566  10.367  12.151 -0.0010 -0.0011  0.0771
22546W        W40070  11.131  16.563   2.338 -0.0510 -0.2376  0.1386
22547W        W40071  10.188  14.345   5.289  0.1686 -0.1205 -0.1143
22548W        W40072  12.338  15.273  13.375  0.1589  0.2446  0.0552
22549W        W40073   6.593   0.354  12.558  0.0417  0.2858  0.2617
22550W        W40074  11.455  14.425  13.258 -0.2256  0.0485  0.1774
22551W        W40075  12.281  12.067  13.567 -0.0897  0.3349 -0.1737
22552W        W40076   5.478   7.899  11.528 -0.1888 -0.1106 -0.0384
22553W        W40077   0.601   5.674  11.454  0.4825 -0.2716  0.0944
22554W        W40078   2.319  13.748  13.506  0.2711 -0.0304 -0.1722
22555W        W40079   7.504   5.981   0.283  0.0511 -0.1613 -0.1871
22556W        W40080  14.880   7.777   2.948 -0.1311  0.0323  0.1187
22557W        W40081   8.767   3.997   0.567 -0.0316  0.3152  0.6222
22558W        W40082   9.117  16.996  11.959 -0.4332  0.3180 -0.3500
22559W        W40083  14.349  17.217  13.689 -0.1238  0.0284 -0.1013
22560W        W40084  12.854   6.546  12.985  0.2428  0.0458 -0.0771
22561W        W40085   4.169  10.389  13.379  0.1491  0.1263  0.2126
22562W        W40086  13.084   7.423  15.314  0.1861  0.5238  0.3787
22563W        W40087   0.498  11.280  13.756  0.1435  0.2134  0.0232
22564W        W40088  14.392  12.707  15.558  0.0581  0.1546  0.0510
22565W        W40089   3.581   7.243   1.855 -0.0351  0.2196  0.1343
22566W        W40090  11.589   6.919   0.594 -0.2771  0.3099 -0.1007
22567W        W40091  12.483   2.012   2.122 -0.2326 -0.1261  0.0073
22568W        W40092   7.299  14.401  12.298 -0.0975  0.2884  0.1158
22569W        W40093  15.849   2.080  15.837  0.0190  0.0386 -0.0765
22570W        W40094   7.561  17.507  11.877  0.2743  0.1335 -0.1944
22571W        W40095   7.022   1.190  13.628  0.0309  0.2063 -0.2065
22572W        W40096   4.313  11.441   4.570  0.0980 -0.2409  0.0455
22573W        W40097  10.309  15.092   2.336 -0.2887 -0.0290 -0.1634
22574W        W40098   4.632   7.588  13.392  0.0234  0.0802  0.0119
22575W        W40099   7.502  15.515   0.576 -0.1195  0.0563  0.0346
22576W        W40100  13.517  11.395  16.097 -0.0214  0.1980  0.0517
22577W        W40101   3.680  12.539  15.780 -0.0751 -0.1087  0.3869
22578W        W40102   6.371   9.954   5.069  0.1960  0.3423  0.1131
22579W        W40103   5.014   5.339  14.118  0.1011 -0.1137  0.4337
22580W        W40104  14.815   2.453   0.034  0.0990  0.1810 -0.1271
22581W        W40105  13.567   4.898   4.065  0.0499 -0.1114 -0.2712
22582W        W40106   1.820   1.871  13.271 -0.2371 -0.0808 -0.1375
22583W        W40107  10.068  16.149  14.977  0.0660 -0.1710 -0.0973
22584W        W40108  10.742   1.895   4.252 -0.3391  0.1498 -0.0764
22585W        W40109  15.817  17.259  13.759  0.0001  0.1163  0.1528
22586W        W40110   3.741  10.817  14.466 -0.0055  0.1239  0.0439
22587W        W40111  14.940  15.531  15.768 -0.1796 -0.0110 -0.0248
22588W        W40112  12.270  13.086   5.290 -0.3278  0.1853 -0.0221
22589W        W40113   8.514  13.346  14.771 -0.0312  0.1395  0.3496
22590W        W40114  12.131   8.147   0.079 -0.0433 -0.1508  0.2452
22591W        W40115  11.692   3.892   2.543 -0.1011  0.1363 -0.1086
22592W        W40116  12.711  15.584   4.304 -0.0927  0.1840 -0.0568
22593W        W40117  12.946  10.410   3.579  0.0109  0.3031 -0.1699
22594W        W40118   9.316  12.300  15.033 -0.0150 -0.3955  0.4193
22595W        W40119   1.113  17.540  13.964 -0.1517  0.1916 -0.2974
22596W        W40120   4.684   1.881  11.549  0.0267 -0.1345 -0.0996
22597W        W40121   6.028   9.159  14.348  0.0143 -0.0196 -0.0526
22598W        W40122   1.100  14.887   1.143  0.1889  0.0658  0.2835
22599W        W40123   5.084   8.811  11.917  0.1029  0.2402 -0.1431
22600W        W40124  12.253  13.641  12.633 -0.1694 -0.0405 -0.4451
22601W        W40125  14.659   4.484   0.680  0.0678 -0.2542 -0.0320
22602W        W40126  10.125   9.424   1.760  0.0244 -0.0627  0.2276
22603W        W40127   0.477   8.046  15.065  0.0308 -0.0748  0.3918
22604W        W40128  16.838  14.122  15.304  0.2003  0.1204  0.2132
22605W        W40129   5.066   7.727  13.751 -0.0188  0.3160 -0.0284
22606W        W40130  13.536  10.701   4.169 -0.1815 -0.2390  0.1074
22607W        W40131   9.826  17.264  14.138 -0.2777 -0.0392 -0.0584
22608W        W40132   6.106   1.836  15.886 -0.2213 -0.2452 -0.1691
22609W        W40133  10.165   2.007   1.496 -0.0088 -0.2763 -0.1765
22610W        W40134   4.225   9.894   2.542  0.0503 -0.0041  0.1782
22611W        W40135  11.929   8.880   0.932 -0.3384  0.0075  0.3165
22612W        W40136  17.135   6.343  12.411 -0.0949  0.0356  0.1728
22613W        W40137   5.839  10.390   2.453  0.1581 -0.4188 -0.3658
22614W        W40138  11.898  17.689   4.165  0.0141 -0.0416  0.2727
22615W        W40139  12.790   2.440   2.381 -0.4577 -0.3043  0.2622
22616W        W40140  12.165  16.345  15.190  0.0664 -0.0142 -0.0286
22617W        W40141   4.577   2.195  15.111 -0.0910  0.1419  0.2170
22618W        W40142  14.732   0.743   0.722 -0.0479 -0.0602  0.0455
22619W        W40143   9.870   2.857   3.600  0.7451  0.0901  0.0338
22620W        W40144   4.966  15.124   1.881 -0.2062 -0.0157 -0.3361
22621W        W40145   4.139   7.332  15.159  0.1118 -0.1749 -0.0785
22622W        W40146   9.262   5.312  11.122 -0.0478  0.1816  0.0098
22623W        W40147   5.508   7.281   0.524  0.1492 -0.0125  0.3696
22624W        W40148   0.580  10.213  16.091  0.2641  0.1968 -0.1522
22625W        W40149   0.825  12.172   1.135  0.1863  0.0608  0.0004
22626W        W40150  10.215  10.501  12.737 -0.2062 -0.0135 -0.0220
22627W        W40151  11.250   0.747   3.579 -0.0940  0.1870 -0.1048
22628W        W40152   4.276   2.733  11.241 -0.1428  0.1386 -0.1187
22629W        W40153  15.030   8.000   0.954 -0.1937  0.1169  0.2100
22630W        W40154  17.931   2.637   2.484  0.0683 -0.0498  0.1482
22631W        W40155  13.904   5.007   4.828 -0.0802  0.0467  0.3941
22632W        W40156  16.109  14.656  11.737  0.0565  0.2015 -0.3035
22633W        W40157   2.769  13.877  15.549 -0.3779  0.1399  0.2579
22634W        W40158  10.423   5.537   2.108 -0.3193 -0.1335  0.2211
22635W        W40159   1.691  13.215  15.026  0.0907 -0.1319  0.1357
22636W        W40160   8.510  12.543  14.172 -0.1076 -0.0594 -0.0228
22637W        W40161   6.288  15.488   0.085 -0.2538  0.2136 -0.1090
22638W        W40162  10.583   4.808  14.682  0.1336  0.2047 -0.1429
22639W        W40163  11.742  15.106  14.842 -0.2772  0.4022 -0.0836
22640W        W40164  10.103  17.307   4.572  0.2250 -0.1143 -0.4544
22641W        W40165  12.847   0.410   1.901  0.1012 -0.0703  0.1164
22642W        W40166   1.053  11.123   2.491 -0.1725 -0.1663 -0.1103
22643W        W40167   8.861   4.758  16.110  0.1441 -0.0010 -0.1543
22644W        W40168   6.538   5.692   5.347  0.2730  0.2777 -0.0227
22645W        W40169   8.314   0.069  13.879 -0.2179 -0.0988  0.4381
22646W        W40170   8.371  11.229  15.103  0.4207 -0.0379  0.2938
22647W        W40171  10.513  16.882   1.480  0.2534 -0.0905  0.1935
22648W        W40172  11.587   8.195  14.485  0.0983 -0.0072  0.3673
22649W        W40173  17.164  11.407   2.271 -0.0453 -0.2122  0.1709
22650W        W40174  16.617   7.400  13.317 -0.1972 -0.0142 -0.1163
22651W        W40175   0.841  12.635   1.710 -0.0775 -0.0519 -0.2073
22652W        W40176  13.371   7.947  14.717  0.1033 -0.0643 -0.1297
22653W        W40177  13.139  12.180   3.299  0.0228  0.1489 -0.0082
22654W        W40178   6.066   0.093   0.530  0.2508  0.0811 -0.4636
22655W        W40179   7.138   2.352  14.778  0.2130 -0.2138 -0.0532
22656W        W40180  15.067   4.079  11.161  0.0793  0.2196 -0.0278
22657W        W40181  10.281   2.769   1.032  0.2446 -0.3212 -0.2415
22658W        W40182  17.776  17.386   3.167 -0.1696  0.0572  0.2682
22659W        W40183  13.705   1.817  15.057  0.1629  0.1360  0.0482
22660W        W40184   7.615   5.105  12.157 -0.1628 -0.0745  0.0288
22661W        W40185  13.126   0.878  10.695  0.2631  0.2219  0.2432
22662W        W40186  14.693  12.232  15.802  0.2263  0.1015  0.0765
22663W        W40187   0.309   6.949  15.709  0.1655  0.0672  0.0326
22664W        W40188   6.022  16.965  13.882 -0.5271  0.1000 -0.4401
22665W        W40189  17.379  17.296   4.360  0.0702 -0.1450 -0.1760
22666W        W40190   3.683   0.498  14.061 -0.0444 -0.0257 -0.0110
22667W        W40191   1.963   6.028  15.181  0.1737 -0.2196  0.1074
22668W        W40192  13.319   8.715   3.829  0.2007  0.1591  0.2213
22669W        W40193   6.128   8.308  16.232  0.2174 -0.1150  0.2246
22670W        W40194   2.849   6.301  16.085 -0.0107 -0.0335 -0.2889
22671W        W40195  17.919   7.695   2.402  0.2838  0.2997 -0.3212
22672W        W40196   7.821  12.509  16.001 -0.3725 -0.2066  0.2444
22673W        W40197  17.864  15.847  11.835 -0.0466  0.0388  0.2386
22674W        W40198  12.015  16.203   2.240  0.0796  0.0133  0.0334
22675W        W40199   0.185   1.911   3.748  0.0412  0.1290  0.2327
22676W        W40200   7.000   5.051   4.696  0.4791  0.1654 -0.0568
22677W        W40201  15.238   6.819   3.154  0.1576  0.1162 -0.2675
22678W        W40202  11.987  14.732   4.827 -0.0379  0.1525  0.1373
22679W        W40203   1.727  12.898  15.736 -0.0732  0.0626 -0.0901
22680W        W40204   0.728  10.220   2.820 -0.2798  0.1253 -0.0017
22681W        W40205  11.378   0.208   4.929  0.1580 -0.0431 -0.1267
22682W        W40206   9.377   5.155  14.337  0.3076 -0.1338  0.0278
22683W        W40207   4.776  14.503  12.230  0.4487 -0.1085 -0.0092
22684W        W40208  10.887  10.882  15.231  0.4557  0.2256 -0.2775
22685W        W40209  15.263  12.379  15.806 -0.1606 -0.2065  0.0160
22686W        W40210  11.085   2.831  11.809 -0.2565  0.0678 -0.1802
22687W        W40211   3.256   9.187  11.680  0.0840 -0.1597 -0.0333
22688W        W40212  10.409  12.848   3.105  0.0438  0.0713  0.1465
22689W        W40213  13.388   2.390   4.491 -0.0520  0.0109  0.1149
22690W        W40214   0.020   5.591   4.844  0.1921 -0.0966 -0.1614
22691W        W40215   1.635   8.108  14.304 -0.2985  0.0396 -0.0293
22692W        W40216  16.826  11.463  15.229 -0.2738 -0.0727  0.0812
22693W        W40217   5.776   4.385  12.389  0.0645 -0.0024  0.0464
22694W        W40218   5.852  11.973   0.948  0.0570 -0.0555  0.1292
22695W        W40219  16.131   5.158  15.823  0.2133  0.2930  0.1218
22696W        W40220   2.872   2.441  10.244 -0.1005 -0.1161 -0.0228
22697W        W40221   6.126   8.290  14.161 -0.0020  0.1314 -0.2097
22698W        W40222   7.896  15.006  12.570 -0.1560  0.0978 -0.1980
22699W        W40223  15.966   9.720   9.940 -0.0583  0.1918  0.2472
22700W        W40224   5.839   9.366  13.393 -0.0128 -0.0999  0.0122
22701W        W40225  17.968  16.917   4.836  0.1860 -0.0090  0.0698
22702W        W40226   7.579  16.982   2.111 -0.0058  0.1046  0.2394
22703W        W40227  11.567  15.434   4.578  0.1021 -0.2331 -0.0909
22704W        W40228  13.264  13.833  13.122  0.0690  0.0667  0.0685
22705W        W40229   5.993   7.932   2.554  0.0808 -0.0452  0.0505
22706W        W40230   2.076   7.669   4.029 -0.1527  0.1546 -0.2920
22707W        W40231  11.257  17.076   2.646  0.3601 -0.1349 -0.2665
22708W        W40232  16.393   0.259   0.261  0.1382 -0.0171  0.1435
22709W        W40233   9.690  12.537  15.200  0.0706 -0.0580 -0.1015
22710W        W40234   1.423  14.294  14.238 -0.2260 -0.2840  0.2971
22711W        W40235  12.655   9.706   2.725 -0.1393  0.0362 -0.0687
22712W        W40236  16.589   3.003   1.896  0.1800  0.2446 -0.1484
22713W        W40237   4.835   0.814  12.183  0.2304  0.2649  0.2090
22714W        W40238  16.449  12.499   4.431  0.1758  0.0282  0.3975
22715W        W40239  17.282   6.286   3.330 -0.0594 -0.3965 -0.0752
22716W        W40240   7.393   2.923   3.999 -0.1014 -0.1039  0.0998
22717W        W40241   4.753   2.835   2.607  0.2996  0.2786 -0.2921
22718W        W40242  12.567  15.148   5.523 -0.0926 -0.5019 -0.0166
22719W        W40243   2.994  11.408   2.001 -0.2767  0.1812  0.2865
22720W        W40244  14.001   1.977   5.358 -0.0698  0.2026  0.4109
22721W        W40245  17.689  10.845   0.511  0.0394 -0.0577  0.0438
22722W        W40246   7.661   2.304   5.194 -0.0851  0.0551  0.2559
22723W        W40247  14.998   6.118  13.214 -0.2564 -0.3277  0.0240
22724W        W40248  15.229   9.288  13.521  0.1375 -0.1512  0.1627
22725W        W40249  14.263  10.161  11.360 -0.0237  0.0442  0.2383
22726W        W40250   5.602   4.177  12.823 -0.0388 -0.1923 -0.1708
22727W        W40251   8.877   7.522  12.300  0.0864 -0.3263 -0.1637
22728W        W40252   8.713   3.104   2.853  0.1944  0.5059  0.1670
22729W        W40253   1.827   7.137  12.386  0.2093 -0.1299  0.5488
22730W        W40254  17.539  15.712   3.552  0.0381 -0.2320  0.0576
22731W        W40255  14.680  13.871  12.198 -0.0608 -0.0224 -0.1082
22732W        W40256  14.855   1.611   4.384 -0.1646 -0.1330  0.3517
22733W        W40257   5.269   9.113   0.242 -0.1756  0.2328 -0.0934
22734W        W40258   2.280  14.473  14.600  0.1548 -0.0379 -0.0113
22735W        W40259   7.592   2.615   2.784  0.1436  0.3266 -0.0371
22736W        W40260   9.221  16.787  13.736 -0.0933 -0.2714 -0.0487
22737W        W40261  12.427   9.788   0.004 -0.2202 -0.0414 -0.2262
22738W        W40262   6.480   2.700   3.622  0.1110  0.2040 -0.0064
22739W        W40263  15.757   7.376   2.618  0.0089  0.1685 -0.2446
22740W        W40264  16.454   8.383  14.850 -0.0734  0.1539  0.0491
22741W        W40265   7.614  13.965  12.224 -0.1209 -0.2209 -0.1659
22742W        W40266  13.261  12.322   2.534 -0.1615  0.0355  0.1030
22743W        W40267  12.617  11.719  13.571  0.0701  0.1765  0.2240
22744W        W40268   9.753   2.704  13.100  0.1268  0.0230  0.0348
22745W        W40269  10.772  14.822  13.669 -0.1067  0.1894  0.2504
22746W        W40270  13.660   3.828   4.117  0.0417 -0.0269 -0.1060
22747W        W40271  15.429  13.817  15.846  0.1767 -0.1203 -0.0928
22748W        W40272   3.675   9.514   1.836 -0.1052 -0.1766 -0.2304
22749W        W40273  17.058   9.934  15.088 -0.0699  0.0502  0.0280
22750W        W40274  15.944  17.694   1.014 -0.0985  0.0480 -0.3532
22751W        W40275   6.632   6.358  16.118  0.1903 -0.1920 -0.1252
22752W        W40276   4.269   9.562   4.682 -0.1113  0.0169 -0.2561
22753W        W40277   3.995   0.516   2.947 -0.0354  0.2955  0.2613
22754W        W40278  14.340  13.303  15.502  0.0821 -0.0366  0.1006
22755W        W40279   7.336   0.782  13.497  0.0482  0.3814  0.2723
22756W        W40280   3.086  12.941   0.937 -0.0487 -0.1927 -0.2051
22757W        W40281  12.127   3.752   2.471  0.0283  0.0160 -0.2895
22758W        W40282   9.906   6.383  14.028 -0.2252  0.0343 -0.0237
22759W        W40283  12.211  13.614   1.550 -0.1789 -0.1308  0.1666
22760W        W40284  14.732  12.465   2.582  0.1218 -0.2635  0.0698
22761W        W40285   9.758   4.903  14.814 -0.2028 -0.1725  0.0114
22762W        W40286   8.865   6.258  15.516  0.0079  0.0793 -0.3089
22763W        W40287   6.588   4.205   1.502 -0.0679  0.0358 -0.0115
22764W        W40288   4.119   4.912   1.205  0.0913 -0.1595 -0.3951
22765W        W40289   1.687   3.597  14.174 -0.0264 -0.0052 -0.0979
22766W        W40290  12.166  10.424  14.558 -0.3020 -0.0912  0.2772
22767W        W40291   7.191   6.849   1.312  0.0675  0.0980  0.1764
22768W        W40292   7.959  10.931  11.591 -0.1756 -0.2677  0.2484
22769W        W40293  17.098   2.958  14.939 -0.2426  0.1300  0.0054
22770W        W40294   7.395   4.306   2.664 -0.1584 -0.2309 -0.2114
22771W        W40295   8.209  16.219   3.328 -0.1430  0.3268  0.2354
22772W        W40296  13.609   7.370   5.296  0.1553  0.2794  0.1408
22773W        W40297   9.834  14.444   1.553  0.0127 -0.2084 -0.1942
22774W        W40298  10.528  12.524   1.204  0.1054  0.0061 -0.1168
22775W        W40299  14.185   9.496  13.421  0.2584  0.0654  0.2450
22776W        W40300   4.186   4.369  12.936  0.0427 -0.0715  0.2053
22777W        W40301  14.791  10.908  15.869  0.1135 -0.0187  0.1153
22778W        W40302  16.650   7.987  14.510  0.1218  0.0536 -0.1936
22779W        W40303   0.328   5.872  15.810  0.0487 -0.1931  0.1348
22780W        W40304   9.092   9.583  13.369  0.1844  0.0793  0.2099
22781W        W40305   5.143  16.435   1.816  0.1134 -0.1990 -0.1176
22782W        W40306   2.150   9.562   4.397 -0.1017 -0.2311  0.0453
22783W        W40307   7.166  12.885  13.482 -0.0045  0.0206 -0.0411
22784W        W40308   6.850   5.931  16.045 -0.2073  0.2297 -0.3391
22785W        W40309   2.009   3.308  13.303  0.2641 -0.0104 -0.0450
22786W        W40310   2.600  10.166  13.206 -0.1022 -0.0672 -0.2540
22787W        W40311  14.731   4.550   2.263 -0.2393  0.0918 -0.1785
22788W        W40312   8.170  12.065  11.845 -0.1471 -0.0586 -0.1533
22789W        W40313   3.968   3.879  12.111  0.0119  0.2019 -0.0980
22790W        W40314  10.299   9.357  15.241  0.3519 -0.0665  0.1086
22791W        W40315  11.630  17.463   2.992  0.0371 -0.0752  0.0171
22792W        W40316  11.864  10.630  13.207 -0.0341 -0.3363  0.0561
22793W        W40317  13.252  11.442  15.124  0.0803  0.1114 -0.0436
22794W        W40318   3.719   5.965  11.488  0.0924 -0.2449 -0.0680
22795W        W40319   8.955  14.117   0.095  0.3249 -0.0821  0.2981
22796W        W40320  10.713  17.769  11.697 -0.0370 -0.2403  0.0136
22797W        W40321   1.499  13.189   4.171  0.2900  0.3166 -0.0528
22798W        W40322  10.000  13.903   1.944  0.1247 -0.1017  0.1363
22799W        W40323   7.346   1.519   2.882  0.3323  0.1769 -0.0386
22800W        W40324  10.837   0.988  11.000  0.1683  0.0031 -0.3978
22801W        W40325   4.096  17.117   2.935 -0.3035 -0.3722 -0.1386
22802W        W40326   5.418   9.793   1.908  0.3000  0.0371  0.0685
22803W        W40327  14.265  12.381   0.961  0.1810  0.0111 -0.1697
22804W        W40328  16.202   2.822  12.316 -0.0671  0.1704  0.1689
22805W        W40329   6.086   7.610   5.288  0.1060 -0.4052 -0.1392
22806W        W40330   0.242  11.523   3.782 -0.1034 -0.1078 -0.4050
22807W        W40331   9.747   0.924   3.512  0.2125  0.0590 -0.2037
22808W        W40332  13.592   6.507  16.245 -0.0449  0.1342 -0.0200
22809W        W40333   6.177   6.601  12.946  0.2031 -0.0442  0.0277
22810W        W40334  17.042  14.212  13.612 -0.0351  0.2548 -0.0091
22811W        W40335  15.830  12.243  15.360  0.3117 -0.0318  0.0647
22812W        W40336  12.150  17.233   3.283  0.0974  0.1874 -0.0782
22813W        W40337   8.180   7.545   4.074 -0.0757  0.4160  0.0770
22814W        W40338   1.706  15.712   1.147  0.2956  0.0823  0.0629
22815W        W40339   6.059   3.602  10.655 -0.0810 -0.0026  0.1645
22816W        W40340  11.402   7.494  16.242  0.3791  0.1976 -0.2066
22817W        W40341   0.912  14.905   4.430 -0.1912  0.2255 -0.2468
22818W        W40342  13.253   9.491   1.578 -0.0219  0.2957  0.0139
22819W        W40343  16.505  17.038  15.574  0.1438 -0.3645 -0.0150
22820W        W40344   4.089   4.982  12.371 -0.1795 -0.0205 -0.3713
22821W        W40345  15.187  10.127  15.302  0.0614  0.0193  0.1029
22822W        W40346  10.447   4.090   2.411 -0.0004 -0.1353 -0.0538
22823W        W40347   3.257   6.259  13.378  0.1667 -0.0897 -0.1034
22824W        W40348   1.511  14.578  13.477  0.0870 -0.2521  0.1989
22825W        W40349   4.554  15.957  13.694  0.1331  0.0528  0.1119
22826W        W40350   5.173  10.627   1.779 -0.0556  0.0480  0.2195
22827W        W40351   8.832   9.157  13.387  0.3202  0.1207  0.2491
22828W        W40352  11.836  14.992  12.073  0.0350 -0.2762  0.3398
22829W        W40353  13.005   2.027  16.210 -0.2001  0.1186 -0.0752
22830W        W40354   9.380   9.863   1.358  0.1373  0.0867 -0.2194
22831W        W40355   0.971   0.050   4.603  0.0839  0.0083 -0.0584
22832W        W40356   0.213   9.857  14.547  0.0775  0.0069 -0.0754
22833W        W40357   1.230   3.696   3.742  0.1445 -0.0433  0.0169
22834W        W40358  11.601   0.793   2.307  0.2883  0.3212  0.0926
22835W        W40359   4.457  16.525   3.643 -0.1314  0.2883 -0.1319
22836W        W40360   4.863  17.296  12.547 -0.2060 -0.1204 -0.0869
22837W        W40361   7.974   3.811   0.862  0.2517 -0.0604 -0.3621
22838W        W40362   8.407   0.378   4.245  0.1215 -0.4786  0.0113
22839W        W40363  12.429   6.637   4.537  0.2172 -0.0127 -0.3109
22840W        W40364   3.904   9.806  11.337  0.1385  0.0866  0.0818
22841W        W40365  14.856   7.989  11.808  0.1875  0.0852  0.2781
22842W        W40366   6.990   8.107  15.419  0.0772  0.1199 -0.3052
22843W        W40367   6.154  13.857   0.952 -0.0255  0.0335 -0.0203
22844W        W40368  12.631  17.870  15.704 -0.4418 -0.0898 -0.1456
22845W        W40369  17.799   6.764   2.576 -0.1088  0.0448  0.2133
22846W        W40370   3.841   7.947  14.545 -0.2507 -0.1081  0.0275
22847W        W40371  13.167   5.993  11.694  0.0737  0.2221  0.0425
22848W        W40372   7.141  14.680   2.829  0.1867  0.2087  0.0057
22849W        W40373  12.049  13.220  14.678 -0.0271  0.2524 -0.0984
22850W        W40374   9.408  15.416  15.306  0.0505  0.1381  0.1036
22851W        W40375  12.947   5.986  15.002  0.1114  0.3805  0.0552
22852W        W40376   7.433  10.279   1.222  0.1144  0.0741 -0.3077
22853W        W40377   9.549  16.914  12.260 -0.3918  0.0553  0.5653
22854W        W40378   9.987  17.951   4.615  0.1560  0.0903 -0.0856
22855W        W40379  17.143   8.768  14.196  0.0245  0.1736  0.0663
22856W        W40380  16.787  15.136   2.098  0.2263 -0.0187  0.2905
22857W        W40381  15.674  16.511   5.512 -0.2705 -0.1434 -0.1821
22858W        W40382  17.871   1.604  13.249 -0.1024  0.0080  0.1077
22859W        W40383  11.450   0.832   4.396  0.2599 -0.1327  0.1271
22860W        W40384   8.372   1.580  13.441  0.0549 -0.2983  0.1423
22861W        W40385  14.497   7.860  15.588 -0.0634  0.1263  0.1760
22862W        W40386  17.627   1.747  15.063  0.0436 -0.0486  0.0448
22863W        W40387  12.249   1.072   4.193  0.2420 -0.2385 -0.0679
22864W        W40388   3.439   6.259   0.294  0.1345 -0.1002  0.0441
22865W        W40389  16.467   5.130   4.732 -0.2254  0.0599  0.2437
22866W        W40390  16.272   6.546  11.462 -0.0909  0.1127 -0.1584
22867W        W40391   1.405  16.860   2.075  0.1731  0.1813 -0.0358
22868W        W40392   8.614  13.838  12.486  0.1150  0.0886 -0.1326
22869W        W40393   9.175  16.633   1.830  0.1552  0.1257 -0.1813
22870W        W40394  14.754  15.097  16.225  0.0008 -0.0797 -0.0664
22871W        W40395  11.903   2.822  11.625  0.3177  0.1835 -0.0259
22872W        W40396  10.055   3.520  13.591 -0.0689 -0.4996  0.5483
22873W        W40397   4.498  16.789   3.223 -0.2581  0.1386  0.0354
22874W        W40398   0.312  17.335   4.959  0.1960 -0.3978  0.2746
22875W        W40399   2.605  15.187  13.922 -0.1090  0.2769 -0.1572
22876W        W40400   3.757  10.157  11.860 -0.3059  0.1288 -0.0753
22877W        W40401   6.406  10.581  15.875 -0.1607  0.0618  0.3546
22878W        W40402  11.047   4.771   4.581 -0.0373 -0.0027  0.0462
22879W        W40403   2.088  15.144  13.855 -0.0191  0.3947  0.1377
22880W        W40404   3.769  17.059  11.611 -0.2245  0.3197  0.0806
22881W        W40405  11.679   4.054  12.062  0.2225 -0.1598 -0.1673
22882W        W40406   8.784   5.584  15.482  0.0505  0.4503 -0.2825
22883W        W40407   6.452   5.637  13.164  0.1548  0.1753  0.0738
22884W        W40408  11.480  10.419   2.230 -0.0963  0.0170  0.1372
22885W        W40409   7.911   4.414  14.060  0.0347  0.1576 -0.3091
22886W        W40410   8.576  14.669   4.732 -0.2584  0.1099  0.1454
22887W        W40411   1.571  15.111  13.430  0.1675  0.0234  0.1072
22888W        W40412   7.041  12.797  14.823 -0.2627  0.2446  0.0466
22889W        W40413  10.484  17.593  15.171 -0.1616  0.0880  0.0574
22890W        W40414  16.032   3.123   2.000  0.0936 -0.1105  0.0701
22891W        W40415   8.105   4.551   1.647  0.3285  0.2231 -0.3995
22892W        W40416   6.036  15.596  14.129 -0.1064  0.2453 -0.0286
22893W        W40417  16.045   2.564  11.796 -0.0066 -0.2059 -0.1168
22894W        W40418  12.530   5.504  14.013  0.0297 -0.1763  0.2586
22895W        W40419  17.383   6.044   2.797 -0.0410 -0.2656 -0.3115
22896W        W40420   9.202   7.816   1.683 -0.1550 -0.2158  0.2621
22897W        W40421  12.531  17.504   0.474  0.0658 -0.0479  0.0474
22898W        W40422  15.078  15.202   4.460 -0.2090 -0.1186  0.1994
22899W        W40423   1.444   6.041  11.667  0.1950  0.1097 -0.1056
22900W        W40424   6.710   9.061   2.509 -0.2921  0.1128  0.0568
22901W        W40425  14.552   1.332   1.678 -0.0218 -0.1202 -0.1044
22902W        W40426   9.483  11.545   1.053  0.1254 -0.1409  0.2354
22903W        W40427   8.147  13.867   1.672  0.2834  0.2222 -0.0029
22904W        W40428   7.699  14.883   4.892  0.0341 -0.0549 -0.3408
22905W        W40429   9.041  10.968   3.409  0.0156 -0.0788  0.0973
22906W        W40430  16.388   1.784  13.440  0.4742 -0.1065  0.0080
22907W        W40431   1.977  10.585  15.734  0.0975  0.1053  0.0979
22908W        W40432  13.056  14.465   3.309 -0.1608  0.2126 -0.3567
22909W        W40433   4.644   0.277   3.511 -0.2666  0.2130  0.1246
22910W        W40434   7.423   3.897  14.540  0.1117 -0.0195  0.1128
22911W        W40435  12.438   9.164  11.829  0.2298 -0.4356  0.3001
22912W        W40436  16.965   1.400   4.908  0.1375 -0.2105  0.0974
22913W        W40437   9.496  16.823  16.328  0.3653 -0.0110 -0.0716
22914W        W40438   0.564   2.432  14.001  0.1698  0.0751  0.3249
22915W        W40439   3.903   4.856   4.710 -0.1791 -0.3239 -0.0904
22916W        W40440  16.246   7.672  16.195 -0.1084  0.0788  0.3648
22917W        W40441   6.723   5.810  12.369 -0.0745  0.0078  0.0178
22918W        W40442  10.884  16.390  16.143  0.2355 -0.0294 -0.0045
22919W        W40443   3.863  17.612   4.101  0.1088 -0.3234  0.1777
22920W        W40444   0.563   0.709  12.880 -0.1257  0.3019  0.0989
22921W        W40445   3.243   4.735  14.756 -0.1011 -0.1187 -0.1265
22922W        W40446  12.022  15.138  12.967 -0.1383  0.2052 -0.1131
22923W        W40447  15.744   8.988   4.580 -0.2730 -0.2074 -0.1685
22924W        W40448   4.947   4.892  14.363 -0.2460 -0.0550  0.1714
22925W        W40449   8.044   1.780  15.783  0.0213  0.0506  0.0829
22926W        W40450  14.018   7.890   1.625  0.1073 -0.0808  0.1559
22927W        W40451   6.635  11.921   4.680  0.0116  0.1300  0.2197
22928W        W40452  11.081   0.054  12.648 -0.0929 -0.4127 -0.1110
22929W        W40453  13.597  10.283   4.475 -0.1132 -0.3915  0.2829
22930W        W40454  16.205   1.791   2.849  0.0102 -0.1873 -0.0473
22931W        W40455   9.307   4.836   4.495 -0.2258  0.1354 -0.0438
22932W        W40456   6.347   7.647   3.815 -0.4978  0.3556 -0.0729
22933W        W40457  12.718   7.624   3.946  0.2146 -0.1496  0.0161
22934W        W40458   0.184   9.812   2.133  0.3395  0.0649 -0.1924
22935W        W40459   6.399   1.849   0.919 -0.0489  0.0381  0.0828
22936W        W40460   1.356  13.492   5.051 -0.0381 -0.0954  0.0988
22937W        W40461   6.415   8.927  13.531  0.0156  0.2496 -0.0190
22938W        W40462  15.009   5.232   1.276  0.2042 -0.0044 -0.2639
22939W        W40463  15.675  14.889   2.376 -0.1413 -0.2517  0.2249
22940W        W40464   0.563   1.490   2.029 -0.3489  0.4370  0.2778
22941W        W40465  14.824   3.438   0.081 -0.1252  0.3366  0.1904
22942W        W40466   4.635   7.820  12.946  0.0359 -0.0156 -0.0743
22943W        W40467   2.084   2.441   4.717 -0.1167  0.0009 -0.2997
22944W        W40468   0.428   0.037   4.703 -0.0636 -0.0746 -0.1688
22945W        W40469   7.702   0.451   1.815  0.1651  0.1240 -0.0900
22946W        W40470  12.569  12.297   1.209 -0.3343 -0.0059  0.0517
22947W        W40471   9.696   9.670  14.411  0.1900  0.0016  0.1794
22948W        W40472   9.789   5.854   0.667  0.0018  0.0650  0.2792
22949W        W40473   4.282   7.812   3.380  0.0346 -0.1036 -0.1565
22950W        W40474  16.710  15.441   4.703 -0.0586 -0.1576 -0.1676
22951W        W40475  11.827   5.463  12.321 -0.1239 -0.3014 -0.1104
22952W        W40476   6.398  16.207   1.920  0.1638 -0.0566 -0.1695
22953W        W40477   8.277   1.860   4.678 -0.5057  0.0067  0.1238
22954W        W40478   1.718   0.665  14.360  0.4831  0.0075  0.1806
22955W        W40479   6.320   8.991   2.880 -0.1841  0.3021 -0.0245
22956W        W40480   9.275   2.335   3.049 -0.0125 -0.1236 -0.0191
22957W        W40481   3.626   3.282   1.481  0.3888  0.4498 -0.1342
22958W        W40482  10.369   3.344  11.096  0.0137  0.0762  0.0417
22959W        W40483  10.539   7.326   1.422  0.2425 -0.1001 -0.0257
22960W        W40484  17.821   5.425   2.135  0.1845 -0.5394  0.0804
22961W        W40485   4.640   3.426   4.180 -0.3009  0.0171  0.3250
22962W        W40486   8.058   3.785   0.413  0.0387 -0.0860  0.1126
22963W        W40487   1.556  14.777  15.820  0.1791  0.0828 -0.1204
22964W        W40488  11.986   4.444  13.319 -0.0260 -0.0402  0.3189
22965W        W40489  17.016  13.035  14.564  0.0450  0.0432 -0.1576
22966W        W40490  16.167  14.358  16.262  0.2556  0.1258 -0.0170
22967W        W40491   1.221  11.483   4.711  0.1397 -0.1715  0.4124
22968W        W40492   9.797   4.815  12.947  0.1175 -0.2005 -0.0709
22969W        W40493   6.039   6.809  12.484  0.3298 -0.0349 -0.1737
22970W        W40494   4.017  13.142   4.970  0.5091 -0.2977  0.1667
22971W        W40495   0.372  17.072   0.640  0.2140 -0.0578  0.3908
22972W        W40496  16.478  11.909   4.422  0.2232  0.0604 -0.1378
22973W        W40497  15.380   8.544  11.300  0.1867 -0.2661  0.1858
22974W        W40498   9.926   4.825  12.059  0.0683  0.2100 -0.0946
22975W        W40499  11.294   0.239  14.366 -0.0145  0.1451  0.0478
22976W        W40500  16.601   4.301   0.972 -0.0089 -0.0975  0.0023
22977W        W40501   7.585  10.371   0.695  0.1349 -0.1610 -0.0125
22978W        W40502   8.311  12.762   1.672  0.1633 -0.1984 -0.0071
22979W        W40503  14.778   1.157  11.772 -0.1701  0.1955  0.1566
22980W        W40504   9.303  14.786  15.176 -0.0705 -0.0798 -0.2269
22981W        W40505  13.179   3.153   5.905 -0.1553  0.1604 -0.2237
22982W        W40506  13.088   5.135  12.075 -0.0398 -0.2966 -0.0746
22983W        W40507  10.141   9.698  12.425 -0.3359 -0.3625 -0.4112
22984W        W40508  16.276  12.681  14.762 -0.0924 -0.2050  0.0202
22985W        W40509  14.424   2.121  12.352  0.2458 -0.3577 -0.1402
22986W        W40510   3.127  16.854  13.410  0.0220 -0.2737 -0.2995
22987W        W40511   2.490   2.970   0.539  0.1936 -0.1972  0.1216
22988W        W40512   2.035   9.580  14.708 -0.2463 -0.1991 -0.0239
22989W        W40513   7.862   4.827  11.516 -0.0282  0.3155 -0.0327
22990W        W40514  13.459   1.981   1.550  0.0784  0.0289  0.1640
22991W        W40515  16.086   8.029   0.964 -0.3907  0.2948 -0.1772
22992W        W40516  17.751  13.700   2.132  0.3025 -0.1412  0.2072
22993W        W40517   5.492   0.840   0.814 -0.1133 -0.0191 -0.2070
22994W        W40518   5.361  12.210   2.735  0.0773 -0.3316 -0.2680
22995W        W40519   9.809  12.329  12.524 -0.3555 -0.2225  0.1131
22996W        W40520  13.363   7.813  16.105 -0.1178 -0.0621  0.0137
22997W        W40521   6.302   3.366   3.952  0.1753  0.2115 -0.0377
22998W        W40522  10.843   2.147   0.879 -0.0726 -0.1901  0.0246
22999W        W40523   8.012   4.741   3.715  0.2689 -0.3466  0.0232
23000W        W40524  15.692   6.478  14.639 -0.1866 -0.2360 -0.0248
23001W        W40525  17.330  11.371   0.469 -0.0472 -0.2036  0.2340
23002W        W40526   0.338  14.126  13.859 -0.0232  0.1018 -0.3029
23003W        W40527  12.957  11.702   1.447  0.1053 -0.2558  0.1267
23004W        W40528   0.179   5.457   2.692  0.0320 -0.0078 -0.0809
23005W        W40529   3.882   6.912   2.220  0.0886  0.2031  0.0888
23006W        W40530   1.304  12.039  15.059  0.1526 -0.0354 -0.0466
23007W        W40531  14.239  17.823  14.992 -0.0926 -0.2984 -0.1848
23008W        W40532   3.489  16.286   5.396 -0.1183 -0.2954 -0.0989
23009W        W40533  10.968   5.396   0.138  0.4121 -0.0640  0.0283
23010W        W40534  15.972   0.759  14.747  0.2456 -0.0505 -0.1324
23011W        W40535  11.238  12.695  15.266  0.1302 -0.1077 -0.1763
23012W        W40536  12.908   8.911  15.431  0.1626 -0.3862  0.2726
23013W        W40537   0.325   6.300   0.217  0.2972 -0.0533 -0.0460
23014W        W40538  10.299  13.380   0.720  0.0706  0.0448 -0.0238
23015W        W40539  15.773  16.368   3.428  0.3245 -0.2388  0.1118
23016W        W40540   4.461   6.929  15.291 -0.0611 -0.0086 -0.1214
23017W        W40541   4.740   1.472   2.895  0.1187 -0.0799 -0.1294
23018W        W40542  10.903   2.761  16.372  0.2009 -0.1323 -0.3396
23019W        W40543  16.563  10.565   3.693 -0.0213 -0.0490 -0.0029
23020W        W40544  17.763   5.748   2.531 -0.1957 -0.0926 -0.0220
23021W        W40545  14.323   0.099  12.624  0.0191  0.2204 -0.5433
23022W        W40546  16.276  16.369  12.438 -0.1311 -0.0153 -0.2282
23023W        W40547  17.875  11.544   2.729  0.1987  0.3789 -0.1547
23024W        W40548  11.026   5.080   1.805  0.0281  0.2832  0.0526
23025W        W40549  11.169  11.730   3.297  0.1112  0.0880 -0.0365
23026W        W40550   0.189   3.550   1.211  0.2280  0.2442 -0.0445
23027W        W40551   0.011   4.986  14.540  0.3061 -0.3165  0.2570
23028W        W40552  13.644   0.592  12.916 -0.1304 -0.3071  0.0307
23029W        W40553   5.436   0.415   1.890 -0.1002  0.0192  0.0876
23030W        W40554   6.783  15.423  11.737  0.0218  0.0543 -0.1846
23031W        W40555  10.547  13.264  11.026  0.4003  0.1882 -0.0187
23032W        W40556  14.783  17.854  13.476 -0.0951 -0.1616  0.0680
23033W        W40557  12.190   9.690  13.201 -0.1440 -0.3227  0.1243
23034W        W40558  12.176   6.064   3.752  0.1536  0.1487 -0.0249
23035W        W40559   0.797  17.063  14.204  0.0190 -0.1370 -0.3416
23036W        W40560  12.948  15.964  15.332 -0.0759  0.1451  0.1097
23037W        W40561   8.836  12.090  10.123  0.0979  0.0674  0.0358
23038W        W40562  14.714   7.664  13.847 -0.0508 -0.1015  0.0410
23039W        W40563   4.149  11.910   0.741 -0.0602 -0.1568  0.1997
23040W        W40564   3.775  15.810  14.052  0.1167  0.3108  0.0682
23041W        W40565   7.548   2.531   0.013 -0.0595 -0.0220  0.0937
23042W        W40566   0.618   6.093  13.958  0.4464  0.0510  0.1061
23043W        W40567  14.982  15.391  14.604 -0.0126  0.4830  0.2448
23044W        W40568   2.134  14.952  15.220 -0.2564 -0.1170  0.0208
23045W        W40569   8.391   5.186  12.657  0.0156  0.1176  0.0754
23046W        W40570  11.675  13.335  10.844  0.0099 -0.1316 -0.1700
23047W        W40571  12.894   5.489  15.027 -0.0445 -0.1246  0.1821
23048W        W40572   1.794   7.358  11.955 -0.3893 -0.0176 -0.0967
23049W        W40573  12.175   0.007  15.465  0.0352  0.2244 -0.1072
23050W        W40574  15.205  13.921  13.120  0.1732  0.3241 -0.2777
23051W        W40575  10.574   0.375   0.950  0.0409 -0.0834  0.0791
23052W        W40576  16.671  10.277   3.272  0.0738 -0.0977 -0.1773
23053W        W40577   2.973   4.415  12.196 -0.3450  0.0143  0.0159
23054W        W40578  10.074  13.911   4.039  0.1618  0.0848 -0.0340
23055W        W40579   2.587  16.028  13.909 -0.0500 -0.0342 -0.0197
23056W        W40580   0.126   1.470  14.621  0.2356  0.2555 -0.1311
23057W        W40581  11.557   3.548  15.463 -0.1515 -0.1216 -0.1165
23058W        W40582   7.936   0.481  11.906  0.0316 -0.1823  0.0573
23059W        W40583  10.847   2.067  14.074 -0.1031 -0.1394  0.0786
23060W        W40584   9.151  13.382   1.323  0.3923  0.0803 -0.2982
23061W        W40585   2.036  11.824  15.193  0.0672 -0.0854 -0.1202
23062W        W40586  10.030   2.150  15.654  0.0976  0.1853  0.0253
23063W        W40587  14.118  10.587  14.448  0.1871  0.1941 -0.1202
23064W        W40588  10.384   0.815   2.819 -0.2156  0.0901 -0.2063
23065W        W40589  13.720   2.576  12.823  0.2051 -0.2447  0.0250
23066W        W40590   2.364  12.268  12.996  0.2582  0.0042  0.0624
23067W        W40591  16.039  12.948  16.046 -0.3994 -0.0563 -0.2000
23068W        W40592   1.853   1.618  15.635  0.1844  0.2071 -0.4379
23069W        W40593  16.831   5.353  16.312 -0.1933  0.2389 -0.3538
23070W        W40594   1.517   3.622   3.246  0.0135 -0.2515  0.2255
23071W        W40595   1.928   3.110   3.815 -0.0538  0.2497 -0.0263
23072W        W40596  17.452  11.069   1.834 -0.1930  0.3155 -0.0380
23073W        W40597  12.354  15.250  14.836 -0.0963  0.6037  0.0892
23074W        W40598  11.516  16.292  15.059 -0.0424 -0.1173  0.2595
23075W        W40599   5.815   9.504   4.920 -0.1054 -0.0326 -0.2113
23076W        W40600  13.607  10.113   1.927  0.1582 -0.3558  0.0129
23077W        W40601   6.235   8.664   5.277  0.1470 -0.2741  0.2839
23078W        W40602   3.352   9.913   2.786 -0.1313 -0.1168 -0.1682
23079W        W40603  14.818   0.300   0.934 -0.2295 -0.2824  0.2428
23080W        W40604   4.078  15.610  12.895 -0.4638 -0.0427  0.1648
23081W        W40605   5.506  10.331  15.096 -0.2213 -0.2801  0.1922
23082W        W40606  15.669   1.536  12.938  0.2744  0.2209 -0.0625
23083W        W40607   3.599   7.368   1.022  0.0302 -0.1109  0.2392
23084W        W40608  11.342  16.794  15.032  0.3067  0.0312 -0.4475
23085W        W40609  16.022  14.418   3.912 -0.0457 -0.0991  0.0467
23086W        W40610  16.945   7.840  16.127 -0.1987  0.2085 -0.0835
23087W        W40611   8.509   3.344   3.657 -0.4832 -0.0064  0.2737
23088W        W40612  12.446   2.101   2.640  0.1468 -0.1174 -0.4896
23089W        W40613  12.145  16.411   3.757  0.0368  0.1350 -0.0404
23090W        W40614  11.963  13.334  15.672 -0.0876 -0.0010  0.4434
23091W        W40615   1.513   7.042  11.620 -0.1746  0.1357 -0.3808
23092W        W40616  10.793  15.604  10.687 -0.3248  0.1840  0.0664
23093W        W40617   1.138  11.985  14.137  0.2668  0.0537 -0.1105
23094W        W40618   9.899   0.336   0.052  0.2741  0.1043 -0.0229
23095W        W40619  17.856   9.998  11.655  0.1643  0.2625  0.3153
23096W        W40620   3.516  15.137   1.379 -0.1147 -0.2921 -0.0186
23097W        W40621  11.514  11.722  16.053 -0.1513 -0.1612 -0.2643
23098W        W40622   0.819   9.761  12.128  0.0029 -0.1345 -0.2012
23099W        W40623  16.515   4.386  13.450 -0.2873 -0.2513  0.1506
23100W        W40624  13.537   3.930  15.186 -0.0178 -0.1381 -0.1794
23101W        W40625  17.274   6.497   4.167 -0.0697 -0.3358 -0.0623
23102W        W40626   7.012   2.295   0.490  0.0288  0.1725  0.3733
23103W        W40627  10.294  17.465  11.783 -0.3695 -0.2051 -0.2640
23104W        W40628   5.995   8.571   6.146  0.1970  0.0515  0.1987
23105W        W40629   4.740   9.762   0.327  0.1125 -0.0915  0.2976
23106W        W40630  11.697  17.753  15.877 -0.4848 -0.3438  0.1229
23107W        W40631   8.624  11.985   1.249  0.0917  0.0741  0.4312
23108W        W40632   5.018   8.923  13.940 -0.0239  0.0674  0.2739
23109W        W40633   5.255  13.237   2.865  0.1160 -0.0703 -0.1634
23110W        W40634   3.816   3.692  15.691  0.2679  0.0301 -0.1043
23111W        W40635   5.971   1.954  16.390 -0.3444  0.0787 -0.2006
23112W        W40636   8.589  15.103   3.778 -0.0701  0.1932 -0.1303
23113W        W40637   5.855   8.174   4.509  0.1196 -0.1241 -0.2313
23114W        W40638   1.392  15.137   4.152  0.2534 -0.2146 -0.0926
23115W        W40639  12.753  13.954  15.686  0.1877 -0.0673 -0.0311
23116W        W40640  14.628   9.568  15.757 -0.2207  0.2193 -0.0521
23117W        W40641   8.722   8.589  13.310 -0.3407 -0.0499 -0.1743
23118W        W40642  16.801  10.722  11.974 -0.1521  0.0172 -0.3272
23119W        W40643   4.732  17.943   3.900  0.0174  0.3371 -0.2040
23120W        W40644  11.990  10.172  13.077  0.0065 -0.2718  0.0282
23121W        W40645  13.466  13.992  14.255 -0.0958 -0.2018 -0.0094
23122W        W40646  10.226   7.062  13.159  0.0276 -0.0910  0.0536
23123W        W40647   2.858   5.174  12.465  0.2197  0.1187  0.2508
23124W        W40648  14.519  12.918  13.007 -0.2559  0.0323  0.1640
23125W        W40649  17.845   7.778   3.308  0.1546  0.1990 -0.0248
23126W        W40650   2.660  17.246   3.201 -0.1581 -0.1545 -0.0686
23127W        W40651  12.176   6.450  12.456  0.0654 -0.1146  0.0217
23128W        W40652   2.951   2.639  13.070  0.0773  0.2612  0.1084
23129W        W40653   1.369  11.491  16.391  0.0905 -0.0589 -0.2646
23130W        W40654  15.128   2.073   1.102  0.3034 -0.0178 -0.0806
23131W        W40655   1.761   0.034  12.237 -0.0877  0.0934 -0.2212
23132W        W40656   9.167   5.582  13.718 -0.0366 -0.2906  0.1402
23133W        W40657   2.866   9.439  11.753 -0.0656  0.2931 -0.2339
23134W        W40658   5.051  17.457   4.795 -0.2871 -0.3082 -0.2834
23135W        W40659  16.072  14.245  10.784 -0.1912  0.2129 -0.0127
23136W        W40660  10.293  16.987  15.828 -0.1410  0.0513 -0.2186
23137W        W40661   3.213  14.727  13.273 -0.0740  0.2537  0.0165
23138W        W40662  10.836   7.784  12.084 -0.1711 -0.2120  0.1128
23139W        W40663   8.472   1.677  12.949 -0.1013  0.2005 -0.1482
23140W        W40664  11.929   3.296  16.238 -0.0170  0.2117  0.1290
23141W        W40665  16.134   6.984   1.912  0.2696 -0.2174 -0.0429
23142W        W40666   9.325   2.566  13.823 -0.0240 -0.3073 -0.1336
23143W        W40667   8.494  17.776  11.922  0.2334  0.0239  0.1934
23144W        W40668   4.942  12.872   1.837 -0.0411 -0.0294 -0.1693
23145W        W40669  12.430   4.449   2.664  0.0513  0.1164 -0.0478
23146W        W40670  11.407   8.021  11.838  0.0271 -0.3224 -0.3622
23147W        W40671   6.547  16.780   0.503  0.0201 -0.1925  0.0607
23148W        W40672   9.224   8.278  12.214  0.0063 -0.1914  0.1294
23149W        W40673  17.886  15.127  16.334 -0.3061  0.2115 -0.1647
23150W        W40674  12.048   9.481   0.885  0.1694  0.2060  0.0861
23151W        W40675  16.563   7.816   0.954 -0.0637  0.2013  0.1608
23152W        W40676  17.318  17.332  12.643 -0.0150  0.0954 -0.1432
23153W        W40677  17.160  17.270   1.837 -0.2973  0.0585  0.3310
23154W        W40678   8.297   0.281   2.478  0.1892  0.2478  0.0220
23155W        W40679   0.507   4.146   0.378 -0.0849 -0.3128  0.0770
23156W        W40680   2.254  11.311  16.270  0.2954  0.1001  0.1016
23157W        W40681   0.939  14.336   5.214  0.1452  0.1610  0.0372
23158W        W40682   0.442   2.566   2.620  0.2085 -0.0130  0.0726
23159W        W40683  17.676   3.306  15.842  0.1873  0.2036  0.0313
23160W        W40684   9.717   4.057  12.035 -0.1828 -0.2860 -0.1777
23161W        W40685  13.722  10.592  12.190  0.0099  0.0451 -0.1727
23162W        W40686   6.000  11.159  10.673  0.1529  0.2111 -0.1931
23163W        W40687   8.945  12.769  14.054 -0.1052 -0.0712 -0.1264
23164W        W40688  16.351   5.244   1.865  0.1632 -0.2839  0.4156
23165W        W40689   8.979  12.504  12.012  0.0078 -0.0736 -0.0943
23166W        W40690   9.542  17.078  14.546 -0.0651 -0.0092  0.1555
23167W        W40691   0.420  12.134  16.280 -0.0551  0.0680  0.0771
23168W        W40692   3.448  17.899   4.477  0.4034  0.1098 -0.0608
23169W        W40693  13.637   5.432   0.552  0.0396  0.0547 -0.0360
23170W        W40694  17.249   8.042  12.815  0.1112 -0.2986 -0.0215
23171W        W40695   5.381   4.905   3.648 -0.0962  0.0109  0.3950
23172W        W40696   1.319   2.949  15.098  0.0486 -0.1398  0.0241
23173W        W40697  14.832   2.965   2.759 -0.0816 -0.2489 -0.0782
23174W        W40698   4.347   8.987   4.853  0.1039 -0.1151  0.1081
23175W        W40699   5.446  11.873  11.704 -0.0221 -0.0869 -0.0522
23176W        W40700  10.130   5.476   0.819  0.3277 -0.2383 -0.1393
23177W        W40701   9.555   5.189   0.019 -0.0344  0.4369 -0.1330
23178W        W40702   0.338   8.781  11.900 -0.3621 -0.1511  0.0783
23179W        W40703  17.799   9.502  12.040 -0.4794 -0.1968 -0.0225
23180W        W40704   7.135  16.673  12.418 -0.0447  0.5608  0.0750
23181W        W40705   4.123   4.380  14.278  0.0210  0.4221 -0.3833
23182W        W40706   8.950  17.676  12.238 -0.2301 -0.2253  0.0951
23183W        W40707   6.974   5.264  11.294 -0.0231 -0.0267  0.1497
23184W        W40708   4.761   2.558  11.388 -0.0235  0.0546  0.1851
23185W        W40709  12.717   7.720  13.807  0.2093  0.3003 -0.0535
23186W        W40710   5.165  10.566   3.017  0.1970 -0.1051  0.4082
23187W        W40711  11.876  11.379   2.915 -0.3416  0.1157  0.1274
23188W        W40712  11.945  16.323   5.299  0.1317 -0.1736  0.0812
23189W        W40713   3.155   7.986   4.411  0.3022 -0.1746 -0.0750
23190W        W40714   7.176  10.774   2.397  0.0288  0.1980 -0.1047
23191W        W40715   6.795   5.401   3.438  0.0649  0.1478 -0.0197
23192W        W40716   6.272   5.476   4.867  0.0706  0.1697  0.0822
23193W        W40717  13.455  16.323   2.649 -0.2294 -0.0207  0.0830
23194W        W40718   9.909  17.100  15.486 -0.2081 -0.2086  0.0563
23195W        W40719   9.671  14.459   3.342  0.0989 -0.2461 -0.2147
23196W        W40720   3.625  17.069   4.806 -0.2189 -0.0427 -0.1550
23197W        W40721   4.137  17.115   1.699  0.2272 -0.1475 -0.0106
23198W        W40722   6.345   1.664   4.460 -0.0350 -0.1125  0.0477
23199W        W40723  16.858   0.423   0.144 -0.3472 -0.1196  0.0660
23200W        W40724  13.072  11.313  15.960  0.2395 -0.0878 -0.0882
23201W        W40725   3.064  11.531  14.930 -0.2334  0.0720  0.1239
23202W        W40726  14.797  13.426   4.825 -0.0840  0.0529  0.1144
23203W        W40727  17.791   1.170   4.242  0.0176  0.2141 -0.3594
23204W        W40728  10.817   5.901   0.269  0.2837  0.1191  0.0252
23205W        W40729  13.598   2.435  14.004  0.0463 -0.0149 -0.1540
23206W        W40730   3.557  10.309   4.329 -0.2113  0.1517 -0.0249
23207W        W40731  15.236   1.273  14.474 -0.0163 -0.0270  0.1404
23208W        W40732  10.278   8.016  15.004  0.2091 -0.1829  0.2117
23209W        W40733   8.225  16.086   0.709  0.1788 -0.1155  0.1340
23210W        W40734  17.488  13.928  12.971  0.1524 -0.4054 -0.1745
23211W        W40735  12.514  10.721  14.757  0.1154  0.0909 -0.1849
23212W        W40736  10.965  10.154  13.679 -0.1959 -0.3933 -0.3412
23213W        W40737  14.154  16.855   2.344  0.4476  0.0523  0.0191
23214W        W40738  16.835   9.146   5.690  0.3685  0.0858 -0.0158
23215W        W40739   9.295  13.296   2.368 -0.0631 -0.0427  0.2041
23216W        W40740  16.016  13.022  11.347 -0.1056 -0.2849 -0.0995
23217W        W40741  16.385  12.041  11.189  0.0356  0.0696 -0.2826
23218W        W40742   7.306  12.000   5.294 -0.0759 -0.1699 -0.0434
23219W        W40743   6.370   2.283   0.110 -0.0149  0.0144  0.1393
23220W        W40744   2.112  16.484   0.463  0.0498 -0.0980 -0.0244
23221W        W40745   8.273  11.705   0.443 -0.2132  0.1194  0.2140
23222W        W40746  16.572   7.406   2.514 -0.1128 -0.0284  0.0771
23223W        W40747   1.586  16.116   0.833  0.0377  0.0535 -0.0284
23224W        W40748  13.977   1.202   0.378  0.0442 -0.0503  0.0452
23225W        W40749   4.622   9.474   1.281  0.1845 -0.1950 -0.2277
23226W        W40750   8.780   8.194   3.607  0.0319 -0.1126  0.1245
23227W        W40751  13.473  12.693   1.912 -0.1050  0.0289  0.0624
23228W        W40752   1.750   4.706   1.001  0.1945  0.2203  0.0513
23229W        W40753   8.125   3.148  16.296 -0.0819  0.3194  0.2952
23230W        W40754   3.588  12.076  12.827  0.2507 -0.0355 -0.0986
23231W        W40755   4.198  10.043  15.344 -0.2875  0.0345  0.0394
23232W        W40756   2.162  12.646   4.580  0.1405 -0.1735 -0.1861
23233W        W40757   1.821   8.235   0.447  0.0459 -0.0745  0.1253
23234W        W40758   9.109  10.709  15.017 -0.0332  0.0288  0.2748
23235W        W40759   4.138   2.240  14.271  0.0065 -0.1273 -0.3741
23236W        W40760  10.781   0.321  14.568 -0.0715 -0.1111 -0.2144
23237W        W40761  10.181   6.610  11.628  0.1802 -0.1474  0.2393
23238W        W40762   3.645   0.291   2.383 -0.0181  0.0075  0.0158
23239W        W40763  16.327   5.576  15.407 -0.0954  0.2125  0.1357
23240W        W40764   7.858  10.234   3.319 -0.0367  0.0631  0.2188
23241W        W40765  15.275  17.116  14.378  0.0428  0.1914  0.2232
23242W        W40766  10.984   7.888  11.617 -0.3096 -0.3731  0.2395
23243W        W40767   2.220   8.139   0.030  0.1189  0.2829  0.1500
23244W        W40768  11.368  11.530  12.393 -0.0205  0.0611 -0.0279
23245W        W40769  11.103   9.290  12.495 -0.2875  0.0454 -0.1270
23246W        W40770   7.117   0.023   5.311 -0.0988 -0.0504  0.0083
23247W        W40771  14.106  14.972   4.382 -0.1710  0.1017  0.1895
23248W        W40772   0.754  14.852  15.698 -0.0174 -0.1282  0.0736
23249W        W40773   1.182  12.082   1.493  0.0252  0.0332 -0.6451
23250W        W40774  12.992   4.508  12.081 -0.0320 -0.1069 -0.0244
23251W        W40775  15.570  11.604  12.399  0.0080 -0.0188 -0.1129
23252W        W40776   3.822   4.501   2.139  0.1235  0.0254  0.0689
23253W        W40777   6.703  10.980   4.985  0.0810 -0.0781 -0.1943
23254W        W40778  17.932  14.812  14.281 -0.1384 -0.0678 -0.1021
23255W        W40779  14.832   6.017  15.866 -0.0651  0.2298  0.3386
23256W        W40780  11.378   5.166   2.168 -0.1337  0.3267  0.2142
23257W        W40781   5.070   5.439  15.049 -0.0428 -0.1178  0.1444
23258W        W40782  14.719  17.041   0.967  0.1679 -0.1649  0.2445
23259W        W40783   4.986  12.231  14.960 -0.2221 -0.2256  0.0649
23260W        W40784   7.261  16.776  13.493 -0.4325  0.1369 -0.0186
23261W        W40785   8.329   8.401   0.241 -0.1446  0.0292 -0.0706
23262W        W40786  14.068   0.889   5.365 -0.1678  0.1732  0.1590
23263W        W40787  16.149  10.236   0.505  0.2210  0.1492  0.1673
23264W        W40788   3.956  11.791  12.988  0.0132  0.1935  0.1598
23265W        W40789   3.168  16.240   0.999  0.0838 -0.1089 -0.0188
23266W        W40790   8.588  15.860   5.399 -0.0541  0.0932  0.2017
23267W        W40791  15.519   7.977   0.888 -0.0257  0.0757  0.2396
23268W        W40792   3.908   0.221   0.339 -0.0201  0.1858 -0.0499
23269W        W40793  10.282  14.647   1.197  0.2858  0.0454 -0.1196
23270W        W40794   4.119   5.848   5.274  0.2930 -0.0883 -0.0033
23271W        W40795   6.695  13.315  14.465  0.2294  0.0497 -0.1864
23272W        W40796   1.500  17.488   0.468  0.1919 -0.3506  0.2223
23273W        W40797  14.532   3.454   2.013  0.0481 -0.0683 -0.0364
23274W        W40798   7.675   3.671   4.551 -0.1626  0.0635  0.0554
23275W        W40799   7.014   9.544   3.147 -0.0411 -0.1405 -0.1832
23276W        W40800   1.362   0.423   3.753 -0.2193  0.0731 -0.0462
23277W        W40801  12.057  13.643  14.166  0.4002  0.1791  0.0058
23278W        W40802   0.719   0.021   2.593 -0.0396 -0.1342 -0.0618
23279W        W40803   1.358  11.528  12.416  0.2415  0.3828  0.0647
23280W        W40804  12.532   0.276  13.670  0.0628  0.0926  0.0689
23281W        W40805  17.001  15.748  16.320  0.1520 -0.3711  0.2927
23282W        W40806   6.674  17.132   2.102  0.4911  0.2583  0.0696
23283W        W40807   6.507   2.819   2.166  0.1791  0.1840 -0.1739
23284W        W40808   1.331  15.647  11.008  0.2198  0.0459 -0.1371
23285W        W40809   2.892  17.178  13.111  0.2640 -0.1682  0.2731
23286W        W40810  11.297   3.968  13.385  0.0482  0.1136  0.2899
23287W        W40811  10.021  11.710   0.345 -0.0188  0.2050  0.0525
23288W        W40812  10.045  16.936  11.862 -0.1029 -0.0001 -0.2254
23289W        W40813  11.646   9.149   1.278 -0.2139  0.2143  0.0095
23290W        W40814  10.122   4.477   4.735  0.1766  0.2906  0.3947
23291W        W40815   9.259  12.363  13.948 -0.3192  0.2903 -0.1207
23292W        W40816   2.529   5.566  12.481 -0.0028  0.0087 -0.0659
23293W        W40817   1.692   1.082  15.254 -0.0613  0.1344  0.2765
23294W        W40818  12.700  10.763   1.193  0.0321 -0.0763 -0.4517
23295W        W40819  15.349   9.945  11.327 -0.1418 -0.2253  0.1284
23296W        W40820   0.875   8.486  14.428 -0.2346  0.0728 -0.0167
23297W        W40821   1.178   9.590   2.436 -0.0015 -0.2160 -0.3498
23298W        W40822   3.084  11.215  11.863 -0.0882  0.0050 -0.0456
23299W        W40823  17.282  16.227   4.608  0.1285 -0.1482 -0.2516
23300W        W40824  11.675  12.564  11.862  0.2188 -0.3596 -0.0173
23301W        W40825   9.348  11.198   1.406  0.1591 -0.0136 -0.3983
23302W        W40826   0.581  15.778   0.709 -0.1885 -0.0630 -0.2009
23303W        W40827   2.157  17.306   3.189 -0.0215  0.2492  0.0424
23304W        W40828   2.489   0.511  11.683  0.0119 -0.1307 -0.1253
23305W        W40829  14.383  10.924   2.937 -0.0497  0.4018  0.1189
23306W        W40830  17.754   9.121   4.135 -0.0443  0.2695  0.2062
23307W        W40831   3.276   3.059   3.870 -0.1485 -0.0076  0.2823
23308W        W40832  12.778  13.470   2.880  0.1484 -0.0488  0.0054
23309W        W40833  14.305  17.926  16.132 -0.4053  0.1831 -0.3073
23310W        W40834  12.875  10.287  14.729 -0.0452 -0.0088 -0.0245
23311W        W40835   5.959   8.794  16.109  0.1580  0.0773  0.0214
23312W        W40836  12.253  13.098  16.029 -0.0709 -0.1648  0.0900
23313W        W40837   9.605   0.322  12.832 -0.0821 -0.2349 -0.0482
23314W        W40838   3.047  12.105   1.423  0.0841  0.0067  0.0061
23315W        W40839  13.107   8.933  14.978  0.2130  0.2158  0.2855
23316W        W40840  14.976   1.643   0.872  0.2399 -0.0818 -0.1015
23317W        W40841  16.083  15.849  12.595  0.1153 -0.0507  0.0981
23318W        W40842  15.570  12.986  16.290  0.0260  0.3477 -0.0854
23319W        W40843   4.252  14.082   1.518 -0.1349 -0.0429 -0.3324
23320W        W40844  12.664   3.558  14.753  0.1174  0.2544  0.1429
23321W        W40845  12.676  11.368   5.020 -0.2770  0.1959 -0.1717
23322W        W40846  14.785   3.361   0.568  0.2364  0.0206  0.0741
23323W        W40847  11.408   6.706   1.397 -0.1484 -0.1073  0.1314
23324W        W40848  13.581   7.212  13.964 -0.0492  0.4312  0.3189
23325W        W40849  10.411  15.510   3.095  0.0136 -0.0851  0.0408
23326W        W40850   7.474   8.072  12.847  0.0754  0.0095  0.1511
23327W        W40851  16.935   1.819  13.816  0.0142 -0.2168  0.0892
23328W        W40852   2.386   0.982  14.075  0.0486  0.2534  0.2002
23329W        W40853  17.900  14.761   1.701 -0.1447  0.1025 -0.3324
23330W        W40854  17.566  12.459   4.544  0.3502  0.1996  0.4338
23331W        W40855   0.584  11.438  15.217 -0.0016 -0.1760  0.1295
23332W        W40856   8.051   6.401   5.984  0.1035  0.0137  0.0010
23333W        W40857  13.774   7.290   3.327  0.2139 -0.0711 -0.0458
23334W        W40858   8.751   4.975   4.811 -0.0722  0.3483  0.0543
23335W        W40859  12.112  13.483   1.016 -0.3456  0.0851  0.1412
23336W        W40860  11.568   8.060   1.652  0.0157 -0.1583 -0.1698
23337W        W40861   6.573  13.130   2.399  0.1417  0.2604 -0.0961
23338W        W40862  12.315   1.563   0.762 -0.1462  0.1207 -0.0185
23339W        W40863   5.220   3.861  13.726  0.0648 -0.1541  0.1920
23340W        W40864   3.939  13.141  16.123  0.2228  0.1662  0.1874
23341W        W40865  17.453   3.149   4.983  0.0886  0.2621 -0.1953
23342W        W40866  17.109  17.152  12.126  0.0220 -0.2161  0.1861
23343W        W40867   2.763  10.276  12.373 -0.2217  0.1937  0.1113
23344W        W40868   7.986   9.217  11.781  0.0954  0.0148  0.3949
23345W        W40869   8.629   7.440  15.008 -0.3816  0.1384  0.0533
23346W        W40870   6.700   2.376  11.951 -0.0209  0.1119  0.1722
23347W        W40871  17.284   5.675  15.547  0.1960 -0.1441  0.0872
23348W        W40872  10.136   9.881   1.465  0.1549 -0.1672 -0.0173
23349W        W40873   5.317   5.542  13.101 -0.1471  0.1840  0.1130
23350W        W40874   3.663   5.707   4.568  0.0119  0.0003  0.1170
23351W        W40875  11.006   9.692   3.099 -0.0335 -0.2330  0.0281
23352W        W40876   7.224  16.833   2.902  0.4589 -0.2098 -0.1016
23353W        W40877   1.076   6.384  11.912  0.0737 -0.0782 -0.1140
23354W        W40878   9.418  12.515   0.341  0.1480  0.2851 -0.2100
23355W        W40879  10.253   2.444  13.771 -0.1185 -0.1589  0.0005
23356W        W40880   1.646  16.976   0.596 -0.2694  0.2069  0.2211
23357W        W40881   2.111   4.506   3.659  0.2511  0.4134  0.2127
23358W        W40882   9.385   3.495  11.290 -0.1083 -0.1773 -0.1182
23359W        W40883   8.827  10.981  15.767  0.2103  0.3193 -0.4619
23360W        W40884  17.779  10.115  13.996 -0.1229  0.1123  0.1774
23361W        W40885   6.963   8.655  15.621  0.3198  0.3123 -0.0084
23362W        W40886  14.545   8.721   2.275 -0.1273  0.2829  0.0864
23363W        W40887   5.898  13.580  14.895 -0.1968  0.1347  0.1332
23364W        W40888   9.326   0.510   2.709  0.0374 -0.0499 -0.1500
23365W        W40889  15.634   1.112  14.834 -0.0385 -0.1568 -0.0446
23366W        W40890   4.228  12.849  13.708  0.2214  0.0838  0.0395
23367W        W40891  15.194  16.564  14.782  0.1987 -0.3199 -0.1285
23368W        W40892   0.744   5.001   4.810 -0.1055  0.0023 -0.2003
23369W        W40893   4.272  16.853  14.974  0.3321  0.1419 -0.2086
23370W        W40894   6.892   4.016  15.598 -0.4524 -0.2499  0.3137
23371W        W40895   6.529  10.410  11.958  0.0053 -0.0676 -0.5631
23372W        W40896   3.904   3.196   5.360  0.2220 -0.1504  0.4553
23373W        W40897  16.426   4.767  14.910  0.1348  0.1554  0.1604
23374W        W40898   7.088   7.309  16.071 -0.0811 -0.0889  0.0101
23375W        W40899  12.234   0.506   3.734  0.4798 -0.1663 -0.1500
23376W        W40900   4.426  12.883   5.020  0.1160  0.0249 -0.1025
23377W        W40901  13.524   0.957  14.369  0.2641  0.1661  0.1433
23378W        W40902   4.465  15.703  16.410 -0.1415  0.3833 -0.0062
23379W        W40903   4.036  10.452   0.232  0.2363  0.2561 -0.2428
23380W        W40904  11.512  13.305  13.901 -0.0067  0.2241 -0.1400
23381W        W40905   4.010  13.247   4.489 -0.1024  0.0886 -0.0089
23382W        W40906  17.230   0.240  15.539 -0.1360 -0.1611  0.0027
23383W        W40907  16.955   3.361   4.716 -0.0991  0.1199 -0.3231
23384W        W40908   1.539  10.847   0.865  0.0449 -0.0942 -0.1027
23385W        W40909   3.522   8.477   3.471  0.1147  0.0731 -0.0517
23386W        W40910   3.954   8.685   2.880 -0.3658  0.1350 -0.2408
23387W        W40911   1.707  13.348   2.286  0.2097 -0.2713 -0.0230
23388W        W40912   8.006   0.655   0.909  0.1288  0.2122 -0.1381
23389W        W40913   1.469  16.966   3.868 -0.0825 -0.2402  0.1857
23390W        W40914   1.376   0.459  13.983  0.0114  0.0689 -0.2265
23391W        W40915  15.543  16.600  14.340  0.1194  0.0701 -0.2482
23392W        W40916  11.717  14.940   3.378 -0.3229 -0.0785  0.1991
23393W        W40917   5.374   0.994  14.541 -0.1181 -0.0316 -0.0675
23394W        W40918   4.706  17.285  11.103  0.0414  0.1458 -0.1875
23395W        W40919   5.852   2.110   2.750  0.1746  0.1234  0.0778
23396W        W40920  13.323  10.970  14.948 -0.0939  0.2007  0.3389
23397W        W40921   0.355   6.590  15.367 -0.0247  0.1113  0.0129
23398W        W40922  15.106   0.741  13.594 -0.2772  0.3072  0.2951
23399W        W40923   7.418   5.419  16.257  0.1520  0.0478 -0.0850
23400W        W40924   7.924   9.625  12.093 -0.2986 -0.1135  0.0838
23401W        W40925   3.851  15.059  11.992  0.2012 -0.0101  0.1433
23402W        W40926   8.671   1.170  14.786 -0.1512  0.5020 -0.0479
23403W        W40927   5.871   6.929   1.745 -0.1599  0.2711 -0.4664
23404W        W40928   2.089   1.454   1.727  0.5980  0.2953  0.2456
23405W        W40929  13.038  13.577   1.975 -0.2379  0.0626  0.2958
23406W        W40930   8.265   3.843   4.458 -0.0283  0.2063  0.1325
23407W        W40931  13.535  16.714   2.934  0.0133  0.1196  0.0059
23408W        W40932   0.339  16.366  13.518  0.2428  0.2535  0.3411
23409W        W40933  10.833   2.973   3.802  0.0483 -0.0540 -0.4695
23410W        W40934  16.948  14.994  15.242 -0.0997 -0.3841  0.2868
23411W        W40935  17.918   4.084   2.107  0.1668  0.0933 -0.0553
23412W        W40936  12.476  11.792   0.979 -0.0766 -0.0595  0.1867
23413W        W40937   4.866   8.227   2.027 -0.1390 -0.1456 -0.1286
23414W        W40938   0.223   8.465   2.830  0.0993 -0.0144 -0.0517
23415W        W40939  17.545   0.857   4.580 -0.1777 -0.0220 -0.0553
23416W        W40940  17.942   6.843   4.487  0.1320  0.3785 -0.2166
23417W        W40941  14.149  12.115   4.029  0.1029 -0.1285 -0.0536
23418W        W40942   9.554  14.675   4.661  0.0611  0.1690 -0.2259
23419W        W40943  15.662   4.017  13.439  0.1915  0.1117  0.0074
23420W        W40944   5.975  11.653   3.659 -0.3917 -0.0868 -0.0288
23421W        W40945   0.021  12.355   3.799  0.0728  0.0583 -0.1958
23422W        W40946  11.938  16.238  12.882 -0.1938  0.0663  0.2414
23423W        W40947   2.964   2.746   6.101 -0.0832  0.0907  0.1536
23424W        W40948  12.002   1.501  14.773 -0.0564 -0.0901  0.1591
23425W        W40949  14.769   4.189   3.916 -0.1274 -0.3167 -0.1486
23426W        W40950  10.455  11.729  13.674  0.0141  0.0569  0.1595
23427W        W40951  12.416  14.897  11.237  0.1129 -0.1736  0.0301
23428W        W40952  11.868   1.113  16.416 -0.1412  0.0393  0.0608
23429W        W40953   3.754   4.513  12.592  0.0727  0.0267  0.1878
23430W        W40954   2.350   9.305  13.969 -0.0736  0.0120 -0.0471
23431W        W40955  14.428   7.798   1.974 -0.1367  0.1672  0.0727
23432W        W40956   9.090  12.008  12.629 -0.1399 -0.1308 -0.2568
23433W        W40957   7.897  13.587  12.498  0.0660 -0.0059  0.1164
23434W        W40958  14.137   9.587   3.263  0.1865 -0.0783  0.0020
23435W        W40959  14.667   4.548   4.574  0.2238  0.0387  0.2783
23436W        W40960  16.218  12.011  15.945 -0.0674 -0.1072  0.1903
23437W        W40961   5.915   9.899   3.017  0.1850  0.1482 -0.0938
23438W        W40962   2.741  13.376  13.599  0.1926 -0.0397 -0.1984
23439W        W40963  10.721   0.441  12.898  0.1150 -0.0260  0.2002
23440W        W40964  12.779  14.968  14.640 -0.0893 -0.2568 -0.0768
23441W        W40965   9.439   2.461  15.530  0.0088  0.3428 -0.4057
23442W        W40966  12.458  13.945  15.145  0.0039  0.0049 -0.2405
23443W        W40967   4.471   4.054  12.627 -0.2640 -0.2540  0.0980
23444W        W40968  16.910  12.640  11.611  0.3280  0.0047  0.0084
23445W        W40969  10.632   4.163  13.206 -0.4737  0.1648 -0.0942
23446W        W40970  14.562  10.240  14.712  0.2053 -0.0003  0.0873
23447W        W40971   6.180  17.434   2.063 -0.0137 -0.2631  0.0021
23448W        W40972  17.643  10.465  13.721  0.1319 -0.2588  0.0169
23449W        W40973   9.532  12.613  15.673  0.3838 -0.0046  0.3202
23450W        W40974   2.311  13.288  13.351 -0.2916 -0.0410  0.0212
23451W        W40975   0.344   3.686  11.405  0.2124  0.1027  0.0588
23452W        W40976   3.920   7.561  15.618 -0.4734  0.1323  0.1995
23453W        W40977   8.081   1.952  12.288  0.2104 -0.0584 -0.0646
23454W        W40978   7.279  16.581   3.907 -0.0188  0.2727  0.4127
23455W        W40979   1.103  15.831   4.687 -0.0555  0.0807 -0.0780
23456W        W40980   3.744   2.945  14.031  0.1285  0.0222 -0.2672
23457W        W40981  17.165  10.855   0.272 -0.1138  0.1577 -0.2075
23458W        W40982  10.140   2.181  16.127 -0.0086 -0.0539 -0.0425
23459W        W40983   6.238  14.069  14.398 -0.3835 -0.0821  0.1975
23460W        W40984  10.349   8.555   3.084 -0.1804  0.0399 -0.4037
23461W        W40985  13.654  14.643  12.449 -0.4301  0.1962 -0.0356
23462W        W40986   8.002  12.535   3.393  0.3238 -0.1139  0.3201
23463W        W40987   0.828   0.939  11.949  0.3200 -0.0029  0.1657
23464W        W40988  11.689  16.153  13.767 -0.0593  0.0401  0.1036
23465W        W40989   1.112   7.612  12.491  0.1433 -0.0154 -0.0244
23466W        W40990   7.384   6.038  16.277 -0.0620 -0.0047 -0.0246
23467W        W40991   2.651  15.650  11.765 -0.1107  0.1481 -0.2068
23468W        W40992  16.596   6.056   0.626  0.2408 -0.0475  0.0137
23469W        W40993   0.423  14.490  11.768  0.0496  0.3124 -0.3259
23470W        W40994   5.446   1.245   0.431  0.2698  0.1840 -0.0408
23471W        W40995  16.519  14.326   0.326 -0.2830  0.2948 -0.0620
23472W        W40996  15.100  10.010   0.600 -0.2693  0.2127  0.4014
23473W        W40997   9.092  14.016   2.191  0.1576 -0.2250  0.3111
23474W        W40998   6.475  13.249   4.306 -0.3090 -0.3165  0.0913
23475W        W40999   9.258   0.267  11.571 -0.0588  0.1314 -0.0201
23476W        W41000  13.363  10.920   2.854  0.2495  0.0950 -0.1658
23477W        W41001  14.002  16.184   1.107  0.0270 -0.4392  0.0725
23478W        W41002   4.722   2.895   4.997 -0.1378 -0.2015  0.1675
23479W        W41003   4.949   6.198   5.542 -0.0378  0.1101  0.1848
23480W        W41004  16.644   7.903  14.980 -0.1527  0.0321  0.3579
23481W        W41005   4.393   3.690  12.215  0.0896 -0.1906  0.1774
23482W        W41006  13.244   2.801  15.287 -0.1462 -0.0100 -0.1722
23483W        W41007  14.096   7.426  12.413  0.1611  0.0549  0.3956
23484W        W41008   2.480  13.536  14.803  0.1843 -0.0267  0.1713
23485W        W41009   2.651   4.929   2.275 -0.0300 -0.0435 -0.0990
23486W        W41010  16.689  13.560   3.766 -0.0023  0.1086  0.1108
23487W        W41011   0.663   7.302   4.096  0.1213 -0.1956 -0.2733
23488W        W41012   6.670   4.423   3.179 -0.0816  0.1703 -0.0843
23489W        W41013  17.929  17.366  12.101 -0.4657  0.0631 -0.0917
23490W        W41014  17.746  12.509  15.748 -0.2916 -0.0234  0.0453
23491W        W41015   9.744   3.854  11.422  0.0411 -0.0101  0.4276
23492W        W41016  14.427   6.299   4.615  0.1322 -0.1560  0.0099
23493W        W41017   5.156   4.256   0.380 -0.1256  0.2622  0.2604
23494W        W41018   7.480  14.029   3.570 -0.1534 -0.1438  0.0329
23495W        W41019   1.360   1.016   1.812 -0.0640  0.0993  0.2266
23496W        W41020   4.932  17.862  10.985 -0.2190  0.0150  0.1278
23497W        W41021   9.628  16.033  13.681 -0.0467  0.0349  0.3781
23498W        W41022   1.857   6.622   0.527  0.3460 -0.2221 -0.1943
23499W        W41023  11.005  13.033  15.518 -0.1909 -0.0892 -0.1801
23500W        W41024   2.346  11.545   1.250 -0.4183 -0.0332  0.3217
23501W        W41025   2.057  13.159   3.867 -0.2105 -0.3696 -0.0575
23502W        W41026  15.797   2.377   1.532  0.0092 -0.0576  0.1020
23503W        W41027   4.485  15.556   3.865 -0.0364  0.0643 -0.0581
23504W        W41028   9.917  12.279  14.794 -0.1330  0.1610 -0.2133
23505W        W41029  13.000   1.564   5.108  0.1434  0.3464  0.4586
23506W        W41030  10.914   7.821  14.081 -0.3930  0.4014  0.3951
23507W        W41031   0.796  16.270   4.541  0.4984 -0.1165  0.0958
23508W        W41032   8.063  14.702  13.457 -0.4100 -0.1208  0.2862
23509W        W41033  12.650   0.027  12.369  0.3457 -0.2249 -0.1520
23510W        W41034   7.434  11.821  14.914 -0.1466  0.1209 -0.1315
23511W        W41035   5.996   2.972   2.057  0.0292  0.2364  0.2153
23512W        W41036   8.820  11.585   3.916 -0.0742 -0.0224  0.2243
23513W        W41037   0.062   2.186   2.117  0.0130 -0.3167  0.0669
23514W        W41038   0.365   5.965   4.909 -0.2002 -0.0241 -0.1907
23515W        W41039   6.514   0.821   4.879 -0.2454  0.0976 -0.0138
23516W        W41040   6.857   8.636  15.055  0.1356  0.0628  0.0208
23517W        W41041  11.980   2.009  13.278 -0.0857 -0.1792 -0.1378
23518W        W41042  17.128  14.824   0.395  0.2236  0.1283 -0.1883
23519W        W41043  10.785   3.050   2.562  0.0688  0.1475  0.0311
23520W        W41044  15.868  15.353   2.366 -0.0679  0.0002  0.1961
23521W        W41045   1.716  17.227   4.490  0.1238 -0.1739  0.1106
23522W        W41046   3.219   1.185   0.891 -0.1287  0.0699  0.3161
23523W        W41047  13.682   4.550   4.748 -0.3037  0.0518  0.0048
23524W        W41048  10.412  14.477  14.724 -0.1183  0.1574  0.0437
23525W        W41049  10.194  13.881   5.069 -0.1768 -0.2651 -0.0659
23526W        W41050  16.442   4.816   1.126  0.0620  0.2117  0.0370
23527W        W41051   0.269  11.914   1.902 -0.0111 -0.0925 -0.0078
23528W        W41052  11.044   8.357  12.072 -0.0809 -0.0766  0.0976
23529W        W41053  12.634   2.326   3.634  0.0068 -0.0679  0.1765
23530W        W41054   8.942  14.589   1.086  0.2303 -0.2406  0.0284
23531W        W41055  15.897   8.330   4.457 -0.0577  0.4727  0.1236
23532W        W41056  12.916   6.632  15.974  0.0589 -0.1103 -0.1229
23533W        W41057  16.382  12.465   1.929 -0.0809  0.0344 -0.2904
23534W        W41058  12.821   3.141  14.547 -0.1012 -0.2336  0.0583
23535W        W41059  11.670   4.830   0.286  0.0566 -0.1917 -0.0358
23536W        W41060   0.293  12.207   2.415 -0.1787 -0.0609 -0.0381
23537W        W41061   9.003  12.866   0.389 -0.0446 -0.3496 -0.0825
23538W        W41062   6.866   5.538   3.981 -0.0105  0.0590  0.0883
23539W        W41063  16.958  12.419   3.225  0.2794  0.0187 -0.1670
23540W        W41064  12.117  16.059   0.896 -0.1148 -0.2023 -0.0518
23541W        W41065  16.891   9.919  11.944 -0.0079 -0.4580 -0.0200
23542W        W41066   6.377  10.680   5.271  0.1492 -0.0450  0.0197
23543W        W41067   9.107   2.493   0.783 -0.0485  0.2526  0.1859
23544W        W41068   1.715   5.396  14.650  0.0586 -0.0265 -0.0669
23545W        W41069   3.663  15.428   1.798  0.0363  0.0218  0.0951
23546W        W41070   7.758   5.076  16.037 -0.1466  0.1257  0.0654
23547W        W41071   0.183   6.144  16.206  0.1495  0.1258  0.0561
23548W        W41072   1.936   2.172  14.853 -0.1220 -0.2595  0.1494
23549W        W41073   8.877   0.635   1.331 -0.2778 -0.2004 -0.1040
23550W        W41074   8.538   4.434  16.287  0.0308  0.0050 -0.1140
23551W        W41075   9.439   3.578  11.902  0.0332 -0.0882 -0.0835
23552W        W41076  12.249  13.466   0.539  0.1102 -0.3801  0.2025
23553W        W41077  13.487   2.827   1.239  0.4161  0.1623 -0.1013
23554W        W41078  15.738   5.984  14.713  0.1317  0.0741  0.2249
23555W        W41079   8.295  14.827  12.397 -0.1378  0.3611  0.3416
23556W        W41080   8.931   9.439  15.009  0.0314 -0.1706 -0.1304
23557W        W41081  17.188   5.082   5.289 -0.0857 -0.3043 -0.0176
23558W        W41082   1.879  16.636  14.349 -0.2577  0.2221 -0.1497
23559W        W41083  16.024   9.975   4.579  0.1003  0.2493 -0.2681
23560W        W41084   6.091   3.134   1.078  0.2366 -0.5164 -0.0556
23561W        W41085  11.328  17.631   5.614 -0.0928  0.0706 -0.1421
23562W        W41086   8.675   7.587   2.397 -0.2304  0.2102  0.0214
23563W        W41087   5.652  12.717  14.968 -0.1303  0.0400  0.0589
23564W        W41088  11.921  13.433  11.460 -0.0058  0.0701 -0.0171
23565W        W41089  10.985   9.292   2.486  0.1107  0.2915  0.1419
23566W        W41090   7.528   0.734   0.163  0.2580 -0.0840 -0.3149
23567W        W41091   1.314  17.092  11.640  0.1586  0.1064 -0.0979
23568W        W41092   8.760   5.458  12.417 -0.1690 -0.1067 -0.0680
23569W        W41093  13.370   9.808  15.549  0.1575 -0.0614  0.3156
23570W        W41094   7.788  16.718  13.688 -0.1135  0.0777 -0.1782
23571W        W41095  10.259   3.651   4.569 -0.0062  0.3696  0.2927
23572W        W41096  14.014  11.391  12.096  0.1260 -0.0970 -0.1916
23573W        W41097   8.288   8.949  15.461 -0.1100  0.5310  0.1206
23574W        W41098  10.257  14.578   2.571 -0.3125  0.2382  0.0951
23575W        W41099   3.134   6.120   2.006  0.0409 -0.0328  0.0906
23576W        W41100  14.483   9.178  13.912  0.1462 -0.1727  0.1993
23577W        W41101   8.080   8.294   3.429 -0.0711  0.0655  0.1830
23578W        W41102  13.033   8.923   0.711  0.4709 -0.2964  0.0161
23579W        W41103   2.931  17.582   4.467  0.2391  0.0173 -0.3037
23580W        W41104   0.426   4.145  13.508  0.3984 -0.2767 -0.2482
23581W        W41105  16.861   6.455   1.418  0.2661 -0.1013 -0.2527
23582W        W41106   4.425  17.767  11.778  0.1968  0.3634  0.0907
23583W        W41107  11.997   3.186   1.320 -0.0919  0.0344  0.0750
23584W        W41108  13.081  14.555  13.801 -0.0046 -0.0256  0.2063
23585W        W41109  13.080   8.951   4.285 -0.0015  0.0020 -0.1134
23586W        W41110   3.757   1.543   1.413  0.0367 -0.0967 -0.0259
23587W        W41111  15.584   4.028   1.908  0.1702  0.2307 -0.1491
23588W        W41112   7.846  11.313   4.076 -0.0729  0.0339  0.2421
23589W        W41113   8.773  12.016  14.678 -0.1644 -0.1794  0.1004
23590W        W41114   4.610   5.558   2.685 -0.1083  0.1228  0.1019
23591W        W41115   2.743  16.109  12.007 -0.1318 -0.1312  0.0191
23592W        W41116   4.072  15.547   0.831 -0.2387  0.1663 -0.2436
23593W        W41117   2.343   8.844  13.514  0.0860  0.1255 -0.2417
23594W        W41118  11.565   8.146   3.514 -0.0345  0.0311 -0.1416
23595W        W41119   5.126   6.249   2.551 -0.1944 -0.1508  0.0660
23596W        W41120   6.620  12.703   1.330 -0.0694  0.0724  0.3514
23597W        W41121  13.031   7.239  13.819  0.5217 -0.0497 -0.3162
23598W        W41122   0.432   9.292  13.588  0.4179  0.0857  0.0528
23599W        W41123  16.176   9.751  16.043 -0.1684 -0.1927  0.0400
23600W        W41124  15.643   5.334  14.681  0.0734 -0.0933  0.3039
23601W        W41125   0.072  15.830   3.698  0.1454 -0.1414 -0.3577
23602W        W41126  15.438  16.893   1.772  0.1619 -0.3148  0.0875
23603W        W41127   5.164  17.721  13.855 -0.0672  0.0717 -0.0427
23604W        W41128   4.061  10.798  11.469 -0.2221  0.1807 -0.1260
23605W        W41129   5.680   8.303  15.356 -0.0583  0.3397  0.0252
23606W        W41130   8.046  14.064  11.539 -0.1078 -0.3712  0.2439
23607W        W41131   3.759   6.187   1.584 -0.0998 -0.1777  0.2241
23608W        W41132   5.158   1.583   5.386  0.1931  0.3136  0.1351
23609W        W41133   9.278   0.818   3.226 -0.0687 -0.1954 -0.1191
23610W        W41134   7.665  12.148   3.437  0.1567  0.2177  0.1402
23611W        W41135   1.090   9.280   4.451  0.1786 -0.2648 -0.3036
23612W        W41136  17.952  16.980  13.965  0.1378 -0.0893  0.2638
23613W        W41137   3.398  13.536  15.004 -0.3166  0.5475  0.0801
23614W        W41138  15.582   3.558  14.641  0.2437  0.1113 -0.1880
23615W        W41139   6.953   3.666   0.228  0.1685 -0.2985  0.0149
23616W        W41140   3.006   3.101  16.247 -0.0366  0.3172  0.1822
23617W        W41141   3.632  14.823   3.015  0.1121  0.1265  0.1447
23618W        W41142  12.997   3.409  12.560 -0.0040  0.2154  0.2189
23619W        W41143  13.870  17.109  13.847  0.0793 -0.0936 -0.0253
23620W        W41144   4.968   2.422  14.844  0.0774 -0.0992 -0.0813
23621W        W41145  12.074   5.909   0.634 -0.0693 -0.0945  0.0082
23622W        W41146  13.726   0.492   4.787 -0.1051  0.0443  0.1048
23623W        W41147   2.532   9.518  11.131 -0.1524 -0.2152 -0.1924
23624W        W41148   0.367  17.556   3.312 -0.3408 -0.3522 -0.1224
23625W        W41149   5.508  14.807  14.621 -0.0210  0.0813 -0.0597
23626W        W41150   9.533   3.705  16.180 -0.0525 -0.0720 -0.0708
23627W        W41151  13.155  12.715   5.438 -0.0401  0.2703  0.1666
23628W        W41152  12.036   4.925  16.332 -0.0195  0.2989 -0.1638
23629W        W41153  12.896  11.471  15.541  0.0507 -0.0645 -0.1050
23630W        W41154  15.171   6.290  10.319 -0.3529  0.0118 -0.0063
23631W        W41155   1.808   4.489   0.432 -0.0317 -0.1076 -0.0524
23632W        W41156   9.396   9.987   4.876 -0.1791 -0.0459 -0.1480
23633W        W41157   6.950   9.238  14.773 -0.1333 -0.0244 -0.0805
23634W        W41158  14.060  12.176   1.398  0.2202 -0.0456 -0.1230
23635W        W41159   6.152   2.731   3.172  0.0234  0.1054 -0.1700
23636W        W41160   8.990   7.068  12.259  0.1444 -0.0844  0.0054
23637W        W41161   3.442   1.658  12.184  0.0411 -0.1091 -0.0404
23638W        W41162   8.971  15.703   0.586 -0.3885  0.0098  0.0976
23639W        W41163   7.111  10.677   5.374 -0.0698 -0.0506 -0.0703
23640W        W41164   7.766   6.547  14.154  0.2556  0.0447 -0.0571
23641W        W41165  13.083  13.492  13.962  0.0380  0.0266 -0.2629
23642W        W41166  15.448  15.534  15.662 -0.1061 -0.1967  0.2968
23643W        W41167   5.294  16.164   4.003 -0.1415 -0.1348 -0.2390
23644W        W41168  14.744   3.220  12.385  0.2600  0.2535  0.1671
23645W        W41169  11.058  14.081   2.936 -0.1951  0.1929 -0.2336
23646W        W41170   6.992  12.760  15.615  0.0581  0.0608 -0.0884
23647W        W41171  15.105   9.739  12.606 -0.0892  0.2282  0.2040
23648W        W41172   6.136  15.789   4.650 -0.0546  0.1832  0.1036
23649W        W41173  10.241   0.855   2.124 -0.0511  0.2745 -0.0227
23650W        W41174  15.661   2.693  12.066  0.0699 -0.2073 -0.0446
23651W        W41175   5.919   4.796  14.843 -0.2954  0.2427 -0.0432
23652W        W41176   3.946  16.432   3.655  0.1722 -0.0373 -0.2598
23653W        W41177   3.379   1.320  14.894 -0.3231  0.3730  0.0422
23654W        W41178   8.303   1.381  14.456  0.1996  0.0230 -0.2165
23655W        W41179   0.945   3.259  14.328 -0.0325  0.0878  0.0069
23656W        W41180  13.265   6.703  11.344  0.0089 -0.1162 -0.3930
23657W        W41181   2.925   8.123  14.695  0.1838  0.0851  0.2036
23658W        W41182   3.062  17.066   4.743  0.0947  0.0081  0.2803
23659W        W41183  14.696   8.352  15.349 -0.0512 -0.0087 -0.0052
23660W        W41184   8.122  14.995   0.298 -0.0479  0.0125 -0.1175
23661W        W41185   3.848  17.866   0.774  0.2765 -0.4170 -0.2769
23662W        W41186  13.547   7.036   3.807  0.0636 -0.0878 -0.0338
23663W        W41187  12.587  10.525  15.901  0.0279  0.1209 -0.2123
23664W        W41188  12.566  13.851   1.874 -0.1394 -0.0098  0.3673
23665W        W41189  10.073   2.983  12.399  0.1405 -0.0601  0.2486
23666W        W41190  14.342   9.728   4.035  0.3168 -0.0420 -0.0841
23667W        W41191  15.101  16.037   5.260 -0.0873  0.0783  0.1948
23668W        W41192   8.768  16.496  11.552 -0.2099  0.1303 -0.3107
23669W        W41193   8.666  15.704   4.614  0.1605  0.1619  0.2153
23670W        W41194   7.050   9.018  11.416 -0.1095 -0.1007  0.2164
23671W        W41195  17.669  13.940  12.016  0.0649 -0.3078  0.0106
23672W        W41196   8.844  13.009   3.169  0.2696  0.2912 -0.0888
23673W        W41197   3.783  13.797   2.649  0.0701 -0.0066 -0.0267
23674W        W41198   2.811   1.627   2.401  0.1905  0.0955 -0.1404
23675W        W41199   2.657  16.845  13.544 -0.0612  0.3093 -0.0777
23676W        W41200   1.691   8.643  11.927  0.1658 -0.0953  0.0263
23677W        W41201  10.782   3.777   4.443 -0.0214  0.1864 -0.2082
23678W        W41202   7.026   6.798  14.117  0.3346  0.0661  0.1516
23679W        W41203  11.583  14.033   5.051 -0.0135 -0.3615 -0.1576
23680W        W41204  11.716   7.430   4.591  0.2876 -0.3747  0.0919
23681W        W41205  13.987  13.814   5.128  0.0481  0.0373 -0.0390
23682W        W41206   8.228   3.064  13.668  0.0168 -0.2099  0.3740
23683W        W41207  13.075   6.032  12.144  0.0698  0.0840 -0.2066
23684W        W41208  15.957  10.237  11.961 -0.0648 -0.0165 -0.0213
23685W        W41209   9.253   1.597  13.751  0.0749  0.0473 -0.0264
23686W        W41210  13.827   4.533   1.020 -0.0345 -0.0797  0.1598
23687W        W41211   9.589   9.010   1.215 -0.0188  0.2271  0.2444
23688W        W41212  16.593  17.190   1.076  0.4063 -0.1509 -0.1366
23689W        W41213  14.432   3.778   3.629  0.2088 -0.2412 -0.1113
23690W        W41214  13.422   8.829  14.205  0.2711  0.1036  0.0601
23691W        W41215  12.323  15.615  14.125 -0.2205  0.1756 -0.1215
23692W        W41216   7.588   2.219   1.999  0.1136 -0.1315  0.2284
23693W        W41217  15.636  10.079   4.863 -0.2047 -0.0452 -0.0937
23694W        W41218  13.586   7.428  15.746  0.1693  0.2205 -0.2075
23695W        W41219  10.301   2.235   1.008 -0.1085  0.1680  0.0717
23696W        W41220   1.242   7.283   3.497 -0.0154  0.1193 -0.1686
23697W        W41221  11.310  14.203   2.360 -0.0123 -0.0916  0.0751
23698W        W41222   3.916   6.436   2.084  0.1152  0.1688  0.0531
23699W        W41223  15.322  10.167  14.815 -0.2214 -0.0316 -0.2358
23700W        W41224  11.072   4.152   1.323  0.0233  0.4089  0.0687
23701W        W41225  12.141  12.223   5.269  0.0046  0.1627  0.3880
23702W        W41226  17.183  13.217   4.463  0.0763  0.2287 -0.0225
23703W        W41227   6.772   6.418   1.673  0.2558 -0.2991 -0.1471
23704W        W41228   8.544   9.559  13.100  0.1048  0.1579 -0.0329
23705W        W41229  14.160   3.050  14.278  0.1724  0.3536 -0.1516
23706W        W41230   4.770   2.500  15.822  0.2188  0.3713 -0.1996
23707W        W41231  11.064   4.107   0.698  0.0233  0.1822  0.0963
23708W        W41232  11.608   3.161   1.810  0.0716  0.0835  0.0513
23709W        W41233  10.068   5.540  15.035  0.0919  0.1526  0.0253
23710W        W41234  14.110  10.045  14.585 -0.0297  0.1073 -0.0663
23711W        W41235   3.544   1.220  13.503 -0.4973  0.0327 -0.2255
23712W        W41236   0.103  10.391  16.049 -0.1842 -0.0797 -0.3500
23713W        W41237  12.897  17.756   3.821 -0.3084 -0.0815 -0.0133
23714W        W41238   7.063  11.556   2.230 -0.1040 -0.0732 -0.2353
23715W        W41239  17.517  17.322   2.683 -0.1921  0.0364 -0.3709
23716W        W41240   8.173   1.978   2.542 -0.1789  0.1817  0.1466
23717W        W41241   6.522   2.339   0.651  0.0748 -0.0262  0.1083
23718W        W41242  15.580  14.190  14.016 -0.2609 -0.0345 -0.0797
23719W        W41243  12.658   4.863  11.289  0.1823 -0.0199  0.2379
23720W        W41244  14.415   3.643   0.756  0.0411 -0.0340  0.3781
23721W        W41245   6.159   7.142   4.174 -0.3737  0.0722  0.4342
23722W        W41246   7.771  13.893  15.200 -0.0792 -0.0122  0.0355
23723W        W41247   8.575  14.113  10.931 -0.0604  0.0789  0.2401
23724W        W41248  11.299  13.095   3.309 -0.0664 -0.0056 -0.3013
23725W        W41249   9.798   3.439   4.490 -0.0282  0.1384 -0.0623
23726W        W41250  11.169   0.920   5.767 -0.1724 -0.0760 -0.0936
23727W        W41251  17.240   7.440  14.947  0.1253  0.2868 -0.2380
23728W        W41252  10.591   9.426  12.415  0.4217  0.0144 -0.0906
23729W        W41253  15.729   6.922   3.051  0.2401 -0.0048 -0.1335
23730W        W41254   6.253   3.765   0.962  0.0136 -0.0054 -0.1519
23731W        W41255   5.947   5.381   3.533 -0.1381 -0.2229  0.1217
23732W        W41256   2.156   5.796   3.247  0.0093  0.0714  0.2912
23733W        W41257   0.782   3.111  12.581  0.2951  0.0913  0.0513
23734W        W41258   0.729  10.528  15.336 -0.3675 -0.2705 -0.3479
23735W        W41259  11.399  16.757  14.502  0.1030 -0.0023 -0.0979
23736W        W41260  13.145  15.259   0.346 -0.1727  0.0685  0.2885
23737W        W41261  10.588   8.894  13.056  0.1091  0.1297 -0.4428
23738W        W41262  13.091   5.278   4.276  0.1277  0.0848  0.0007
23739W        W41263   9.933  14.932   2.737 -0.2510  0.0939 -0.0925
23740W        W41264  17.010  15.459  13.004 -0.2726 -0.2145 -0.1223
23741W        W41265   5.277  16.694   4.303  0.3153  0.1205  0.2370
23742W        W41266  16.854   3.358   1.477  0.3540 -0.2670 -0.1417
23743W        W41267  15.872  15.235  15.746 -0.2263  0.2343  0.1929
23744W        W41268  14.480  11.957   0.773  0.1407  0.3993 -0.3156
23745W        W41269  16.890   8.800  13.712  0.0866 -0.0727  0.2046
23746W        W41270   8.957   6.445   3.864  0.1138 -0.0687 -0.0699
23747W        W41271   3.440  13.008   1.219 -0.1332  0.0498 -0.2102
23748W        W41272   9.931  14.648   0.771 -0.0502 -0.3330 -0.0074
23749W        W41273   5.738  12.814  11.911 -0.0789  0.1387  0.1537
23750W        W41274   0.165   9.881  16.124  0.4228 -0.0979 -0.2325
23751W        W41275  12.887   4.363   2.432 -0.0593  0.1478 -0.0317
23752W        W41276   3.910   5.515  14.338 -0.0246 -0.2548 -0.1166
23753W        W41277  16.612  17.086  13.097 -0.0779  0.1208  0.0150
23754W        W41278  13.961  13.014  12.272 -0.0350  0.2411  0.2672
23755W        W41279   3.125  12.439   4.419  0.0704  0.0309  0.1922
23756W        W41280  11.368  16.591   5.059 -0.0136 -0.2561  0.0488
23757W        W41281   0.844   9.411  14.015  0.2322  0.0006 -0.0369
23758W        W41282   7.759  13.122   0.851  0.0157 -0.3006 -0.0055
23759W        W41283   7.590   5.478  13.197 -0.0542  0.0131  0.2414
23760W        W41284  10.836  10.748  13.554  0.1779 -0.2736 -0.3154
23761W        W41285   5.084   0.879  14.963  0.0061  0.2803 -0.0271
23762W        W41286  12.967  11.624   0.784 -0.0338  0.1007 -0.0893
23763W        W41287  17.842  16.312   0.940  0.1877  0.1224 -0.1361
23764W        W41288   4.168   9.929  15.876  0.2075 -0.3454  0.1201
23765W        W41289  16.343   4.243   2.686 -0.1004  0.1291  0.0429
23766W        W41290   6.976  10.181   4.427  0.0006  0.0172 -0.0113
23767W        W41291   8.778   8.776   3.900  0.2151 -0.1796  0.3471
23768W        W41292   9.133   8.101   1.203  0.0990  0.2710  0.0982
23769W        W41293   2.801   2.694   2.913  0.2955  0.2083 -0.2890
23770W        W41294  14.056   8.984   1.461 -0.0845 -0.0986 -0.1710
23771W        W41295   9.944   5.377   0.292 -0.0737 -0.1922  0.3189
23772W        W41296   0.832  14.107  13.229  0.0035 -0.2606 -0.1668
23773W        W41297   3.646   3.845   5.108  0.0944 -0.0481 -0.0620
23774W        W41298  12.125  16.090   4.748  0.0367  0.0549  0.0604
23775W        W41299   0.269   4.335   5.747 -0.1296  0.0564 -0.0649
23776W        W41300  15.750   4.344   0.613 -0.0483  0.0643 -0.0010
23777W        W41301  14.404   4.979  12.729 -0.0015  0.2905 -0.1096
23778W        W41302  17.962  15.544  14.003  0.4670 -0.1033 -0.0440
23779W        W41303   2.831  16.557  10.845  0.1603 -0.1383  0.1757
23780W        W41304   2.090   5.175   4.145  0.1924 -0.2112  0.1379
23781W        W41305   8.069  13.239   5.129  0.0262  0.1728  0.1365
23782W        W41306  16.036   2.698   0.789 -0.1275  0.2614  0.0054
23783W        W41307   1.806  12.230   3.725  0.0266  0.0027 -0.1486
23784W        W41308  12.734   5.957   2.596  0.0854  0.0665 -0.0093
23785W        W41309   9.496   3.240  12.537 -0.1701  0.2145  0.1419
23786W        W41310   3.102  14.460   2.179  0.2373  0.3838  0.1146
23787W        W41311  10.588  17.728  12.611 -0.2350  0.0185  0.0756
23788W        W41312   6.887  11.089   2.241 -0.2488  0.0315  0.1430
23789W        W41313   2.378   5.956  14.877 -0.2510 -0.3361  0.1553
23790W        W41314   7.205  10.803   3.814  0.0688 -0.0412 -0.0289
23791W        W41315   4.371  16.272  13.336 -0.0699 -0.0001  0.1559
23792W        W41316   3.906  13.575   0.012  0.1633  0.0898 -0.0017
23793W        W41317  12.363   7.459   2.981 -0.1479 -0.0008 -0.1790
23794W        W41318   4.074  15.095  12.826  0.3130 -0.1872  0.1487
23795W        W41319   0.866  17.262   1.848 -0.1031  0.1572 -0.0800
23796W        W41320   5.055  12.388  14.150  0.2901  0.0539  0.0131
23797W        W41321   0.842  16.620   0.159 -0.0745  0.0033 -0.1331
23798W        W41322   9.307  12.810   3.691  0.0119 -0.2326 -0.0871
23799W        W41323  11.098   1.788   3.115  0.0275  0.1247  0.3846
23800W        W41324   5.090  17.351   0.099 -0.0276  0.0400  0.1633
23801W        W41325   8.256  13.667   4.922 -0.1104 -0.0116  0.1154
23802W        W41326   1.844  15.555   2.025 -0.0320  0.0437 -0.0798
23803W        W41327   7.798   4.491   2.371 -0.3185  0.2548 -0.1725
23804W        W41328  15.744  13.926  11.787  0.1439  0.0205 -0.2900
23805W        W41329  10.863   5.143   3.967  0.1163 -0.1373 -0.0575
23806W        W41330   7.291  17.479  14.404  0.0381  0.2194 -0.2665
23807W        W41331  17.303  16.351  15.798  0.4871 -0.0716 -0.0179
23808W        W41332  10.086   0.498  13.779 -0.1258 -0.1161  0.0977
23809W        W41333   3.979   9.035  15.402  0.1270 -0.4718  0.3072
23810W        W41334  12.125   3.180   1.829 -0.0463  0.0016  0.1060
23811W        W41335   2.213  13.332   4.314 -0.1359 -0.1368 -0.0037
23812W        W41336  16.724  13.374   5.403  0.1090  0.2283  0.1004
23813W        W41337   6.135   2.748  16.454  0.1398  0.1629 -0.1656
23814W        W41338   5.711  11.933  15.694 -0.1007 -0.0278  0.3212
23815W        W41339  17.152  15.074  11.839  0.3343  0.0575  0.0320
23816W        W41340  11.335   6.668   5.918  0.2643  0.3087 -0.1541
23817W        W41341   3.720  12.649  15.288  0.1415 -0.4226  0.1117
23818W        W41342   0.160   8.234  15.389  0.1629  0.0423  0.2186
23819W        W41343   9.061  15.046  14.725  0.1148  0.0002  0.0149
23820W        W41344  12.926   9.204  10.657 -0.0372  0.0995 -0.3191
23821W        W41345  13.502  14.783   5.016 -0.2261 -0.0516  0.3286
23822W        W41346   3.646   5.075   2.188 -0.1034 -0.1691 -0.3154
23823W        W41347  16.182   2.166   0.803 -0.2310 -0.0239 -0.0658
23824W        W41348   7.534  17.314  10.535  0.0433  0.2750 -0.1755
23825W        W41349  15.644  13.332  15.957 -0.0600  0.1249 -0.0260
23826W        W41350   1.058   3.802   0.897 -0.3334  0.0714  0.3356
23827W        W41351  10.525   9.317   0.055 -0.0238 -0.0644 -0.3291
23828W        W41352   4.578  16.720  14.182  0.1010  0.1596 -0.0847
23829W        W41353  13.774   1.575   2.743  0.0514 -0.1569 -0.1014
23830W        W41354   8.471   9.917   3.713 -0.2553 -0.0159 -0.1937
23831W        W41355  10.364  11.588   3.104 -0.0819 -0.0202 -0.0523
23832W        W41356   7.402   0.571  14.252 -0.1134 -0.0214  0.0950
23833W        W41357   2.971   3.584  14.355  0.0779  0.0978 -0.1154
23834W        W41358   4.459  12.432   4.106  0.3506  0.1306 -0.1972
23835W        W41359   1.745  12.120   3.074  0.0445 -0.1269  0.0941
23836W        W41360   9.175   7.464   0.312  0.1153  0.2259  0.0132
23837W        W41361   2.455  12.819   4.191  0.0156 -0.0618 -0.2131
23838W        W41362   9.301   8.928   4.760 -0.1874 -0.1736  0.3215
23839W        W41363  14.940  14.704   5.015  0.0096 -0.1923  0.0790
23840W        W41364  14.827   5.438   3.549 -0.2957  0.1565 -0.1355
23841W        W41365  11.384  15.889   3.007 -0.0113  0.2165 -0.0629
23842W        W41366   0.079  17.251  13.525 -0.2738  0.0926  0.1663
23843W        W41367  13.882   0.773   1.094  0.2977  0.0700 -0.3169
23844W        W41368   9.607   4.907   1.863 -0.2176 -0.1887  0.0162
23845W        W41369  15.983   5.076   1.006 -0.0993 -0.0644 -0.0578
23846W        W41370   5.377  12.538   1.801 -0.0867  0.0644 -0.1520
23847W        W41371   9.726   2.711  12.586  0.0603  0.0797 -0.0191
23848W        W41372  17.112   7.292  13.321 -0.2155  0.1912 -0.0815
23849W        W41373   5.255  13.866   5.352 -0.0630  0.0951 -0.2285
23850W        W41374   7.428   5.497   2.736  0.3084 -0.1852 -0.0357
23851W        W41375  11.085  12.725   2.215  0.3076  0.0302  0.3416
23852W        W41376  15.559  16.711  16.371 -0.3895 -0.1144  0.1446
23853W        W41377   7.912   4.236  12.030  0.0424  0.3007  0.0876
23854W        W41378   4.635   2.106  14.534  0.0945  0.1124 -0.2281
23855W        W41379  14.112   4.643  12.983 -0.0802  0.2796 -0.2267
23856W        W41380   4.618  10.392  13.133  0.0880  0.1041  0.2234
23857W        W41381   8.867   7.267  11.827  0.1932 -0.2538 -0.3932
23858W        W41382   6.052   5.855  14.977 -0.3345  0.1553 -0.0144
23859W        W41383   2.926  17.705   3.522  0.0148 -0.0218 -0.2716
23860W        W41384  17.344   5.865  13.299 -0.0048 -0.5519  0.1664
23861W        W41385   5.199   9.980  13.902 -0.1460  0.1785 -0.0120
23862W        W41386  17.583   2.564   4.328  0.0523 -0.3257  0.0968
23863W        W41387  17.880   9.269   1.163 -0.0869  0.1054  0.0945
23864W        W41388   5.089  15.778  13.775  0.0639  0.2512  0.4642
23865W        W41389   0.152  11.661  13.096 -0.0116  0.1180 -0.0960
23866W        W41390   6.400  12.372  15.884 -0.1579 -0.1085 -0.1744
23867W        W41391  11.448   2.356  14.653  0.1708 -0.2155  0.0890
23868W        W41392   7.754  12.058   0.599 -0.1234  0.2333  0.0254
23869W        W41393  13.063  15.550   2.437  0.1267 -0.1822  0.0649
23870W        W41394  10.953   7.692  12.590 -0.4169  0.2513  0.1563
23871W        W41395   3.840  14.949   4.826 -0.3582 -0.0276 -0.0266
23872W        W41396   6.973   6.262  10.439 -0.1813 -0.1201  0.0886
23873W        W41397   1.442  10.525  15.772  0.0716  0.1243  0.1267
23874W        W41398   5.918   3.394  15.250 -0.1522  0.0441 -0.0976
23875W        W41399  13.944   0.028  11.728  0.4021 -0.0052 -0.0188
23876W        W41400   5.942  15.144  10.380  0.1080  0.1019 -0.0509
23877W        W41401   2.663   1.436  12.768 -0.1837  0.0338 -0.2357
23878W        W41402   4.131  14.209   4.721  0.1003  0.1906 -0.1719
23879W        W41403  14.404   2.452   0.902  0.3727  0.0433  0.0555
23880W        W41404  11.924   4.151   4.566  0.1511 -0.1319  0.2111
23881W        W41405  11.001  15.426   0.978  0.2929  0.1304 -0.3299
23882W        W41406  12.714   2.329  13.960  0.2415 -0.1518  0.0869
23883W        W41407  16.958   6.005  14.276  0.2351  0.0591 -0.1517
23884W        W41408   9.609  17.520   4.181  0.0142 -0.3741  0.3284
23885W        W41409  13.510  14.751   2.650 -0.2403 -0.1928 -0.4380
23886W        W41410   6.921   8.303  13.605  0.1555  0.2603 -0.0579
23887W        W41411  12.110  17.598  12.214  0.3979  0.0907  0.1591
23888W        W41412  17.738   8.470   0.686 -0.1959  0.1284  0.2533
23889W        W41413  13.302   7.439   3.913  0.0050  0.1203  0.1268
23890W        W41414  14.352   1.070  11.423  0.2823  0.1472 -0.3459
23891W        W41415   8.860   2.975  15.342 -0.0729  0.1796  0.1454
23892W        W41416  15.181   3.884  13.403 -0.1244  0.1009 -0.0045
23893W        W41417   6.707  14.391   4.757 -0.0696  0.0984 -0.2086
23894W        W41418  14.108   4.021  16.434 -0.0950 -0.1447  0.1164
23895W        W41419  13.019   7.284   0.147 -0.1934  0.2056  0.2299
23896W        W41420   5.746   1.740   3.599  0.1775  0.0904 -0.1243
23897W        W41421  12.896   9.726  12.907 -0.1267  0.3329  0.0059
23898W        W41422   5.858   6.448   2.006 -0.2512  0.0300  0.1207
23899W        W41423   1.358  13.450   1.220 -0.1049  0.2212 -0.0293
23900W        W41424  11.602  16.281   3.809  0.0936  0.1737 -0.2823
23901W        W41425   9.747  16.703   3.912  0.1919  0.2266  0.2252
23902W        W41426   4.102  14.593  14.736 -0.0513  0.0788 -0.0061
23903W        W41427  17.508   7.135  11.037 -0.0037  0.1283 -0.3837
23904W        W41428  10.403  14.769   0.521  0.0810  0.0657 -0.0445
23905W        W41429  14.307  11.543  11.194 -0.0370  0.0520 -0.2634
23906W        W41430   2.561   1.719  12.236 -0.3495 -0.1890 -0.3571
23907W        W41431   4.056  16.830   3.434 -0.0890  0.0179  0.0553
23908W        W41432   8.635  13.620  12.024 -0.1331  0.0652  0.1058
23909W        W41433   5.087  15.270   3.848 -0.1956 -0.0090 -0.2473
23910W        W41434  14.988   2.009   5.665  0.0498 -0.2012 -0.1085
23911W        W41435  12.239   0.097  14.047  0.1251  0.0826 -0.0115
23912W        W41436   5.046  17.027  15.766 -0.0823 -0.1136  0.1519
23913W        W41437   8.933   7.185   3.132  0.2010 -0.0280 -0.0917
23914W        W41438   7.048   9.082   3.323 -0.0069  0.0845 -0.1852
23915W        W41439   2.487  16.790   4.883  0.0815 -0.2509  0.0266
23916W        W41440   5.864   4.858  13.843 -0.0026 -0.0828  0.0017
23917W        W41441   7.250  12.259  13.420 -0.0050 -0.0826  0.1831
23918W        W41442  10.437  14.535  13.405  0.1576 -0.0194 -0.1305
23919W        W41443   8.408  13.941   5.335  0.2019  0.2713 -0.2126
23920W        W41444   8.663   8.865   1.764  0.1102  0.1595 -0.0372
23921W        W41445   4.626  12.940   2.183 -0.1698  0.0875  0.0271
23922W        W41446  14.392   4.705  14.201 -0.2975  0.3406 -0.1565
23923W        W41447   5.738   9.505   5.449 -0.0609  0.1843 -0.3848
23924W        W41448  15.685  17.732  15.412 -0.0927  0.2131 -0.4073
23925W        W41449  10.026   2.662  16.206  0.1475 -0.0389  0.0472
23926W        W41450   9.195   0.910   5.834  0.1387  0.2638 -0.0690
23927W        W41451  13.133   4.026  14.657 -0.0173 -0.1950 -0.1223
23928W        W41452  12.115  12.885  11.820  0.1767  0.2346  0.0922
23929W        W41453   7.438   2.012  12.444  0.3222  0.0768 -0.0416
23930W        W41454  12.034   5.007   0.861 -0.0523 -0.2184  0.0791
23931W        W41455  16.578   3.965   3.982  0.1331 -0.2018 -0.3602
23932W        W41456   9.313  15.450   3.241 -0.0271 -0.0234  0.1075
23933W        W41457   3.229  17.743  15.329  0.0068 -0.4214 -0.1979
23934W        W41458  13.781   3.453  15.583  0.2103  0.0476  0.0084
23935W        W41459  16.381  10.653  12.808  0.3095  0.0624  0.1917
23936W        W41460   4.560  16.300   4.878  0.2692  0.2518 -0.2672
23937W        W41461   2.663   9.049  15.706 -0.0185 -0.0686  0.0334
23938W        W41462   4.170   1.366   4.966  0.0517 -0.0172  0.2092
23939W        W41463  10.319   6.661  14.088  0.0309 -0.1480  0.1447
23940W        W41464  14.796   8.234   4.199 -0.1380  0.0363  0.0092
23941W        W41465   9.083   3.065   0.937  0.0835  0.2234  0.0294
23942W        W41466   0.828   1.232   4.327  0.1115 -0.1240 -0.3093
23943W        W41467  14.605  17.681   3.572  0.3271  0.0431  0.1143
23944W        W41468   8.060   7.467   4.634  0.0782  0.0788 -0.3351
23945W        W41469   6.677   2.401   2.473  0.3172  0.0607 -0.1903
23946W        W41470   5.022   3.632   4.428 -0.0741 -0.0534  0.0384
23947W        W41471  13.228  13.546  12.685 -0.1023  0.2234 -0.0155
23948W        W41472  12.485   8.987  15.719 -0.1070 -0.0672  0.1714
23949W        W41473  17.194  15.591   4.805  0.0257  0.0110  0.2099
23950W        W41474  14.540  11.629  16.417 -0.1771 -0.3130 -0.1265
23951W        W41475   9.926  11.575   2.775  0.0691 -0.0105 -0.2956
23952W        W41476   7.000  14.295  11.422 -0.0002  0.0301 -0.1460
23953W        W41477   2.721   6.223  13.458 -0.1759 -0.2017 -0.0917
23954W        W41478  11.625   9.894  15.253 -0.0134  0.0585  0.0463
23955W        W41479  16.461   3.316   4.794 -0.2295 -0.4012 -0.1413
23956W        W41480  16.000   7.150  15.014  0.4171  0.0976  0.4928
23957W        W41481   5.341   9.734   5.124 -0.0706  0.2000  0.1400
23958W        W41482   2.976  11.530  16.046  0.2244 -0.3720  0.1804
23959W        W41483  11.830   7.159  13.832 -0.1008  0.0297  0.0694
23960W        W41484   5.329  15.287  10.727 -0.5266  0.0847 -0.0704
23961W        W41485  15.259   7.063   2.759 -0.1160 -0.1845  0.1065
23962W        W41486  14.118  14.437  15.959  0.1852 -0.0953 -0.1364
23963W        W41487  12.821  11.824   4.387 -0.2062  0.1863 -0.0163
23964W        W41488   9.859  11.252   1.615 -0.0702 -0.0482 -0.0044
23965W        W41489  13.266   2.317   2.358 -0.0595 -0.0469  0.0753
23966W        W41490   6.571   6.689   1.320 -0.0184 -0.4580 -0.1266
23967W        W41491  16.944  10.471  12.856  0.2394  0.0562 -0.2943
23968W        W41492  12.763   4.965   4.049  0.0304 -0.0711  0.0983
23969W        W41493   3.718   6.203  16.066 -0.2007 -0.0693  0.1752
23970W        W41494  10.745   6.661   0.038 -0.1423  0.1963  0.1910
23971W        W41495   1.754   9.900  14.403 -0.2478 -0.0751  0.3128
23972W        W41496  15.404   0.565   6.183  0.2504  0.0461 -0.1172
23973W        W41497  11.151   9.429   1.111 -0.2207 -0.1500 -0.2848
23974W        W41498  12.079  11.393   4.915  0.1161 -0.4416  0.1272
23975W        W41499  15.588   2.259  12.222 -0.2752  0.3066 -0.0943
23976W        W41500  16.788   5.215  15.034  0.0181  0.0683 -0.1969
23977W        W41501   0.779   4.183   4.376 -0.1114 -0.0007 -0.3386
23978W        W41502  12.978   5.878  14.502 -0.3137  0.1261  0.1205
23979W        W41503   3.760  10.349  15.275 -0.0185  0.1584  0.0011
23980W        W41504   1.026  17.509  11.439 -0.1425 -0.3315  0.0134
23981W        W41505  12.535   8.798   4.163 -0.1252 -0.0148  0.2418
23982W        W41506   3.077   4.768   3.207 -0.0757 -0.2980 -0.2467
23983W        W41507   1.536   7.804   4.188 -0.0464 -0.1233 -0.1012
23984W        W41508   5.891   1.588   1.591  0.0053  0.2354  0.0956
23985W        W41509  17.517   4.053  14.361 -0.0235 -0.2031 -0.0491
23986W        W41510   8.401   4.588  14.165  0.0837 -0.4812 -0.0765
23987W        W41511   9.522  14.570   2.752 -0.0445 -0.1386 -0.1759
23988W        W41512   1.177   8.791  11.992 -0.0799  0.1029 -0.3493
23989W        W41513   3.997   3.309  13.040  0.1510 -0.0296 -0.2223
23990W        W41514   9.987   3.107  15.739  0.0945 -0.0059  0.3038
23991W        W41515  14.471  11.017   3.794  0.1167  0.0967  0.1390
23992W        W41516   0.243  14.294   1.707  0.1202 -0.2987 -0.2408
23993W        W41517   5.129  14.452  15.310  0.1794  0.2302  0.2098
23994W        W41518   0.639   7.714   4.933 -0.4376  0.0497 -0.3035
23995W        W41519   2.852  16.204   1.666  0.1475  0.1570 -0.0560
23996W        W41520   1.880   1.009   2.813 -0.2637 -0.0317 -0.1255
23997W        W41521   8.707   5.013   0.912 -0.0789  0.0270  0.1243
23998W        W41522   1.856   6.751  11.434 -0.1663  0.0248 -0.0939
23999W        W41523  12.046   8.562   0.412  0.1412 -0.5705 -0.1872
24000W        W41524  17.762  14.320  13.176 -0.1470 -0.2405 -0.1698
24001W        W41525  16.077  10.212   1.210 -0.1161 -0.3423  0.1412
24002W        W41526   6.763  15.835   0.150  0.1592 -0.1053  0.0931
24003W        W41527  16.095   8.854  13.532  0.1012 -0.1363  0.0135
24004W        W41528   8.373   7.739  14.667 -0.1901  0.0987  0.1223
24005W        W41529   2.499   4.813   4.124  0.1272  0.0243 -0.1467
24006W        W41530   7.645  14.709   2.947  0.2556 -0.0436  0.0539
24007W        W41531  12.013  16.771   1.539  0.1272  0.0366  0.2791
24008W        W41532  15.073   7.889  14.187  0.1369 -0.0487  0.2299
24009W        W41533   4.916   6.922   1.974 -0.3863 -0.1000 -0.1532
24010W        W41534  15.709   2.744  14.291  0.1367 -0.2297 -0.2755
24011W        W41535  13.799  17.937   0.238 -0.2010 -0.1739  0.2894
24012W        W41536  15.650   4.193   2.566  0.5156  0.0159 -0.0299
24013W        W41537  13.960   1.087  14.669 -0.0248  0.0600  0.1623
24014W        W41538  14.988   5.383   4.145  0.3380  0.1164  0.2265
24015W        W41539  15.712   1.748  13.392 -0.2637 -0.0307  0.2616
24016W        W41540  13.554   7.905  11.915 -0.0284 -0.1935  0.4436
24017W        W41541  14.446   5.275  14.154 -0.0554 -0.1904  0.1148
24018W        W41542   8.095   0.108  12.251  0.2649  0.2703 -0.1698
24019W        W41543   4.983  11.410   4.351 -0.0177  0.2602 -0.0620
24020W        W41544   5.801   5.363   5.004 -0.1251  0.2793 -0.0957
24021W        W41545  10.882   4.993  13.935 -0.0230  0.0298  0.4082
24022W        W41546   0.152   4.771   0.602  0.1133  0.1199 -0.0277
24023W        W41547  12.435   8.541  11.269  0.3663  0.0887  0.1054
24024W        W41548  11.067  17.524  12.563  0.0789 -0.0065  0.0824
24025W        W41549  17.350  11.384  12.268 -0.2792  0.1017 -0.0129
24026W        W41550  13.170   0.289   2.338  0.0551 -0.3500 -0.0311
24027W        W41551  13.723  13.094   0.708 -0.1208  0.0529  0.0871
24028W        W41552  14.407  13.785   2.711 -0.2126  0.1783  0.1809
24029W        W41553   5.703   5.818  12.721  0.2275  0.1309 -0.1004
24030W        W41554   6.536   5.758   1.616 -0.0039 -0.0818  0.1024
24031W        W41555   5.018   5.538  12.161  0.0306 -0.0153 -0.0276
24032W        W41556  17.630  14.922  14.659 -0.0402  0.0262  0.3265
24033W        W41557   8.098  17.964  11.642  0.0459  0.3217  0.0721
24034W        W41558   2.503   4.427  16.304 -0.3492 -0.0778 -0.2082
24035W        W41559   1.466   2.893   4.036  0.2644 -0.1308  0.0378
24036W        W41560  17.535  10.140   2.064 -0.1348 -0.1706  0.1974
24037W        W41561  12.270  11.430   1.974  0.0529 -0.0544 -0.0721
24038W        W41562  14.286  15.167  13.684  0.1140  0.0848  0.0206
24039W        W41563  15.830  14.626  12.238 -0.1713  0.0221 -0.1163
24040W        W41564   9.699  15.755  14.892  0.1632  0.0744  0.1947
24041W        W41565  11.319   5.034   4.157 -0.0503 -0.0851 -0.1714
24042W        W41566  10.092  13.135  12.534 -0.2131  0.1878  0.0377
24043W        W41567  12.634  11.989  12.493 -0.1115 -0.0954 -0.2033
24044W        W41568  11.708   6.267  14.451  0.1212  0.0728 -0.0646
24045W        W41569   3.851   6.952  14.279 -0.1958  0.2699 -0.0779
24046W        W41570   6.452  10.815   1.788 -0.1752 -0.2197  0.1000
24047W        W41571  14.260  12.754  12.629 -0.1484 -0.0095 -0.0563
24048W        W41572  16.377   9.312  16.005  0.2435  0.0408 -0.0831
24049W        W41573   6.353   9.822   1.865 -0.0130  0.1586 -0.1694
24050W        W41574  13.994   4.728   3.838 -0.0120  0.3693  0.1822
24051W        W41575   5.846   2.353   3.422  0.0555  0.3275 -0.0901
24052W        W41576   5.669   3.511   2.193 -0.1496 -0.2041 -0.1005
24053W        W41577   6.393  14.744  14.388  0.0917  0.1540 -0.1693
24054W        W41578   5.932   2.335   0.873 -0.0705 -0.2543 -0.2016
24055W        W41579  11.203   4.472  10.401 -0.2176  0.1857 -0.0092
24056W        W41580   1.059  11.285  14.285  0.2818  0.0672 -0.2607
24057W        W41581   9.104   3.490  15.437 -0.0244 -0.0818 -0.1725
24058W        W41582  15.321   3.421  12.537  0.0003  0.0351 -0.2747
24059W        W41583  13.169   5.613   4.897 -0.1255  0.0526 -0.0340
24060W        W41584   0.447   5.808  11.959  0.0184  0.2105 -0.0735
24061W        W41585   6.700   3.280  16.203  0.1946  0.0234 -0.1438
24062W        W41586  16.366  13.952   4.722 -0.0154  0.1678  0.0251
24063W        W41587   8.946   4.183   0.112  0.0155 -0.2744  0.4850
24064W        W41588  15.404   2.006   5.414 -0.1554 -0.0423  0.0275
24065W        W41589   4.255   5.740  11.547  0.3556  0.0298  0.0449
24066W        W41590   3.303  14.949   1.911  0.1958  0.0777  0.0459
24067W        W41591   5.519  17.964   0.811  0.0860 -0.1211  0.0051
24068W        W41592   8.802   8.491  13.800  0.4930  0.0813  0.2773
24069W        W41593   4.216  10.629   4.820 -0.0357  0.0853 -0.0635
24070W        W41594  12.809  14.351   2.886 -0.0720  0.4040 -0.1203
24071W        W41595   1.096   2.373  14.281 -0.4002  0.0308  0.1754
24072W        W41596  10.194   8.466   0.395 -0.0311  0.3054  0.1128
24073W        W41597   4.739   7.843   0.783 -0.0839 -0.0257 -0.2222
24074W        W41598  14.394   4.466   4.145 -0.1941  0.0509 -0.0980
24075W        W41599  13.364   7.543   3.162 -0.0459  0.1200  0.0417
24076W        W41600   9.766  17.472   1.421  0.4343 -0.1044  0.1557
24077W        W41601   6.811  16.118   2.661 -0.0083  0.0154 -0.0781
24078W        W41602  10.027   5.730  10.525  0.4121  0.2116  0.1622
24079W        W41603  12.067  15.448  12.103 -0.0236  0.0895 -0.3994
24080W        W41604   8.481  12.119   3.946 -0.0250 -0.1239 -0.0823
24081W        W41605   0.909  13.206  15.496 -0.2120  0.1114  0.1252
24082W        W41606   1.282  11.415   3.812  0.0320 -0.1500  0.1168
24083W        W41607   0.217  17.652   4.455  0.1030 -0.0238 -0.2320
24084W        W41608   9.699  13.435   0.635  0.0755 -0.0763  0.2724
24085W        W41609   9.213  16.098   1.531  0.0134  0.1381 -0.2129
24086W        W41610  11.334   9.971  12.645  0.1490 -0.0138  0.0857
24087W        W41611  17.028   7.659   2.252  0.0435 -0.0892 -0.0819
24088W        W41612  16.231   4.009   1.189 -0.2466  0.2023 -0.0529
24089W        W41613   6.547   6.706  12.270 -0.3279  0.0111  0.5373
24090W        W41614  16.546  12.452  13.447  0.0232  0.0830  0.2304
24091W        W41615   8.474   9.222  15.013  0.1974  0.4162  0.3129
24092W        W41616   5.136  14.039  14.952 -0.0917 -0.0827 -0.0736
24093W        W41617   6.891   5.418  16.164 -0.0634 -0.1269  0.0654
24094W        W41618  11.068  11.198   3.294 -0.0392  0.0273 -0.0651
24095W        W41619  14.036  12.537  11.977  0.2062 -0.2806 -0.0152
24096W        W41620   5.163  15.243  13.830  0.0586  0.0082  0.0319
24097W        W41621   5.324   2.966   0.585  0.0370 -0.1198  0.2753
24098W        W41622   6.494   5.289  11.543 -0.0293  0.2047  0.2697
24099W        W41623  13.028   7.154  11.503  0.1148 -0.1676 -0.0226
24100W        W41624   9.864   2.576  11.969 -0.1594 -0.5390  0.1252
24101W        W41625  11.877  17.756   1.183 -0.1838 -0.0005 -0.1799
24102W        W41626   9.198   5.323   3.568 -0.0432  0.1782 -0.0471
24103W        W41627   4.439   2.571  14.613  0.0113 -0.2586 -0.4647
24104W        W41628  10.275  13.311  13.338  0.1543 -0.2493 -0.2467
24105W        W41629   0.549  16.557   1.702 -0.3105 -0.0593  0.0581
24106W        W41630  17.956   3.915  14.297 -0.1251 -0.1152 -0.0567
24107W        W41631  14.182   0.507  13.044 -0.3020 -0.0086 -0.0124
24108W        W41632   8.876  10.293  15.287 -0.0496 -0.0850 -0.2406
24109W        W41633  16.627   8.803   1.335  0.1073  0.1883 -0.0555
24110W        W41634   2.774   3.543  15.416  0.1245  0.2118 -0.1558
24111W        W41635   2.129  15.501   0.722 -0.1306  0.2367  0.4052
24112W        W41636   2.163   0.671   4.079  0.0330  0.3801 -0.0694
24113W        W41637   8.208   9.491   3.429  0.2809 -0.0059  0.1596
24114W        W41638  14.914   4.979   4.646 -0.0872  0.2861 -0.0783
24115W        W41639   8.248   7.135   3.831 -0.0631 -0.0885  0.0167
24116W        W41640  15.411  11.560   0.989  0.3057 -0.0674  0.2077
24117W        W41641  11.371   1.418  12.737  0.2678  0.2164  0.1485
24118W        W41642  11.831   6.001  13.330  0.1141  0.0721  0.1417
24119W        W41643   5.254   7.625   0.714 -0.0201 -0.1972 -0.2166
24120W        W41644  15.987   9.137   2.973 -0.2695 -0.2228  0.2804
24121W        W41645   4.172   4.053   1.598 -0.1588  0.0787  0.0724
24122W        W41646  11.530   1.961  16.215 -0.0644  0.0959  0.1651
24123W        W41647  13.175   5.724  12.864  0.1212  0.0240 -0.0194
24124W        W41648  10.354   4.630  12.474  0.0005 -0.1382  0.1377
24125W        W41649   9.705  17.020   4.501 -0.4415 -0.2347  0.3379
24126W        W41650  11.030   5.759  15.291  0.2377 -0.3146 -0.0161
24127W        W41651   5.744  17.666  12.310  0.0653 -0.0316 -0.1507
24128W        W41652   2.678   1.811   4.961 -0.1537 -0.1934 -0.0572
24129W        W41653  11.909  11.091   0.600  0.2200 -0.3081 -0.2764
24130W        W41654   6.610   5.865  14.163 -0.1067  0.2083  0.0646
24131W        W41655   9.851   1.280   4.892  0.0626  0.0066 -0.0762
24132W        W41656   3.444   9.099   0.756 -0.1185  0.2232 -0.2099
24133W        W41657  12.790  17.934   0.662  0.0843 -0.0503 -0.0328
24134W        W41658  15.214  13.533  13.472 -0.2871 -0.1410  0.0824
24135W        W41659   3.868  17.467   5.055 -0.0125  0.2662  0.2190
24136W        W41660  10.511  13.634  13.711  0.1458  0.0711 -0.1657
24137W        W41661  13.820   8.263  14.857 -0.1188 -0.1600  0.0467
24138W        W41662   7.080   2.210   2.238  0.1215 -0.1590 -0.1687
24139W        W41663   5.945   8.727   0.758 -0.0006 -0.1712  0.0569
24140W        W41664  14.467  15.205  11.970 -0.2780 -0.1605 -0.4329
24141W        W41665  13.232   5.374  14.657  0.2480  0.0515  0.1602
24142W        W41666   2.899   2.234   3.666  0.0794 -0.1171  0.0721
24143W        W41667   7.950   2.637   4.972 -0.2907  0.2801  0.0895
24144W        W41668   1.715   6.638  14.577  0.0397  0.1880 -0.3504
24145W        W41669   7.379  11.676   3.428 -0.0106  0.1559  0.1660
24146W        W41670   8.047   3.995  15.997  0.1125  0.0476 -0.0086
24147W        W41671  16.391   7.909  11.653 -0.1239 -0.0275  0.2906
24148W        W41672  13.253   2.295   0.182  0.1085  0.0448 -0.1924
24149W        W41673  13.758  12.771  16.115  0.1269  0.2167  0.1497
24150W        W41674   1.779  12.035  13.621 -0.1393 -0.1888 -0.0564
24151W        W41675  17.843  16.381  15.070 -0.2110  0.0788  0.0508
24152W        W41676   1.784  16.901   0.046  0.2042 -0.0324 -0.2705
24153W        W41677   2.019  15.203   3.162  0.2903 -0.2897 -0.0627
24154W        W41678   5.057  16.127  12.033 -0.0396 -0.1293 -0.1942
24155W        W41679  11.950   0.685   2.656 -0.1806 -0.0916 -0.3663
24156W        W41680   5.487   2.010  13.610  0.0525 -0.0218  0.1225
24157W        W41681   6.671  11.279  11.488  0.1437  0.1459  0.3244
24158W        W41682  17.700   5.034  15.009  0.3184  0.2377  0.2575
24159W        W41683   3.547  10.954   0.446  0.1895  0.0634  0.0123
24160W        W41684  14.713   6.497  15.813 -0.1078 -0.0490 -0.0472
24161W        W41685  15.886   8.634  12.066 -0.0777 -0.2518 -0.0766
24162W        W41686   3.597   8.495   5.490 -0.0963  0.2380 -0.2275
24163W        W41687  14.854   1.889  12.193  0.0798  0.1606  0.2095
24164W        W41688   4.172  15.153  14.568 -0.2718  0.1997  0.0325
24165W        W41689   7.870  14.983  14.321 -0.1927 -0.0667  0.4051
24166W        W41690   1.642  15.265   0.011 -0.1249 -0.0502  0.0749
24167W        W41691   9.894  12.845   4.867 -0.0401  0.0278 -0.2930
24168W        W41692  12.109   1.029  13.108 -0.3882 -0.0708  0.0427
24169W        W41693   1.398  14.422  15.098 -0.0394 -0.1201  0.0250
24170W        W41694   3.766   1.956   5.682  0.1990 -0.1242  0.1674
24171W        W41695   1.306  14.039   0.130  0.0852  0.0811  0.1083
24172W        W41696   3.758  16.298   1.791  0.2296 -0.1267  0.1312
24173W        W41697  15.035   9.596  15.443  0.2440 -0.2979 -0.6212
24174W        W41698   6.872  11.810   3.390 -0.1199 -0.1347  0.1761
24175W        W41699   5.327   8.654   2.760  0.3150  0.1355  0.0821
24176W        W41700  12.962   8.437   2.585  0.0128 -0.2286  0.1703
24177W        W41701  15.568   9.379  16.422 -0.1377  0.0627 -0.3274
24178W        W41702  12.790  11.794   3.893 -0.1454 -0.2542  0.0477
24179W        W41703   4.859  11.034  15.208  0.0239 -0.1244  0.1302
24180W        W41704   1.003  14.735  12.171  0.1034  0.2387 -0.0372
24181W        W41705  10.999  14.756   0.498 -0.3233  0.1038 -0.2678
24182W        W41706   9.486   4.500  11.266 -0.0779  0.1820  0.0148
24183W        W41707   1.838   3.734   2.442  0.2967 -0.0918 -0.3786
24184W        W41708  12.964  12.527   0.137 -0.4592  0.0676  0.0008
24185W        W41709   7.936  15.680   0.942  0.2875  0.0583 -0.0838
24186W        W41710  14.785   8.211  15.911 -0.1883  0.1079  0.0404
24187W        W41711  17.473  15.362  13.733 -0.0215  0.3607  0.3196
24188W        W41712   6.413   5.078   1.043 -0.1120  0.0823 -0.4286
24189W        W41713   7.002   0.764  13.964  0.1661 -0.1122 -0.1450
24190W        W41714  12.780  10.453   2.201  0.0706 -0.2102 -0.1665
24191W        W41715  10.393   8.558  14.916 -0.1724 -0.3636 -0.3591
24192W        W41716  15.633   0.355  14.592  0.2985 -0.1444 -0.0008
24193W        W41717   1.722   5.448   1.723 -0.0901  0.1005 -0.0976
24194W        W41718   4.266  16.082  12.814  0.0045 -0.0802 -0.1019
24195W        W41719   5.969  12.297   3.389  0.0625 -0.3076 -0.2294
24196W        W41720  17.109   6.432  15.188 -0.0424  0.2549 -0.2269
24197W        W41721   0.926  12.276   0.099  0.1474 -0.1012  0.0724
24198W        W41722   3.955   9.146  12.705  0.1317  0.0112  0.0245
24199W        W41723   0.608   0.329   1.142 -0.1375  0.0272  0.1757
24200W        W41724  14.943  16.427  13.851  0.0537 -0.0911  0.3449
24201W        W41725  14.636   2.941   1.895  0.2150  0.3709 -0.1942
24202W        W41726  17.901  10.658   0.030 -0.1338  0.1546  0.1201
24203W        W41727   2.652  11.083   0.454 -0.2667  0.0935  0.1395
24204W        W41728  14.337  15.666  16.383 -0.2183  0.2447  0.0139
24205W        W41729   0.810  17.155   0.817  0.3317  0.3232 -0.2274
24206W        W41730   4.706   1.207   4.349  0.2689  0.2880 -0.2833
24207W        W41731  17.012   2.012  14.277  0.1965 -0.4200 -0.1895
24208W        W41732   7.824   6.212  16.395  0.1201  0.3099 -0.0746
24209W        W41733   4.034  17.605   0.180  0.2454 -0.0153 -0.0400
24210W        W41734   4.246  15.486  11.995 -0.1957  0.3064 -0.3558
24211W        W41735  16.682  17.295  16.272 -0.0397  0.0161  0.0656
24212W        W41736  17.922  16.711  13.479 -0.2898  0.1646 -0.1401
24213W        W41737  14.786  14.867  15.776  0.1177 -0.0855  0.1568
24214W        W41738  10.839   9.996   2.681 -0.1093  0.2518  0.0167
24215W        W41739   4.370   5.603   0.153 -0.1066  0.1170  0.0047
24216W        W41740  13.038  14.109   1.958  0.1752  0.0900 -0.1080
24217W        W41741  17.611   1.190  14.877  0.0952 -0.0454  0.1862
24218W        W41742   9.109   5.528   2.283  0.3803  0.0012  0.1322
24219W        W41743   0.446   2.774  12.676  0.2276  0.2575  0.0843
24220W        W41744   7.864   6.862   0.789  0.0988 -0.0465  0.1306
24221W        W41745  10.977  13.550  12.354  0.1462  0.3050  0.1361
24222W        W41746   5.486   9.215  14.349 -0.3789  0.1812  0.2723
24223W        W41747  13.098  16.537   3.787 -0.0981  0.0343 -0.3407
24224W        W41748   6.062   7.198   0.672 -0.0391  0.1223  0.3505
24225W        W41749  13.278  16.737  15.553 -0.0102 -0.0708 -0.0203
24226W        W41750  15.548  15.028  15.444 -0.2858  0.2021  0.2896
24227W        W41751   1.266   6.718  12.649  0.2340  0.0350 -0.1565
24228W        W41752   9.967   7.599  13.338 -0.1147  0.3048  0.2484
24229W        W41753  11.326   5.492   3.927 -0.1221  0.0918 -0.0468
24230W        W41754  14.542   4.770  16.345  0.0812  0.0265  0.2771
24231W        W41755   4.818   1.856   0.057  0.1319  0.1186  0.1200
24232W        W41756   7.413   6.556   0.763 -0.2298  0.1046  0.1838
24233W        W41757  16.735  10.684   2.412 -0.2877  0.4551 -0.1000
24234W        W41758   4.669  10.159   2.522  0.3831 -0.0744 -0.1389
24235W        W41759   3.145  12.055   0.664 -0.1065  0.2898  0.1984
24236W        W41760   5.537  14.394  16.452  0.2088 -0.0356  0.0378
24237W        W41761   4.562  17.575   2.941 -0.1861  0.1434 -0.0097
24238W        W41762   8.251  15.044  11.456 -0.3077 -0.0066 -0.3049
24239W        W41763  14.358  11.780   4.522 -0.0872 -0.0394  0.2442
24240W        W41764   3.138   4.886  13.372  0.0576  0.1813 -0.2067
24241W        W41765  15.767   7.804   1.271 -0.1564  0.3372 -0.0090
24242W        W41766  10.985   6.297  13.534 -0.0866  0.2093 -0.1575
24243W        W41767  13.922   8.373  12.718  0.0821  0.2842 -0.0365
24244W        W41768  11.560   6.058   5.218 -0.0799 -0.2037 -0.2257
24245W        W41769  15.255   8.492   3.944  0.3359 -0.1104  0.1539
24246W        W41770   8.269   2.963   2.941  0.0868 -0.0059  0.0305
24247W        W41771  11.800   9.394  14.559 -0.1909 -0.0681  0.1519
24248W        W41772  12.162   9.925   3.593  0.2269  0.0809 -0.1373
24249W        W41773   8.342  14.212   4.857 -0.2847 -0.1667  0.3217
24250W        W41774  13.897   6.364  11.638 -0.1539  0.0829  0.0564
24251W        W41775  13.497  12.644   1.381  0.0867  0.1812  0.0312
24252W        W41776  13.654   4.412   4.198  0.1560  0.0763  0.0898
24253W        W41777  16.103   9.916   1.692  0.2723 -0.0606  0.0699
24254W        W41778   1.486   9.740  16.049 -0.2421  0.4369 -0.1133
24255W        W41779  15.950   1.759   3.316 -0.1529 -0.2663  0.3095
24256W        W41780  12.323  16.964   0.856 -0.1803  0.0338 -0.0693
24257W        W41781   3.261   9.053   4.132 -0.0197 -0.2877  0.0305
24258W        W41782   6.674   5.448  12.702 -0.1698  0.1075 -0.1322
24259W        W41783  12.825  10.082   4.482  0.0521 -0.1485  0.1052
24260W        W41784  10.762   6.652   3.000 -0.1309  0.3205 -0.1680
24261W        W41785   3.512   7.993  16.418 -0.0888 -0.3054 -0.1406
24262W        W41786  16.134  13.056  13.539  0.1214  0.1357  0.0955
24263W        W41787   4.158  15.118   5.181  0.2340  0.3269  0.1359
24264W        W41788   2.722  17.065   4.248 -0.2986 -0.2206  0.0326
24265W        W41789  16.341  12.473  16.050 -0.0605  0.3090 -0.1476
24266W        W41790  13.067   5.784   1.095 -0.2234 -0.1369 -0.3542
24267W        W41791   6.933  17.792  11.274 -0.1359  0.0681 -0.0328
24268W        W41792   4.333   6.554  13.399 -0.0012 -0.1664 -0.0084
24269W        W41793   2.311  11.783  11.548 -0.1124  0.1057 -0.2608
24270W        W41794   0.439  14.897   1.770  0.2204  0.2371 -0.0930
24271W        W41795   2.126  14.030  14.820  0.1357 -0.1484 -0.3233
24272W        W41796  11.399  16.859   0.811 -0.3640  0.1967  0.0167
24273W        W41797   4.754   7.827  14.665  0.2389  0.0870 -0.0129
24274W        W41798   8.233  14.348  12.126  0.0684 -0.4179 -0.0486
24275W        W41799   3.073   1.101   1.557 -0.2247 -0.0552  0.2690
24276W        W41800  15.703   3.654  12.696  0.1638 -0.1691  0.0791
24277W        W41801   4.546   7.485  13.928  0.1950 -0.0077  0.2880
24278W        W41802   3.589   4.557   0.975 -0.0284  0.1284 -0.2828
24279W        W41803   8.367   8.876   5.060  0.1159 -0.2037  0.2568
24280W        W41804  16.104  15.647  12.047 -0.1603  0.1017  0.1610
24281W        W41805  15.774  15.656   2.729  0.0541 -0.3443 -0.3158
24282W        W41806  15.366   4.542  12.441 -0.0803 -0.1504  0.1721
24283W        W41807  13.768   8.515  13.542  0.1573  0.0816 -0.1509
24284W        W41808   0.315   0.873   5.093 -0.1383 -0.0284  0.0120
24285W        W41809  15.706   0.770  16.323  0.1253 -0.2609 -0.0495
24286W        W41810   7.927   8.549   1.221  0.1541  0.2460  0.1262
24287W        W41811   9.680   0.332  12.299 -0.1269 -0.0778 -0.2154
24288W        W41812   5.183   6.695  12.253  0.1214  0.1116  0.1535
24289W        W41813   9.831  12.339   4.627 -0.3088  0.0941  0.1849
24290W        W41814   6.288  10.659   0.373 -0.1999 -0.1675  0.0702
24291W        W41815  11.761  11.860  13.712  0.0345 -0.1237  0.0289
24292W        W41816  14.635  15.073   3.436 -0.1687 -0.0958 -0.1294
24293W        W41817   0.823   9.724   4.213 -0.4681 -0.2155  0.2944
24294W        W41818   7.555  15.214  12.894  0.1491  0.0795 -0.0881
24295W        W41819  12.588  17.757   4.857 -0.2268  0.1946  0.1243
24296W        W41820   9.597   1.936  15.550 -0.1893 -0.2786 -0.1868
24297W        W41821   0.150   5.441  11.920  0.2421 -0.0933  0.1527
24298W        W41822   1.199  15.736   2.067 -0.1674 -0.2387 -0.0741
24299W        W41823   1.840   9.378  13.230  0.2665 -0.0391  0.3109
24300W        W41824   2.449   3.186  13.617  0.2263 -0.0181 -0.2522
24301W        W41825   6.007  15.818  13.113  0.2298  0.2224 -0.3918
24302W        W41826   0.544   6.077   4.051  0.3431  0.2383  0.2262
24303W        W41827  15.752  14.874  14.928 -0.1322 -0.1253 -0.0834
24304W        W41828   7.161  14.316   0.750  0.2087  0.2452  0.1868
24305W        W41829  13.945   2.993  15.569  0.2753  0.3190 -0.2351
24306W        W41830  16.070  11.284  12.448 -0.2380  0.0157 -0.1635
24307W        W41831  12.466   4.862   2.988  0.2447  0.1852 -0.1195
24308W        W41832  10.244   5.671  15.488  0.0730  0.2294  0.2755
24309W        W41833  12.386  14.430  16.119 -0.4603 -0.1031  0.3866
24310W        W41834  11.306   0.406  13.736 -0.1261  0.1113 -0.2135
24311W        W41835   8.383  12.691   2.199  0.0661 -0.0596  0.2840
24312W        W41836   4.405   7.877  14.299  0.2980 -0.0236  0.0441
24313W        W41837   1.777   3.048  15.189  0.2298 -0.1202  0.1218
24314W        W41838   7.575  16.175  15.127  0.0312  0.1552 -0.1496
24315W        W41839   4.563  15.501   3.084 -0.0751 -0.3261 -0.2426
24316W        W41840  15.427  13.030   2.601 -0.0444  0.1233  0.0359
24317W        W41841   0.433   9.371   2.660 -0.1069  0.2420  0.0912
24318W        W41842   4.759  13.997  14.653 -0.0430  0.0556 -0.1547
24319W        W41843  16.811  15.142  12.653 -0.3239  0.2980 -0.2671
24320W        W41844   2.508   5.376   3.866  0.1695 -0.1404  0.1305
24321W        W41845   7.335   8.219  16.402 -0.3695  0.0137  0.1083
24322W        W41846   8.052   0.052   2.017  0.0602 -0.4272 -0.0557
24323W        W41847  15.370  16.151  14.584  0.0040  0.0925 -0.2292
24324W        W41848  10.002   8.214   2.993 -0.0845  0.0577 -0.3463
24325W        W41849  13.643  12.224   1.029 -0.2188 -0.0757  0.0541
24326W        W41850  12.653   9.460  12.150  0.1437 -0.3317  0.3312
24327W        W41851  10.522   5.964  12.710  0.0085  0.3259  0.1987
24328W        W41852  14.747   9.333  13.531  0.0070 -0.2311 -0.1909
24329W        W41853   0.709   0.999  14.219 -0.0042 -0.0702 -0.2783
24330W        W41854  13.824  16.101  14.638 -0.0378 -0.1726  0.0695
24331W        W41855  17.829   1.716   1.207  0.0769  0.1002 -0.0521
24332W        W41856  16.963  14.887   0.916  0.0250 -0.3235 -0.1779
24333W        W41857   2.912  11.778  14.089 -0.2770  0.4436  0.0052
24334W        W41858  13.884  10.923   0.344 -0.2745  0.4096  0.2109
24335W        W41859   7.184   3.237   3.459  0.0021 -0.1014 -0.0493
24336W        W41860   4.196   4.487   1.799 -0.2509  0.0760 -0.0868
24337W        W41861  17.859  15.955   1.433 -0.4821  0.2759  0.0035
24338W        W41862  13.490  10.981   4.707  0.2250 -0.1803  0.1523
24339W        W41863   2.322  15.715  13.328  0.0613  0.1407 -0.1040
24340W        W41864   8.813   7.524   1.368 -0.0089 -0.1658 -0.1621
24341W        W41865  13.848  10.977  11.885 -0.0633  0.1511  0.1460
24342W        W41866  11.028  16.965   1.626 -0.1022 -0.0224  0.0430
24343W        W41867  11.748   5.783   1.144  0.0682  0.1097 -0.2220
24344W        W41868  17.543  17.633   1.139 -0.2111  0.0525  0.0242
24345W        W41869  11.558   2.144   4.489  0.2147 -0.1224 -0.1172
24346W        W41870   3.796   7.484  11.250 -0.1891 -0.0761 -0.1020
24347W        W41871  10.551  12.655  14.681  0.0908 -0.0289 -0.2317
24348W        W41872  13.938  10.031   0.777 -0.1050  0.0277 -0.3918
24349W        W41873  17.821  11.801   2.205  0.0801 -0.0023 -0.3318
24350W        W41874   7.698  10.294  13.459  0.1866 -0.2814  0.1955
24351W        W41875  14.242   2.879   4.108  0.0683  0.1566  0.0456
24352W        W41876   4.158  10.620  12.379  0.3837  0.2950  0.1777
24353W        W41877  15.399   0.758   1.535 -0.1224  0.0704 -0.0690
24354W        W41878  14.674   1.725   2.989  0.4058  0.0640  0.2874
24355W        W41879  15.522   8.918   3.175 -0.1600 -0.0709 -0.1648
24356W        W41880   7.138  14.009   1.641  0.1277 -0.2939  0.1800
24357W        W41881   2.839  12.051  16.016  0.1225  0.0561 -0.4499
24358W        W41882   5.808   9.430  11.752  0.2175  0.1303 -0.3727
24359W        W41883   0.410   0.575  14.858 -0.0977 -0.1667  0.0210
24360W        W41884   2.253  12.860   2.879 -0.0130  0.3245 -0.0168
24361W        W41885  14.539   1.537  16.234 -0.1203  0.2277 -0.0029
24362W        W41886   2.692   3.707  12.541  0.1395  0.2363 -0.0678
24363W        W41887   2.258   9.290  13.455 -0.3980 -0.1674  0.2901
24364W        W41888  13.496  13.737   0.018 -0.0030 -0.2579  0.0174
24365W        W41889  16.496   1.148  10.449 -0.3249  0.0020 -0.4338
24366W        W41890   6.379  13.281   5.348  0.1881  0.1555  0.0697
24367W        W41891  12.400  14.773   0.036 -0.1045 -0.0849 -0.0143
24368W        W41892   2.985   2.965   4.287  0.2674 -0.2900 -0.2581
24369W        W41893  13.302   2.261  13.127  0.0674 -0.0448 -0.0357
24370W        W41894   0.321  15.956  14.904  0.3283  0.0401 -0.3959
24371W        W41895  10.199   5.778   0.408  0.2338  0.1890  0.2171
24372W        W41896  15.918   3.374   4.923 -0.0674 -0.2802  0.0851
24373W        W41897   4.333  12.251  16.372  0.2940  0.1095 -0.0956
24374W        W41898  11.069   1.322  13.246  0.0738 -0.2927  0.3422
24375W        W41899   9.970  13.869   3.104  0.0936 -0.3485 -0.1347
24376W        W41900  16.048   6.619  13.336  0.1997 -0.0037  0.3452
24377W        W41901   1.306   7.359   1.282  0.1223  0.1196 -0.1296
24378W        W41902  12.191   8.069  12.631  0.0216 -0.1794 -0.2513
24379W        W41903   2.921   1.756   4.503  0.3635  0.0319  0.4480
24380W        W41904   0.930  13.540   2.965 -0.1420  0.3595 -0.1755
24381W        W41905   1.851   3.022  11.677  0.0479  0.0688  0.1791
24382W        W41906  17.498  11.504  16.078 -0.0409  0.1094 -0.1054
24383W        W41907   4.314   1.940   3.792  0.0357 -0.2294  0.2385
24384W        W41908  10.805   2.824   1.651  0.0509  0.2770  0.0630
24385W        W41909  14.076  11.922  11.900  0.2621  0.1482 -0.2115
24386W        W41910  11.068  17.080   3.729  0.0031  0.3154 -0.0567
24387W        W41911  14.033  17.724   3.529  0.2254 -0.4009  0.2799
24388W        W41912  17.272  10.334   0.667  0.0425  0.2344  0.0713
24389W        W41913  10.465   9.869   0.161  0.0942  0.2387  0.1713
24390W        W41914   6.962  15.515   0.579  0.0395  0.1317  0.0910
24391W        W41915  13.835   1.027  15.602  0.1085 -0.0942  0.1622
24392W        W41916   7.497   9.400  15.433  0.1602  0.0699  0.2869
24393W        W41917  10.413   0.858  15.761 -0.1607  0.2811  0.0546
24394W        W41918  12.590   0.374   0.017 -0.2011 -0.1655 -0.0550
24395W        W41919   7.764  14.427  15.336 -0.0548 -0.0282  0.0822
24396W        W41920   6.176   5.195   2.052  0.2625 -0.0543  0.1741
24397W        W41921  11.107   0.946   1.537 -0.0468 -0.0526 -0.1894
24398W        W41922   5.315   9.582   2.490  0.0176 -0.1374  0.2072
24399W        W41923   3.240   6.107  16.333  0.2180 -0.2526 -0.1793
24400W        W41924  15.862   6.677   1.082 -0.0328 -0.1109  0.2417
24401W        W41925  12.097   0.581  15.484 -0.3076 -0.0901  0.1112
24402W        W41926   6.695   7.381   2.033  0.0684 -0.0691  0.0882
24403W        W41927   1.517  16.062  11.209 -0.0269 -0.0336 -0.0908
24404W        W41928   3.703   7.386   4.611  0.1333 -0.2241  0.1796
24405W        W41929   6.513  13.879   2.813  0.1113  0.2120 -0.0435
24406W        W41930   1.277  10.747   3.455 -0.2598  0.0641  0.0347
24407W        W41931  11.009   9.285  11.162 -0.3225  0.3094 -0.0285
24408W        W41932   6.979   1.452   2.152 -0.1070 -0.0116 -0.1864
24409W        W41933   8.102  10.000   2.152  0.0197 -0.0463 -0.0684
24410W        W41934   4.536  12.001   1.645  0.2879 -0.1897  0.0077
24411W        W41935  12.243   2.219   3.080 -0.0312 -0.1243  0.0065
24412W        W41936   6.232  12.844   5.031 -0.0493  0.0192 -0.2465
24413W        W41937  14.188   9.772  15.558 -0.0197  0.0710 -0.4972
24414W        W41938  14.049  10.369  14.964  0.1667  0.0215 -0.1474
24415W        W41939   6.461   6.120   0.024  0.1043 -0.1604 -0.1654
24416W        W41940  17.300   7.590  15.839  0.1277 -0.2050 -0.0907
24417W        W41941   6.533   2.650  15.452  0.2126 -0.0522  0.1419
24418W        W41942   4.221  11.136   4.974 -0.0244  0.0869 -0.0570
24419W        W41943   2.267  16.773  12.605  0.2375  0.3592 -0.1208
24420W        W41944   3.488  10.502   0.403 -0.0446  0.3269 -0.0840
24421W        W41945  15.231   6.224  14.558 -0.0706  0.1554  0.2896
24422W        W41946  15.572   7.886  14.099  0.2419 -0.0737  0.1142
24423W        W41947  12.781  15.603  13.142 -0.1953  0.0234  0.1804
24424W        W41948   1.382  14.689   2.119 -0.0826  0.2623  0.4591
24425W        W41949   4.955   5.440   3.051 -0.1315  0.2538 -0.1671
24426W        W41950   9.893   4.380   1.720 -0.1603 -0.0207 -0.1447
24427W        W41951  15.307   5.974  12.855 -0.2181  0.3608 -0.3110
24428W        W41952  16.176  13.499   3.624 -0.0523 -0.1751 -0.0972
24429W        W41953   0.032  13.181   1.889 -0.2127 -0.4493  0.0758
24430W        W41954   5.394   0.501  15.856 -0.2190  0.2552  0.0323
24431W        W41955   5.208   0.160   3.947  0.0497 -0.4286  0.3139
24432W        W41956   9.938   9.690  12.940  0.1773  0.1296 -0.0642
24433W        W41957   5.286   6.128  13.757  0.0482  0.0453 -0.2490
24434W        W41958  15.005  16.848   1.389 -0.2200 -0.1134 -0.1159
24435W        W41959   4.408  15.621   1.253  0.0622  0.2207 -0.3385
24436W        W41960   1.007   7.675   3.894  0.1739  0.1307  0.4012
24437W        W41961   6.316  13.104  14.131  0.0814  0.0590  0.1490
24438W        W41962   7.260   3.436   2.972 -0.0808  0.0783 -0.0183
24439W        W41963  14.819   5.937  14.574  0.2902  0.2009 -0.0542
24440W        W41964  12.660   7.728   4.486 -0.1383  0.0080  0.0287
24441W        W41965   7.119   2.413  12.365 -0.2427  0.0122 -0.2857
24442W        W41966   4.156  10.890  13.476  0.1499 -0.1177  0.0025
24443W        W41967  15.531  12.463  13.910  0.0462  0.1351 -0.3716
24444W        W41968   2.219  11.368   3.500 -0.0162 -0.2550  0.1539
24445W        W41969   7.300  13.290  13.084 -0.2256 -0.0156  0.0929
24446W        W41970   5.044  10.020  15.590  0.0586 -0.2097 -0.1597
24447W        W41971   0.689   8.802   5.686  0.2506  0.0378 -0.2226
24448W        W41972   0.359   3.264  13.405 -0.0133  0.0927  0.1627
24449W        W41973  17.346  13.132   2.836 -0.0316 -0.1277  0.2340
24450W        W41974   4.942  11.872   3.573  0.0601 -0.1986 -0.0215
24451W        W41975  17.933   5.438  14.237  0.0442 -0.0644  0.2304
24452W        W41976  13.057  10.791  13.570 -0.2429  0.0085 -0.2719
24453W        W41977  14.411  12.630   0.127 -0.1678 -0.1228 -0.1285
24454W        W41978  16.001  12.458   3.638  0.5354  0.0026 -0.1503
24455W        W41979   7.916   0.492   0.427  0.1270 -0.0873  0.0339
24456W        W41980   0.668   4.606  16.413 -0.0334  0.0662  0.1523
24457W        W41981   6.479   8.133   3.888 -0.2303  0.2386 -0.2693
24458W        W41982   3.455  13.812   4.084  0.0648 -0.0357  0.0876
24459W        W41983  16.365  15.746  15.144  0.3831  0.0249 -0.2044
24460W        W41984  11.175  16.549   0.047 -0.0129  0.0578  0.4157
24461W        W41985   4.852  13.886   3.954  0.0816 -0.1931 -0.0799
24462W        W41986  12.219  13.747   3.952 -0.1148 -0.1441 -0.2977
24463W        W41987   5.270  13.987  14.458 -0.0677  0.0828 -0.1280
24464W        W41988   5.802   2.802  13.399  0.1408 -0.1994 -0.0354
24465W        W41989   6.439  16.996   1.236  0.2053  0.3150 -0.1125
24466W        W41990   4.413   5.353   2.045  0.1177 -0.3541  0.1978
24467W        W41991   8.106  10.466   2.506 -0.1169 -0.0506 -0.4009
24468W        W41992  12.015   5.448  13.217  0.2653  0.1197  0.1037
24469W        W41993   8.178   9.730   4.516 -0.1931 -0.0671  0.1122
24470W        W41994   8.331  17.309   1.412  0.1548 -0.2467  0.0802
24471W        W41995  15.806   1.675  14.955  0.1647  0.0485 -0.1799
24472W        W41996  17.569   3.206  12.697 -0.1153 -0.0644  0.1615
24473W        W41997   2.766  17.206  14.281 -0.1171 -0.1883 -0.0628
24474W        W41998   1.916  14.750  12.737  0.0026 -0.3586 -0.0733
24475W        W41999  16.970  11.337   2.752  0.0980 -0.1368 -0.0858
24476W        W42000   4.786  13.284   0.655 -0.0564  0.2386  0.2944
24477W        W42001   8.728   8.753  14.306  0.1334  0.2541 -0.3191
24478W        W42002  11.031   0.097  11.519 -0.0904  0.0951 -0.0402
24479W        W42003   0.166   0.281  13.675 -0.1527 -0.2520  0.1634
24480W        W42004   2.858  14.677   1.745 -0.3516 -0.0077  0.1649
24481W        W42005   0.307   1.943  16.210  0.6309 -0.0889  0.2119
24482W        W42006  10.558  16.260   0.588 -0.3174 -0.2300  0.2181
24483W        W42007  11.824   9.810  12.343 -0.2977  0.3888  0.0608
24484W        W42008  15.820  13.939   0.872 -0.2963 -0.1932 -0.1615
24485W        W42009  15.128  10.678  13.069  0.1112 -0.1079  0.2667
24486W        W42010   0.692   4.220   5.967  0.2551 -0.0313  0.1015
24487W        W42011   4.301  14.872   0.373 -0.3053  0.1316 -0.0848
24488W        W42012   7.342   9.771   4.671 -0.0477  0.1457  0.3158
24489W        W42013   9.075   2.849   3.105 -0.1190 -0.2531 -0.0346
24490W        W42014  15.758   4.699  13.549 -0.3723 -0.2050  0.1036
24491W        W42015   0.144   5.207   5.206 -0.1411 -0.1269  0.0297
24492W        W42016   6.755   0.574  15.939 -0.1821  0.2601  0.2210
24493W        W42017   2.021   8.718  13.849  0.0385 -0.2122 -0.2030
24494W        W42018   9.012   9.175   0.712  0.2351  0.2829 -0.2594
24495W        W42019   0.972   2.136  13.828  0.0067 -0.0680  0.0681
24496W        W42020   2.117  12.359   0.425 -0.1140  0.0104  0.1518
24497W        W42021   8.780  11.525  13.485  0.0228  0.1819 -0.1433
24498W        W42022  17.476   0.608   3.656 -0.1218 -0.4117 -0.0991
24499W        W42023   4.895  17.216   0.933  0.1044  0.1489 -0.0697
24500W        W42024   5.535   3.215  10.883 -0.2231  0.1501  0.2018
24501W        W42025   7.329  11.353   5.852  0.2476  0.0707  0.1645
24502W        W42026   3.910   6.517  13.067  0.0285 -0.2356  0.0008
24503W        W42027  12.968  12.993  15.498 -0.2413  0.3080  0.1310
24504W        W42028  10.819  14.097   4.772  0.2063 -0.0688  0.1473
24505W        W42029   8.066   6.698   2.267  0.2364  0.0348 -0.4682
24506W        W42030  12.349  14.191   4.296 -0.1939 -0.0220  0.2030
24507W        W42031  12.214  14.731  13.430 -0.0292  0.0209  0.1483
24508W        W42032   9.234   5.827  15.543  0.0371  0.0946 -0.0983
24509W        W42033  16.416   0.861  14.575  0.1423 -0.1852 -0.0270
24510W        W42034  14.783  10.531   2.988 -0.3487 -0.0132 -0.1872
24511W        W42035   4.136  13.145   2.257 -0.4791 -0.2359 -0.0282
24512W        W42036   6.877   8.207  11.864  0.1050 -0.0218  0.2731
24513W        W42037   0.262  13.343  13.247  0.1046 -0.0970  0.1161
24514W        W42038   8.734   6.710   2.906 -0.3655 -0.1614 -0.1178
24515W        W42039   8.878   4.439  12.138  0.3319  0.0952 -0.1632
24516W        W42040   8.229   8.884  15.937  0.0223 -0.1662 -0.0260
24517W        W42041  12.967  12.571   4.919 -0.2793  0.0736 -0.4346
24518W        W42042  11.627   3.969   1.399 -0.1524  0.4089  0.1385
24519W        W42043   7.762   7.076  15.005  0.1008 -0.0420  0.2878
24520W        W42044   0.300  10.569  12.906 -0.1251  0.2609 -0.1983
24521W        W42045  12.456   3.231   1.016  0.0825 -0.2897 -0.0291
24522W        W42046   4.079  12.440  15.031 -0.4778  0.0116 -0.1151
24523W        W42047   1.798  17.083  11.895 -0.1881  0.0865  0.0154
24524W        W42048   2.199  12.419   1.475 -0.1983  0.2521  0.0575
24525W        W42049  16.546   4.414  11.995 -0.1311 -0.0220  0.0906
24526W        W42050  12.033   9.763  11.839 -0.0800 -0.1108  0.4508
24527W        W42051   5.616  12.964   1.974 -0.1932  0.0855 -0.2267
24528W        W42052  14.305   2.567   2.033 -0.0033 -0.2636 -0.1546
24529W        W42053  14.309   1.748   1.570 -0.1152 -0.3102  0.0152
24530W        W42054   5.077   3.189  12.634  0.0508 -0.0848 -0.1250
24531W        W42055  10.758   1.348  12.795 -0.2965  0.0730  0.2573
24532W        W42056  14.504  10.642  13.587  0.0254  0.0691  0.0205
24533W        W42057   2.251   6.699  12.880 -0.0335 -0.3040  0.0637
24534W        W42058   2.022  16.026   2.672 -0.2770  0.4179  0.0017
24535W        W42059   6.368   7.263  12.313  0.2615  0.1565  0.2753
24536W        W42060  12.797   8.902   0.259 -0.1083 -0.1044 -0.3514
24537W        W42061   7.120  12.747  12.330 -0.0322 -0.0404  0.1981
24538W        W42062   4.103  10.863  16.105  0.0348 -0.1293 -0.2041
24539W        W42063  13.407  17.007   4.630  0.0389 -0.1630 -0.1825
24540W        W42064  13.416  16.315  14.829  0.0285 -0.0383 -0.4041
24541W        W42065  15.736   5.155   2.599  0.4885  0.0431  0.1173
24542W        W42066   7.100   8.922   2.842  0.1913 -0.0382  0.1362
24543W        W42067  13.159  14.168   0.116  0.2130  0.3305 -0.0249
24544W        W42068   5.336  12.251   0.851 -0.1143 -0.0772 -0.0977
24545W        W42069   3.343   8.484   2.314 -0.0542  0.1024  0.0423
24546W        W42070   8.333   1.631   2.104 -0.0465 -0.1848  0.2407
24547W        W42071  15.342  10.561  13.932 -0.0905 -0.1169 -0.1333
24548W        W42072   2.864   3.103   3.235 -0.1277 -0.0780  0.2122
24549W        W42073  15.195  14.779  13.148  0.0975  0.0249  0.1209
24550W        W42074  17.499   7.518   2.056  0.0029  0.2141 -0.1910
24551W        W42075   2.187  16.509  13.639  0.0944  0.4325 -0.0522
24552W        W42076  12.594   8.862   1.560 -0.2963 -0.1443  0.0379
24553W        W42077   1.113  16.111   3.131 -0.1002 -0.0819 -0.0021
24554W        W42078   0.812   3.708   4.256 -0.0674 -0.2833 -0.0656
24555W        W42079   0.645  17.424   2.741  0.1287  0.0614 -0.0950
24556W        W42080  14.732   2.740   0.451 -0.2769 -0.1620  0.0185
24557W        W42081  14.693  17.397   1.967 -0.1546  0.2215  0.0008
24558W        W42082  14.662   9.530  12.711  0.2796  0.0653  0.0199
24559W        W42083   8.468   7.241   4.365  0.1386  0.1526 -0.1547
24560W        W42084   2.336   8.262   0.485 -0.3148 -0.3425 -0.1071
24561W        W42085   1.009   3.482  15.836  0.3124 -0.2220  0.0588
24562W        W42086   2.821   5.289  16.193 -0.4001  0.1814 -0.2270
24563W        W42087  16.383  11.488   3.452 -0.3038  0.1320  0.0249
24564W        W42088   8.938   5.167  15.260 -0.1548 -0.0217 -0.0364
24565W        W42089   7.868   4.710  12.007  0.1407 -0.3184 -0.2917
24566W        W42090  13.991  16.112  13.507  0.2502 -0.1292 -0.0781
24567W        W42091   0.845   1.817   1.691 -0.0189 -0.1756 -0.2557
24568W        W42092   0.808   0.569   3.423 -0.1874  0.0453 -0.1127
24569W        W42093   6.558   1.506  15.848  0.0959 -0.1083  0.2635
24570W        W42094   9.106   6.014   1.473  0.1015  0.2594 -0.1657
24571W        W42095   4.650   9.746   4.300 -0.0421  0.0578  0.2579
24572W        W42096  15.276  15.216   6.123 -0.0094 -0.0140 -0.2081
24573W        W42097   4.719  12.671  11.976 -0.0738  0.1095 -0.2688
24574W        W42098   9.401   0.769  11.791  0.2570  0.5167  0.1813
24575W        W42099  14.061   1.477  15.891  0.0333 -0.2297 -0.1107
24576W        W42100   0.646  14.194   1.011 -0.0609 -0.3252 -0.1761
24577W        W42101   3.955   4.038  12.603  0.0848  0.0966  0.0526
24578W        W42102   3.398   6.292   2.893  0.1212 -0.1466  0.1213
24579W        W42103  15.326   6.798   0.522  0.3780  0.2940 -0.0358
24580W        W42104   1.873   1.563   2.836 -0.2635  0.1045 -0.0464
24581W        W42105  14.911  15.617   5.108 -0.2157 -0.2381 -0.2597
24582W        W42106  10.785   1.037   0.099  0.0388  0.1802 -0.0376
24583W        W42107   2.413   9.966  15.386 -0.2028  0.1539  0.0714
24584W        W42108   9.651  11.872  10.821 -0.0347 -0.3625  0.3716
24585W        W42109  16.027   1.127   3.931  0.0207  0.3695 -0.1037
24586W        W42110  11.594   1.899  13.719 -0.0191 -0.0159 -0.1288
24587W        W42111   0.294  17.048  12.209  0.1330  0.2491  0.0257
24588W        W42112  16.939   5.563  13.361 -0.3227  0.4335  0.2535
24589W        W42113   5.250  10.283  11.683 -0.0123 -0.0071  0.3205
24590W        W42114   3.615   7.608   9.986 -0.0563  0.2111 -0.3443
24591W        W42115   9.868   4.442  14.877  0.0700  0.2618 -0.0014
24592W        W42116  11.182  16.119   4.229  0.2734  0.2810 -0.1190
24593W        W42117  11.862   4.865   3.696  0.2637 -0.1153 -0.0753
24594W        W42118  12.126   1.467  14.221 -0.3642  0.0896  0.2747
24595W        W42119   1.825  11.655  16.247  0.0329 -0.1196  0.1590
24596W        W42120   1.014  13.919  11.749 -0.0503 -0.0253 -0.0138
24597W        W42121   1.192   3.781  14.218 -0.0696  0.5141 -0.0531
24598W        W42122  14.036   1.960  13.424 -0.0373 -0.0797 -0.0286
24599W        W42123  11.483  10.268  13.113  0.1167  0.0837 -0.2347
24600W        W42124   1.236   5.760   3.427 -0.2787 -0.2268  0.1533
24601W        W42125  14.604   2.366   4.859 -0.0601  0.0287 -0.0376
24602W        W42126   7.535   2.242  14.995  0.2435  0.4010 -0.0968
24603W        W42127  10.039   4.317  12.895 -0.0089 -0.1675  0.1577
24604W        W42128   1.625   2.208   4.777  0.1131  0.0658  0.1388
24605W        W42129  13.111  15.025   2.649 -0.2236 -0.1611  0.3312
24606W        W42130  16.061  17.489  11.807  0.0143 -0.0170 -0.1165
24607W        W42131  17.673   6.149  13.529 -0.0313  0.2529  0.1176
24608W        W42132   6.935  15.276   4.442  0.2104  0.0727 -0.1067
24609W        W42133   6.625   2.967   3.152  0.0805 -0.0366  0.0381
24610W        W42134   2.712  10.396   3.778 -0.1429  0.1079  0.0357
24611W        W42135   6.615   1.242  13.081 -0.2437  0.1449 -0.0696
24612W        W42136   3.770  11.534   3.135 -0.0165  0.0564  0.0888
24613W        W42137  10.303   4.322   1.953 -0.2175  0.1465  0.0693
24614W        W42138  17.380   7.229   3.320  0.1706 -0.3220  0.1176
24615W        W42139  13.639   3.728   0.393  0.0684 -0.0298 -0.2158
24616W        W42140   0.027  13.138   0.613 -0.1934  0.1232 -0.1680
24617W        W42141   4.563  17.380  15.732  0.1891 -0.0904 -0.0447
24618W        W42142   1.158  15.002  15.935  0.1451 -0.0135 -0.1325
24619W        W42143  10.752   1.597  16.147 -0.1799 -0.1514  0.1067
24620W        W42144   9.766  13.351   3.224 -0.3644  0.0832 -0.0459
24621W        W42145   5.212   1.251  15.334  0.1735 -0.0527  0.1923
24622W        W42146  14.687  13.350   2.495  0.1651  0.0488  0.1619
24623W        W42147  17.769  14.311  14.277 -0.0673  0.3869  0.0135
24624W        W42148  11.873  16.796   3.425  0.0197 -0.1831  0.0215
24625W        W42149   7.938   3.600   2.413 -0.1265  0.3013  0.2425
24626W        W42150   5.157   9.739   3.404  0.1467 -0.0714  0.0520
24627W        W42151  11.438   2.986  13.738 -0.0889  0.1217 -0.1686
24628W        W42152   1.826  16.761  13.897  0.0880 -0.0665 -0.2537
24629W        W42153   1.931   1.991   4.363  0.0611 -0.3900 -0.1108
24630W        W42154   0.421   6.244   2.453 -0.1851 -0.2583  0.2303
24631W        W42155  14.602  15.401   4.238 -0.2090 -0.1420 -0.2508
24632W        W42156   8.532   3.222   1.150  0.1859 -0.0435  0.0699
24633W        W42157   5.265   0.044   4.910 -0.0905  0.1903  0.2171
24634W        W42158   1.920  11.677   1.676 -0.1063 -0.3451  0.1063
24635W        W42159  13.711  17.534  13.481  0.2976 -0.4058  0.1366
24636W        W42160   0.699   2.985   4.457  0.1621  0.0296  0.1944
24637W        W42161  16.033  17.236   0.423  0.1978  0.1152 -0.0269
24638W        W42162   5.969   0.465   0.187  0.1036  0.0160 -0.0315
24639W        W42163  16.947  17.953   3.754 -0.0350  0.0517 -0.0869
24640W        W42164   8.919   4.282  15.942 -0.3148 -0.0285  0.2882
24641W        W42165   2.655   2.892   1.464 -0.0483 -0.3265 -0.2260
24642W        W42166  14.235  14.790  15.535 -0.0575 -0.0648  0.3269
24643W        W42167  12.516  17.956  10.637 -0.0756  0.1865  0.0462
24644W        W42168   9.401  11.938   0.063  0.1239 -0.0359  0.0809
24645W        W42169   4.304   5.258  11.399  0.3362  0.0863 -0.2625
24646W        W42170   6.511  16.370   0.126  0.0557  0.3734  0.0369
24647W        W42171  12.519  16.491   4.636 -0.3581 -0.1631  0.0464
24648W        W42172  15.772  15.280   0.720  0.2830  0.3570  0.0018
24649W        W42173   0.148   9.512   0.016 -0.0497  0.3227 -0.0117
24650W        W42174  12.116   9.163  14.871 -0.0038 -0.1261 -0.2160
24651W        W42175   4.116   0.382  13.192 -0.0600  0.1488  0.0521
24652W        W42176  14.058   2.387  11.497  0.2385  0.1248  0.1528
24653W        W42177  10.400  13.881  11.560  0.2929 -0.0307 -0.0474
24654W        W42178  12.990   4.812  13.511 -0.0952 -0.2285 -0.0502
24655W        W42179   7.546   6.792  14.543 -0.3025 -0.0157 -0.0501
24656W        W42180   6.276  11.198  11.885  0.0605 -0.1140  0.1461
24657W        W42181   7.241   5.203   3.183  0.0235 -0.1155 -0.0997
24658W        W42182  14.767   3.388  15.105 -0.2636  0.0706  0.0065
24659W        W42183  11.861   6.502   3.731 -0.0352 -0.0306  0.0758
24660W        W42184  11.532  13.910  13.080 -0.1704  0.0891 -0.3340
24661W        W42185   8.724  14.357   5.159 -0.0944 -0.1239  0.4388
24662W        W42186   5.512   3.474  16.188  0.0888 -0.1920 -0.1431
24663W        W42187   8.583  17.290  15.298 -0.1498  0.0598 -0.1966
24664W        W42188  12.141  12.553   1.367  0.2489  0.1229 -0.0985
24665W        W42189   4.781  17.210   3.242 -0.0044 -0.2298  0.1841
24666W        W42190  13.217  17.940   5.979  0.2003  0.2717  0.2369
24667W        W42191   6.697  11.372   3.097 -0.2604  0.2432  0.0043
24668W        W42192  11.539  11.989  12.613 -0.1882 -0.1768 -0.2633
24669W        W42193   4.022   1.923   0.620 -0.1755 -0.2074 -0.3396
24670W        W42194   8.305  13.445   4.272 -0.0351 -0.3345 -0.1841
24671W        W42195  16.532   8.090   3.207  0.0450  0.0201  0.0255
24672W        W42196  16.837  12.025  13.617  0.1963 -0.2864  0.0541
24673W        W42197   7.591   7.330  14.558 -0.0485 -0.1732 -0.2652
24674W        W42198  16.969  16.682   0.512 -0.2952 -0.0367  0.2919
24675W        W42199   4.602  10.975  13.921  0.2770 -0.1249 -0.1280
24676W        W42200  15.549  16.452   2.166 -0.1040 -0.0153  0.1701
24677W        W42201   6.783   0.343   5.114 -0.0671 -0.1091  0.2709
24678W        W42202  12.624  11.022  15.815  0.0163 -0.1168  0.1442
24679W        W42203   3.481  13.741  14.538  0.3807 -0.0448 -0.0658
24680W        W42204  11.918   9.868   4.489  0.1800 -0.0206 -0.1172
24681W        W42205   8.499  12.455   4.898  0.1877 -0.0971  0.2838
24682W        W42206   9.410   7.435   1.374  0.1764  0.1002  0.2159
24683W        W42207   0.325   6.209   3.327 -0.2588 -0.1309  0.0706
24684W        W42208  15.997  17.755   0.493 -0.0627  0.0625 -0.0119
24685W        W42209   9.292   2.570   2.026 -0.2265  0.3023 -0.0543
24686W        W42210   8.484   9.211  11.586 -0.0500  0.1078 -0.3511
24687W        W42211   1.314   1.973  13.039 -0.0690  0.1421 -0.4572
24688W        W42212   5.365  12.235  11.398 -0.0340 -0.3060 -0.0700
24689W        W42213  10.844  17.430   0.391  0.0065 -0.0590  0.0581
24690W        W42214   3.288  10.889   3.769 -0.0372  0.0945 -0.0909
24691W        W42215   7.859  17.136  12.439  0.0712  0.1714  0.0780
24692W        W42216   9.931  14.328   2.874  0.2208  0.3334 -0.1498
24693W        W42217   8.139  11.086  13.065  0.4441  0.2551  0.2525
24694W        W42218   9.470   9.123  13.650  0.1990  0.1276  0.2458
24695W        W42219  17.696  11.018  14.496 -0.2015 -0.0695  0.2666
24696W        W42220  17.957   4.873   1.480 -0.1202 -0.0239 -0.4027
24697W        W42221   0.599  12.534  12.348 -0.2420 -0.0277 -0.3007
24698W        W42222   9.840  11.554  14.055  0.0493 -0.3627 -0.0736
24699W        W42223  12.659   1.952   4.270  0.0224 -0.1238  0.0147
24700W        W42224  16.818   9.779   2.727  0.1378 -0.0411 -0.4204
24701W        W42225   1.169  12.588  16.179  0.2527  0.4572 -0.4374
24702W        W42226  16.629   2.079   0.543  0.3133  0.0521  0.0847
24703W        W42227  13.220   9.656  14.256 -0.1654  0.3739 -0.0875
24704W        W42228  15.252   7.977  13.164  0.1561  0.0891  0.4318
24705W        W42229   9.554   4.458  12.688  0.0028  0.1195 -0.0380
24706W        W42230   5.192   1.047  13.612  0.1612 -0.2376 -0.3698
24707W        W42231   5.060   8.411   4.276 -0.1143 -0.1068 -0.1083
24708W        W42232   6.524   9.013  15.217 -0.1947 -0.0450 -0.0236
24709W        W42233   1.281  17.096   1.650  0.2120 -0.1130 -0.1687
24710W        W42234  15.804   3.081  14.746 -0.4095 -0.3335  0.0155
24711W        W42235  10.217  15.354  13.357  0.4241  0.0244  0.2513
24712W        W42236  11.089   7.957   2.375  0.0804  0.2060  0.2521
24713W        W42237  11.779   6.132  15.822  0.1430  0.0857 -0.0038
24714W        W42238   5.503  11.455   4.505  0.0980  0.3505 -0.0725
24715W        W42239   8.320   0.916  11.909  0.3078 -0.1510 -0.1328
24716W        W42240   2.148   3.464  12.872 -0.0832 -0.0340  0.4780
24717W        W42241   0.413  13.244   0.271  0.0018 -0.1386  0.1540
24718W        W42242  11.130   1.010   3.125 -0.3557 -0.2090 -0.2798
24719W        W42243  13.979  14.005   0.659 -0.0617  0.2832  0.2016
24720W        W42244  13.625   2.180   3.317  0.0520 -0.0442  0.1838
24721W        W42245  12.201   1.621  12.496  0.0942  0.1561  0.3483
24722W        W42246   4.330  15.961   4.147  0.1336  0.3482  0.1514
24723W        W42247  10.323  14.197  15.905  0.0614 -0.0134 -0.0663
24724W        W42248  15.130  14.139   3.358 -0.2466 -0.0234  0.1879
24725W        W42249   0.484  12.660   1.352 -0.0701 -0.0368 -0.0372
24726W        W42250  15.974  11.740   1.103  0.2013  0.0327  0.1557
24727W        W42251  17.279  16.019   6.067  0.2202  0.1457 -0.1538
24728W        W42252   7.748  15.156   6.253  0.1481 -0.3871 -0.3663
24729W        W42253  10.315   1.635  14.821 -0.1577 -0.2120  0.1497
24730W        W42254   0.052  17.262  11.595  0.2359  0.0902  0.5551
24731W        W42255   9.581  17.882  10.562  0.3207  0.1237 -0.2474
24732W        W42256   6.656   0.578   2.023 -0.1198  0.3939  0.1309
24733W        W42257   4.097  13.846   3.041  0.0244 -0.0650  0.3379
24734W        W42258   2.276   4.928   2.579  0.1952  0.0527 -0.1526
24735W        W42259   0.860  10.928  13.884 -0.3129  0.0329 -0.4772
24736W        W42260   2.870  15.288  16.181  0.0156  0.0015  0.0512
24737W        W42261  14.046  13.297   0.432  0.1408 -0.1316  0.4528
24738W        W42262   7.269   7.291  13.673  0.2067 -0.3567  0.2520
24739W        W42263  12.540   0.295   1.487  0.4545 -0.0248 -0.2599
24740W        W42264   3.474  12.932  14.836 -0.4343  0.1694 -0.1440
24741W        W42265  14.285   0.198  14.593 -0.0318 -0.1267  0.1649
24742W        W42266  15.466   3.988  15.156  0.0481 -0.2357  0.0215
24743W        W42267   6.218   4.074  14.218 -0.1095  0.1286  0.1256
24744W        W42268  15.196  12.540   2.449 -0.0371  0.0962  0.0367
24745W        W42269   4.619  15.935   0.425  0.3145 -0.1145 -0.1286
24746W        W42270  11.508   4.552   3.957 -0.0573  0.0075  0.0720
24747W        W42271   8.756  16.459  15.648 -0.2073  0.1377 -0.2710
24748W        W42272   5.612  13.498   1.738 -0.0041  0.0191 -0.2756
24749W        W42273   2.837  16.112  14.327 -0.0315 -0.1012 -0.1515
24750W        W42274  14.630  12.212   2.124  0.1573  0.1131 -0.1818
24751W        W42275   8.175   7.724   2.559 -0.0663 -0.3221 -0.1353
24752W        W42276   1.055   0.778  12.752  0.0482  0.0459 -0.2952
24753W        W42277   6.479  15.311  12.100  0.2627 -0.1497  0.0721
24754W        W42278   1.254   9.994   2.875 -0.0798  0.1716  0.0369
24755W        W42279   8.953  12.472   3.214  0.1148 -0.3066 -0.0785
24756W        W42280  15.362   1.547  14.928  0.3186  0.0346 -0.0221
24757W        W42281  10.579  12.949  13.637  0.1777  0.2071 -0.1640
24758W        W42282  16.363  15.726  11.517  0.2126 -0.1281  0.3994
24759W        W42283   1.330  17.628   1.412  0.0624 -0.1044 -0.2632
24760W        W42284  11.504   9.977   4.240 -0.0080  0.0528  0.1421
24761W        W42285   5.597  14.054  12.607  0.1486 -0.0556 -0.1240
24762W        W42286  15.680  12.362  14.500 -0.0976 -0.3056  0.2639
24763W        W42287  11.516   6.536   4.283  0.2089  0.0192 -0.2238
24764W        W42288  16.082   2.565   5.449 -0.5670  0.3850 -0.1277
24765W        W42289   5.804   3.295   3.393 -0.0526  0.1606  0.1091
24766W        W42290   0.282  13.076   1.042  0.4081  0.1281  0.0989
24767W        W42291   4.788   6.536  15.214 -0.0025  0.0280  0.2477
24768W        W42292   7.172   0.646  11.866  0.1090 -0.1763 -0.1014
24769W        W42293   4.842   9.953   0.777  0.0253  0.0459  0.1122
24770W        W42294   2.584   5.781  13.519 -0.3122 -0.1465  0.0620
24771W        W42295   7.831   0.688   3.184 -0.2047  0.1025 -0.0938
24772W        W42296   2.145  13.914  13.938 -0.2361  0.2583  0.3353
24773W        W42297   1.782   4.444  13.722 -0.3058  0.1794 -0.0222
24774W        W42298   1.109   6.270  15.700  0.0804  0.1282 -0.1330
24775W        W42299  14.004   7.581   0.453  0.2837 -0.1140 -0.1229
24776W        W42300   4.909   1.849   5.030  0.1140  0.1666  0.1085
24777W        W42301   5.694  17.135   1.722 -0.1312 -0.1142  0.1174
24778W        W42302   9.674  17.420   4.803 -0.2717 -0.1203 -0.0701
24779W        W42303   3.713   1.109   0.819 -0.3718  0.0619  0.2265
24780W        W42304  14.071   1.604   4.170 -0.0139  0.1972  0.1837
24781W        W42305  14.843   8.525   3.702 -0.0224  0.1405  0.4786
24782W        W42306   8.724   4.545  14.553  0.0026 -0.1868 -0.1914
24783W        W42307  13.088  15.961  14.833 -0.2017  0.1709  0.1167
24784W        W42308  15.622   0.757   1.992  0.1608 -0.1376  0.1735
24785W        W42309   8.909   3.657   0.933 -0.0597  0.0176 -0.1651
24786W        W42310  14.802   6.583   1.872  0.2977 -0.1272  0.3014
24787W        W42311  12.932   9.033   3.832  0.2189 -0.2235 -0.0206
24788W        W42312   9.820   2.857  10.917 -0.3741 -0.1233 -0.0138
24789W        W42313  15.522   7.023  14.806 -0.0383 -0.0460  0.3575
24790W        W42314  10.511   8.303  14.309  0.0987  0.0981 -0.1602
24791W        W42315  17.353   4.225  13.915  0.1687  0.1997  0.2234
24792W        W42316   6.030   8.682  14.511 -0.0671  0.0238 -0.0825
24793W        W42317   6.150   1.466   0.064  0.1874 -0.1797 -0.2872
24794W        W42318   7.153  11.691   4.891 -0.1274 -0.0047 -0.2294
24795W        W42319  17.434   3.506   4.452  0.0283 -0.3373  0.1536
24796W        W42320   1.281   9.898   0.931 -0.2419  0.2995  0.0291
24797W        W42321  16.343   3.430  13.503 -0.2383  0.0328  0.3138
24798W        W42322  16.627   2.339  12.804  0.1253  0.1574  0.1133
24799W        W42323  10.186   0.565   1.720 -0.1422  0.1304  0.1728
24800W        W42324   6.849  14.798  14.745 -0.1387 -0.2133  0.0723
24801W        W42325   8.730  13.322   0.531  0.1897  0.0581 -0.1537
24802W        W42326  12.908   5.389  15.815 -0.1301 -0.0975  0.4082
24803W        W42327   3.409  14.351   4.025  0.2400  0.0389 -0.0130
24804W        W42328   4.716   0.977   0.909  0.0363 -0.1663  0.0561
24805W        W42329   4.444   2.859   0.461 -0.1600  0.3001  0.1071
24806W        W42330  11.845   5.483  15.610  0.0910 -0.0157  0.0389
24807W        W42331  11.417   5.361  14.707  0.0937  0.1942 -0.0808
24808W        W42332   5.671   1.390   0.013  0.1079 -0.2203  0.3135
24809W        W42333   1.099  16.369  15.648 -0.2496  0.0189 -0.1574
24810W        W42334  10.524   0.169   4.525 -0.2266  0.0304 -0.0152
24811W        W42335   5.784   0.334  11.493  0.0006  0.3311  0.0329
24812W        W42336   6.390  15.767   2.754 -0.2355 -0.0703 -0.2579
24813W        W42337   0.892   4.183  13.375  0.3790 -0.2292 -0.1951
24814W        W42338   8.724   6.177   1.128 -0.3024  0.0033  0.0708
24815W        W42339  14.648  11.290  13.535  0.2202 -0.0719 -0.0924
24816W        W42340   6.648   9.089   6.297  0.0438 -0.1443  0.0987
24817W        W42341   9.175  13.695  12.441 -0.2296 -0.1676  0.1305
24818W        W42342   9.338  17.258   1.548  0.2780 -0.1421 -0.1810
24819W        W42343   3.007  17.640  13.233  0.5177  0.0379 -0.1480
24820W        W42344   3.247  16.678   2.556 -0.0939 -0.1182  0.0671
24821W        W42345  17.385   1.672  11.856  0.2335  0.0231  0.1378
24822W        W42346   0.621  12.016  15.841 -0.0713  0.3321 -0.1013
24823W        W42347   6.033   7.998   3.930  0.0863 -0.0929 -0.0818
24824W        W42348   3.238  11.760  11.842 -0.0724  0.0175 -0.0688
24825W        W42349  11.276   3.930   2.191 -0.0975  0.1307 -0.0830
24826W        W42350   6.848  10.013   4.902 -0.2694 -0.1731 -0.2973
24827W        W42351   7.334   8.025  13.913 -0.2764  0.1073  0.0303
24828W        W42352  13.584   9.929  14.968  0.1427 -0.2323  0.0602
24829W        W42353   9.124  16.163  15.851 -0.5084  0.2757 -0.1541
24830W        W42354   8.325  13.285  13.483  0.0916 -0.0275 -0.2977
24831W        W42355  13.040   1.833  15.713 -0.1033 -0.1072 -0.1317
24832W        W42356   5.171  14.092   2.584 -0.3446  0.3089  0.0488
24833W        W42357  15.168   2.808  16.319  0.1778 -0.3580  0.3324
24834W        W42358  13.475  12.393   4.720 -0.0698 -0.0158  0.0360
24835W        W42359  16.439   9.459  14.150 -0.0425  0.0217  0.0924
24836W        W42360   5.408  12.773  13.138 -0.0505  0.0451 -0.1712
24837W        W42361   7.348   9.406   1.154 -0.1825 -0.0271 -0.2401
24838W        W42362  13.940   3.559   1.474  0.0175 -0.1540 -0.0323
24839W        W42363   9.314   2.371   3.581  0.0913 -0.3978  0.1746
24840W        W42364   9.272  11.303   0.136 -0.0368 -0.1618  0.0405
24841W        W42365  17.794   1.441  13.916  0.0905 -0.0567 -0.3138
24842W        W42366   5.183   5.987  16.041 -0.0461 -0.0243  0.3379
24843W        W42367   6.287  15.924   0.312  0.2620  0.2535  0.3101
24844W        W42368   1.159  10.951   2.004  0.4825 -0.0123 -0.3348
24845W        W42369   6.548  14.114   5.132 -0.3093 -0.0583 -0.0538
24846W        W42370   6.736  12.970  12.056  0.0640 -0.0675  0.3124
24847W        W42371   2.875  13.532  15.228  0.1617  0.0266  0.0467
24848W        W42372   0.198  10.422  11.654  0.2042 -0.2501 -0.3907
24849W        W42373   4.960   5.682   3.644  0.0327  0.2190 -0.2933
24850W        W42374   4.495  11.173  16.186 -0.1300  0.1968 -0.4025
24851W        W42375   7.625   8.861  12.465  0.1317 -0.0767 -0.0044
24852W        W42376   9.547   1.905   1.583 -0.1509 -0.0699  0.2108
24853W        W42377   6.858   9.843  15.439 -0.0413  0.1491 -0.2841
24854W        W42378   5.126   5.315   1.192 -0.3038  0.0360 -0.3141
24855W        W42379   4.044  15.395   4.707 -0.0466 -0.1623 -0.0324
24856W        W42380  13.098   0.506   0.557  0.0477  0.0702 -0.1522
24857W        W42381   4.582   8.908  11.826  0.0194  0.2200  0.1646
24858W        W42382   9.266  10.981  15.933  0.0859 -0.1249  0.0969
24859W        W42383   8.415   2.746  14.882  0.0335 -0.1705  0.0980
24860W        W42384   7.956   4.096   1.322  0.2026 -0.0480  0.0530
24861W        W42385   0.769   7.771  13.426  0.0791  0.0177  0.0649
24862W        W42386   1.136   4.224   2.686  0.0409  0.0543  0.2502
24863W        W42387   2.391   6.395   4.082  0.0881 -0.1301  0.0574
24864W        W42388  15.142  17.136   0.016  0.1158  0.2857  0.3516
24865W        W42389   0.896   7.261  13.361  0.0081  0.0997  0.0336
24866W        W42390  14.405   6.467  12.636  0.2238 -0.0528 -0.3113
24867W        W42391  15.794   3.988   3.942  0.2602 -0.0912 -0.1260
24868W        W42392  11.061   1.891   0.509  0.1250  0.1807  0.1945
24869W        W42393   6.155  13.598  14.133 -0.0609 -0.1575 -0.3511
24870W        W42394  14.606  10.686  14.433  0.1367 -0.3915  0.1431
24871W        W42395   1.981  10.753  13.019 -0.2154  0.2209 -0.1767
24872W        W42396  16.084  16.256  14.992 -0.4534 -0.4168  0.0335
24873W        W42397   2.721   6.013   4.506  0.1921  0.2547  0.0630
24874W        W42398  12.101   3.073  13.554  0.0070  0.1718 -0.0237
24875W        W42399   7.703   6.987   2.094  0.1139  0.0366  0.0478
24876W        W42400   4.365   3.279   0.959  0.1506  0.2123  0.3080
24877W        W42401   4.472  13.638  14.858  0.4891  0.1984  0.1365
24878W        W42402   6.132  12.872   2.878 -0.1584 -0.1362  0.1666
24879W        W42403  16.321  14.670   2.270  0.1204  0.0578  0.3617
24880W        W42404  17.130  14.611  12.641  0.0429 -0.1420 -0.2286
24881W        W42405  15.122   0.727   1.120  0.3638 -0.1519  0.1333
24882W        W42406   3.373   6.913  14.501  0.0659  0.0720 -0.1892
24883W        W42407   8.467   3.874   0.183 -0.1731  0.0425  0.0551
24884W        W42408   5.425  13.122  15.200 -0.2952  0.0055  0.1071
24885W        W42409  11.877   9.224  12.786 -0.0808 -0.3085  0.1767
24886W        W42410   7.359  16.624  15.323  0.2481 -0.2915 -0.0895
24887W        W42411   0.207  11.144  15.438 -0.0030  0.2000 -0.1636
24888W        W42412   8.129   4.257   0.062  0.0322 -0.0210 -0.0160
24889W        W42413   3.197  15.384  12.529  0.2571  0.0066 -0.0572
24890W        W42414   3.978  15.547   4.129 -0.2739  0.0430  0.1433
24891W        W42415  13.869  12.414   5.053  0.2586 -0.1470  0.3159
24892W        W42416   6.373   7.661   1.648 -0.1136  0.0417 -0.1463
24893W        W42417   2.341   0.686   3.421  0.1164 -0.0116 -0.0800
24894W        W42418   7.067   9.323   2.138  0.0701  0.1536  0.0550
24895W        W42419   7.560  15.764   4.581  0.2873  0.3346 -0.0225
24896W        W42420  14.370  10.849  15.615  0.0084 -0.3751  0.0227
24897W        W42421   1.341  16.997  13.974  0.0702 -0.5748  0.2170
24898W        W42422   5.189  12.630  15.140 -0.0157  0.3374  0.1715
24899W        W42423  15.551  10.894   2.840  0.1399 -0.0198 -0.0789
24900W        W42424  10.987   4.331   2.385  0.0861  0.0395 -0.1972
24901W        W42425  17.883   1.823   0.320 -0.1414  0.0027 -0.3149
24902W        W42426  14.831  17.789   3.127 -0.0037 -0.0686  0.2890
24903W        W42427  15.558   0.085  13.853  0.0338  0.2584 -0.1912
24904W        W42428  10.141  17.558  13.764 -0.0248  0.1358 -0.1595
24905W        W42429   8.560  11.994   5.052 -0.2650 -0.0247 -0.0788
24906W        W42430   6.374  12.763  16.243 -0.2085  0.1695 -0.1248
24907W        W42431   6.334   1.294  12.640 -0.0601  0.3341 -0.2576
24908W        W42432   6.477   8.731   4.217  0.1820 -0.2363 -0.1860
24909W        W42433   4.029  17.340  15.743 -0.1085 -0.1740  0.0548
24910W        W42434   0.170  13.988  12.220 -0.1474 -0.2134  0.1129
24911W        W42435  17.639   7.237  15.792  0.3631 -0.1378  0.4926
24912W        W42436   9.324   2.159   0.081  0.3230  0.1385 -0.0780
24913W        W42437   1.537  11.315   4.260 -0.2049  0.0034 -0.2841
24914W        W42438  12.651   9.160   1.984  0.2559  0.1470  0.0751
24915W        W42439  16.248  15.708  13.089 -0.1892 -0.1362 -0.2777
24916W        W42440   3.141   3.265   0.737 -0.3714  0.0453  0.3250
24917W        W42441   3.368  16.821  14.896  0.0755  0.0740  0.0560
24918W        W42442  16.336   3.547   3.428  0.2759 -0.2720  0.3872
24919W        W42443   4.639   5.099   1.100  0.1452  0.3729 -0.0689
24920W        W42444   7.470   1.263   4.332 -0.0703  0.0518 -0.0643
24921W        W42445   9.695  14.552  16.303 -0.1851 -0.2946 -0.2858
24922W        W42446   0.753   2.460  12.897 -0.1695 -0.0489  0.1349
24923W        W42447   3.320   5.773  11.608 -0.2606 -0.0238  0.0612
24924W        W42448   9.542  11.430  14.475 -0.2913 -0.0050  0.2952
24925W        W42449  15.679   2.757   1.171  0.1229  0.1566  0.0502
24926W        W42450  13.018   7.489   0.958 -0.0508 -0.0808 -0.0649
24927W        W42451  11.111  13.544   3.121 -0.4063 -0.0583  0.2072
24928W        W42452   5.416   0.134  14.780 -0.3124  0.0383  0.0342
24929W        W42453   6.303   6.837   4.762 -0.2637  0.1814  0.1415
24930W        W42454   2.903  16.955  11.629  0.0486 -0.3073 -0.0691
24931W        W42455   3.211   2.771  14.027  0.2321 -0.1854 -0.2803
24932W        W42456  14.203   9.352   2.841  0.0456 -0.1452  0.1048
24933W        W42457   7.865   0.564   5.476 -0.1062  0.0935  0.2226
24934W        W42458  11.165  15.958  15.430  0.0054  0.3237  0.2087
24935W        W42459  11.721   8.072  15.339  0.0093  0.2419 -0.3030
24936W        W42460   3.995  16.945  15.496 -0.3225 -0.4790 -0.1481
24937W        W42461  11.201   2.672   3.563 -0.0281  0.4639  0.2553
24938W        W42462   9.013  12.084   4.109  0.0331 -0.0026 -0.0698
24939W        W42463  14.241  10.059  13.363 -0.2018  0.0412  0.1578
24940W        W42464   2.538   3.717  14.732 -0.0731 -0.2758 -0.2401
24941W        W42465  10.311  11.273   2.169  0.0516 -0.2695  0.3111
24942W        W42466  11.612   6.959   4.768 -0.4235  0.1703  0.3273
24943W        W42467  15.017   9.403   3.751 -0.1116  0.1197  0.3444
24944W        W42468  14.041   8.803  13.865 -0.0659 -0.1038  0.0098
24945W        W42469   5.390   6.087  13.134  0.1056  0.1997  0.1783
24946W        W42470  14.407   4.974   4.652  0.2284  0.2014 -0.1441
24947W        W42471   6.890  13.895   3.167  0.0351 -0.1679  0.0540
24948W        W42472   5.354   6.477   3.839 -0.0386 -0.0348  0.1169
24949W        W42473  12.892   4.342  13.019 -0.1405 -0.3292 -0.0147
24950W        W42474   7.036   1.829   3.230  0.0247 -0.1782  0.2666
24951W        W42475   8.984  10.794   5.060  0.0321 -0.1499 -0.0791
24952W        W42476   4.499  13.579   3.854  0.1015  0.2462  0.2622
24953W        W42477   8.521  12.211   2.117  0.0671  0.0609 -0.0487
24954W        W42478  14.158   2.646   0.021 -0.0348  0.0011 -0.3228
24955W        W42479   0.072   0.962  14.691  0.2288 -0.0136  0.1435
24956W        W42480  14.921   5.457  14.439 -0.2903  0.1760  0.0136
24957W        W42481   8.034  11.803  14.252 -0.0455  0.1144  0.0647
24958W        W42482   5.387   9.856   3.796 -0.1184  0.1371  0.2021
24959W        W42483   1.785  10.513   2.311 -0.1062  0.3399  0.3194
24960W        W42484  17.321  10.846  12.588  0.0149 -0.1536  0.0202
24961W        W42485  14.622   7.750   3.445 -0.0559  0.0317 -0.1147
24962W        W42486  10.411  12.901   5.713 -0.0430  0.0405  0.3615
24963W        W42487   9.991   6.889   2.062 -0.0513  0.2481 -0.1609
24964W        W42488  12.148   1.961   3.523  0.3056 -0.0437 -0.0692
24965W        W42489   0.502  17.215   2.253  0.2525  0.1174  0.0607
24966W        W42490   0.963  12.519  13.926 -0.0548  0.0513  0.2056
24967W        W42491   8.592   4.302  10.154 -0.0812 -0.3104 -0.0800
24968W        W42492   8.936   3.218  12.777  0.1185  0.1863 -0.0460
24969W        W42493  13.934   5.174   1.188 -0.0398 -0.0329  0.0215
24970W        W42494   1.027   7.064   3.086  0.1323 -0.0727  0.0877
24971W        W42495  16.291  12.929  15.181  0.0957  0.1974 -0.2173
24972W        W42496  17.237   0.347   5.865  0.1149  0.1706  0.2195
24973W        W42497  14.695  10.390  10.965 -0.2461  0.0401  0.3196
24974W        W42498   5.944  13.651   4.140 -0.0001 -0.1135  0.0967
24975W        W42499  11.383   7.568  14.042 -0.1930  0.2522  0.0969
24976W        W42500   4.064   7.065  11.046 -0.0287  0.2278  0.1005
24977W        W42501  11.454  13.594  13.454 -0.0513  0.0528  0.1951
24978W        W42502   3.748   6.726   1.725 -0.0782  0.1161  0.0061
24979W        W42503  16.060   4.017   3.465 -0.0959 -0.0490 -0.2246
24980W        W42504  14.205  14.547   4.102 -0.2849 -0.1962  0.2089
24981W        W42505  13.967   2.153  14.808 -0.0263  0.1004  0.1099
24982W        W42506   6.305   1.914  12.544 -0.0904 -0.2122  0.0674
24983W        W42507   0.243  16.950   4.029  0.1566 -0.2142  0.0636
24984W        W42508  16.351   0.129   1.514  0.2403  0.0869  0.2391
24985W        W42509   1.018   0.828  13.873  0.1608  0.1010  0.2932
24986W        W42510  15.989  14.256   4.793 -0.0059  0.1863  0.0377
24987W        W42511   7.946   4.068   1.899 -0.1857  0.0379  0.3212
24988W        W42512   7.014   9.455   2.637 -0.1456 -0.0666 -0.0520
24989W        W42513  11.090  14.604   2.181  0.0200 -0.0802 -0.0969
24990W        W42514  16.999   6.922  15.166 -0.0643  0.0101  0.1666
24991W        W42515   2.207   5.733  13.214  0.2078  0.1984  0.1219
24992W        W42516  12.164  10.372  16.429  0.0832  0.0218 -0.0860
24993W        W42517   2.597   7.333   1.009 -0.0352  0.1423 -0.0004
24994W        W42518   4.504   0.744   4.481 -0.1965  0.0540  0.2931
24995W        W42519   5.922  17.078  16.278 -0.2220  0.3282  0.0012
24996W        W42520  13.995  16.875   3.106 -0.1126  0.2581  0.0773
24997W        W42521  10.582   4.152  11.066  0.1158 -0.0950 -0.1759
24998W        W42522   3.408  11.375  15.857  0.1809 -0.0167  0.1204
24999W        W42523   5.464  15.470   4.888  0.1062 -0.1446  0.0348
25000W        W42524   2.187   4.490   1.289 -0.4433  0.3743 -0.1480
25001W        W42525   4.552   2.169   4.749 -0.1979 -0.0844 -0.0404
25002W        W42526   9.156  11.242  15.467 -0.3366 -0.0415  0.0344
25003W        W42527   0.847   8.240  13.083  0.0468  0.3210  0.0978
25004W        W42528   2.651  13.568   1.585  0.3415  0.0339  0.1621
25005W        W42529   9.231  17.790   2.273 -0.0141  0.0670  0.2193
25006W        W42530   7.122   4.575   4.053  0.1895 -0.2441  0.1654
25007W        W42531   1.729   2.279  11.942  0.2000 -0.2208 -0.2537
25008W        W42532   1.444   3.689  12.218  0.0701  0.0366 -0.1063
25009W        W42533  16.004  17.129   3.497  0.0682 -0.0781  0.3081
25010W        W42534   3.019   0.809  16.033  0.1868  0.0102 -0.1814
25011W        W42535   3.517   1.978   0.553 -0.1462 -0.0890  0.2494
25012W        W42536   5.255  16.202  15.345  0.2517  0.1071 -0.2047
25013W        W42537  13.625   8.966  13.720  0.2161  0.2089  0.1406
25014W        W42538   7.892   9.422   5.062 -0.1565  0.0027 -0.3874
25015W        W42539  13.866  10.260  15.896 -0.0556 -0.3320 -0.1132
25016W        W42540  14.236   6.212   3.376 -0.0221 -0.1633  0.4698
25017W        W42541   1.953   0.651  12.790  0.2946 -0.1725  0.1028
25018W        W42542  13.502   6.260   0.781  0.0820  0.3018  0.3985
25019W        W42543  14.460   5.728   3.488  0.2308 -0.1114  0.4233
25020W        W42544   7.181  14.573  11.817  0.0977  0.0359  0.1839
25021W        W42545   7.031   2.454   1.431 -0.0173  0.1998  0.3073
25022W        W42546  16.149   2.672   2.864  0.0857 -0.1895  0.1618
25023W        W42547  13.696   3.394   2.824  0.1137 -0.2211  0.0933
25024W        W42548   5.302   8.496   2.039 -0.0856 -0.1776  0.0015
25025W        W42549   2.634   7.726  11.796  0.3441  0.0071 -0.0901
25026W        W42550  10.358  12.593   2.163  0.2756 -0.1673 -0.0615
25027W        W42551  13.304   5.217  13.542  0.1108  0.1897  0.0292
25028W        W42552  17.366   6.708  15.553  0.2189  0.1000  0.0177
25029W        W42553   3.967  11.070  12.310  0.3569 -0.0561  0.1602
25030W        W42554  12.466  16.285   5.090  0.1295 -0.2236  0.2258
25031W        W42555  13.337   4.425   1.220 -0.0224  0.1639  0.1097
25032W        W42556   5.704  12.615   3.643  0.0335  0.0554 -0.1597
25033W        W42557   5.853  15.825   4.228 -0.0532  0.1571  0.3353
25034W        W42558  12.870   6.724   3.409 -0.4049  0.0529  0.1602
25035W        W42559   5.043   7.064  16.084  0.1830 -0.2262 -0.1799
25036W        W42560  15.190  11.616   0.467  0.0698  0.2220 -0.1443
25037W        W42561  14.994  16.951  13.861 -0.2426 -0.0699 -0.1426
25038W        W42562  15.087   7.867   2.035 -0.0128  0.0276 -0.0717
25039W        W42563  16.693   0.508   4.797 -0.3923 -0.0890  0.0030
25040W        W42564   5.692  14.454   1.666  0.1192  0.0671 -0.3372
25041W        W42565   4.576  15.007   3.995 -0.0947  0.1543  0.0644
25042W        W42566  12.553  12.942   4.858 -0.0845  0.3143  0.2174
25043W        W42567   2.914  14.795  16.400  0.1167 -0.1840  0.1253
25044W        W42568  17.029   0.295   1.906  0.1372  0.0640  0.0069
25045W        W42569   8.413   6.986  13.930  0.2017 -0.1443  0.1015
25046W        W42570   3.531   7.967   0.505  0.0148 -0.1365  0.0934
25047W        W42571   3.417  17.795  16.040 -0.2267 -0.2624  0.3402
25048W        W42572   3.018   8.020   4.917  0.0091 -0.1253  0.2177
25049W        W42573   5.687   8.506  14.861  0.0309  0.1024  0.1617
25050W        W42574   6.649   7.856  11.502  0.1161 -0.0583 -0.3427
25051W        W42575   2.181   8.780  15.917 -0.1659  0.0850 -0.3228
25052W        W42576   1.695  12.907  12.368  0.0906  0.0032 -0.0899
25053W        W42577  16.271   3.750   2.737  0.0903 -0.1626  0.4158
25054W        W42578   5.905   3.854   3.965 -0.3096  0.1016  0.1628
25055W        W42579  15.447  16.002   4.371  0.1552  0.2688 -0.0615
25056W        W42580  12.780  10.952   2.632  0.2274  0.0166 -0.2493
25057W        W42581   4.064   1.964  15.229  0.3630 -0.0346 -0.3919
25058W        W42582  16.388   9.164   2.135  0.1410 -0.1269  0.0578
25059W        W42583  15.536  10.204  11.719  0.2089  0.0504 -0.0781
25060W        W42584  16.086   5.886  15.953  0.0304  0.0629 -0.2248
25061W        W42585  13.778   6.758  11.313  0.3792 -0.1549  0.0140
25062W        W42586   6.116  16.777  13.398 -0.0768  0.1427 -0.0889
25063W        W42587  12.622  13.468   1.093  0.1801 -0.2585 -0.0666
25064W        W42588   9.757  11.399  12.327 -0.2612 -0.1499  0.0015
25065W        W42589   6.081   6.638   4.245  0.0051 -0.0320 -0.2592
25066W        W42590   2.950  17.583  14.584  0.0545  0.0299 -0.1363
25067W        W42591   5.020   9.248  14.391  0.1975 -0.1368 -0.1602
25068W        W42592  11.067   3.371  11.768  0.1747 -0.1072  0.3314
25069W        W42593   9.995   6.801  16.209  0.1153  0.2389  0.0458
25070W        W42594   3.616   9.666   4.168  0.1692 -0.0986  0.1544
25071W        W42595  14.691   4.680   3.695  0.1526  0.1664  0.0941
25072W        W42596   6.655   2.490  16.275  0.0710 -0.2032  0.2314
25073W        W42597  12.262   6.773  13.001  0.0725 -0.1959 -0.2893
25074W        W42598   0.556  13.645  12.146  0.1496 -0.1650 -0.1588
25075W        W42599   3.215  17.969  12.520  0.0775  0.0002  0.0105
25076W        W42600  13.302  11.224   3.753  0.0375  0.1068  0.3631
25077W        W42601  14.309   8.546   3.048 -0.1704  0.1152 -0.0877
25078W        W42602  13.152  14.761   3.709 -0.1884  0.2611 -0.1475
25079W        W42603  11.474  17.358  15.578 -0.4130  0.0806  0.0911
25080W        W42604   6.644   7.756   4.260 -0.3893  0.3653  0.0363
25081W        W42605  14.404  13.489  14.995 -0.2194 -0.0267  0.0714
25082W        W42606   5.916   1.622  12.661 -0.0624  0.2539 -0.3031
25083W        W42607   4.992   6.278  16.437  0.0959  0.2805 -0.6053
25084W        W42608  17.946   5.508  14.967  0.2065 -0.2410 -0.1114
25085W        W42609   9.717   5.057  16.034  0.1661  0.0785  0.0777
25086W        W42610   4.265   8.856   1.278 -0.1329 -0.0242 -0.1181
25087W        W42611  15.351  17.333  12.387 -0.1775 -0.3282  0.1231
25088W        W42612   2.015   7.451   2.341  0.3648 -0.4601 -0.2090
25089W        W42613   5.267  16.793   0.991 -0.1642  0.2420  0.0605
25090W        W42614   3.962  11.508   1.131 -0.0021  0.1870  0.0400
25091W        W42615  15.130  12.833   3.466 -0.0869 -0.2325 -0.0973
25092W        W42616  13.462   6.524  12.589 -0.1631  0.1078  0.1871
25093W        W42617  13.408  16.186  12.711 -0.0729 -0.1468 -0.1538
25094W        W42618  17.186   8.396  12.039 -0.1890 -0.2268  0.1291
25095W        W42619   4.390   7.475   0.678 -0.1884 -0.1158 -0.2356
25096W        W42620   7.317  15.527   4.218 -0.1278 -0.3064  0.0720
25097W        W42621   6.072  14.007   6.177  0.4623 -0.0131 -0.0359
25098W        W42622  11.151   3.196   4.234  0.2169 -0.0915 -0.1468
25099W        W42623   5.261  13.810   4.541  0.3582  0.2687  0.1109
25100W        W42624   7.097   2.446  14.149  0.1991  0.0138  0.2010
25101W        W42625  15.580   2.455  16.052 -0.2213 -0.0962  0.0783
25102W        W42626  14.690  16.372  12.769 -0.2164 -0.0318 -0.0846
25103W        W42627   7.965   3.398  12.240 -0.0030  0.2461  0.2715
25104W        W42628  10.494  15.480  15.800 -0.0048  0.0390 -0.2557
25105W        W42629  10.843   8.791   4.703  0.2685 -0.1405  0.0866
25106W        W42630   3.422   2.482  11.571 -0.0469 -0.0656 -0.2113
25107W        W42631   7.416  17.203  14.811  0.1144 -0.1193 -0.2332
25108W        W42632   5.895   7.808  15.282 -0.1615 -0.0738 -0.2523
25109W        W42633  15.010  11.462  14.112  0.2251 -0.0097 -0.0981
25110W        W42634  15.015  17.864   1.182 -0.1864  0.0649  0.1940
25111W        W42635  12.179  16.822  15.213 -0.1095 -0.0550 -0.0352
25112W        W42636  13.292   5.235   3.256 -0.4003  0.2375  0.2564
25113W        W42637  15.903   9.747   3.691 -0.0131  0.0519  0.1024
25114W        W42638   9.614  16.199   0.901  0.0950 -0.0172  0.0199
25115W        W42639   8.743   0.954  12.739 -0.0473 -0.1849  0.0221
25116W        W42640   9.837   0.032  13.997  0.2841 -0.3030  0.1706
25117W        W42641   4.676   9.158  16.047 -0.0264 -0.0359  0.1616
25118W        W42642   7.787  17.386  10.907  0.3686 -0.2598 -0.0933
25119W        W42643  10.530  17.862  14.379 -0.1593  0.0484 -0.1401
25120W        W42644  10.075  17.816  12.507 -0.1974  0.0492 -0.0685
25121W        W42645  16.454  15.917  12.327  0.0543 -0.0392  0.2395
25122W        W42646   0.708   1.125  16.030 -0.0784  0.1919 -0.0142
25123W        W42647   4.425   5.091  13.241  0.1913  0.0469  0.0954
25124W        W42648   8.791  16.695   3.768 -0.0336  0.0397  0.0483
25125W        W42649   6.966   9.093   4.198 -0.2352 -0.0097  0.1737
25126W        W42650   2.780  15.095  11.601 -0.1555 -0.0504  0.0067
25127W        W42651  17.464   0.429  13.082 -0.3201 -0.0648  0.1764
25128W        W42652   6.037   6.577  15.147 -0.2513  0.2438  0.0054
25129W        W42653   7.446   0.615  11.369 -0.0969  0.4392 -0.3243
25130W        W42654  16.835   4.069  12.131 -0.2937 -0.0158 -0.1047
25131W        W42655  10.732   4.028  15.497  0.0954  0.3121  0.0975
25132W        W42656   6.321   0.331  15.621 -0.3054 -0.0974 -0.0299
25133W        W42657   9.428   9.031   2.801 -0.2436 -0.1407  0.1634
25134W        W42658  13.579   3.653   2.358  0.3623 -0.1181  0.0504
25135W        W42659   8.472  17.445  12.296  0.0962  0.2420  0.1831
25136W        W42660   4.666   9.740   3.277 -0.0900 -0.0011 -0.1324
25137W        W42661   4.987   9.925   2.176 -0.3480  0.0143  0.1656
25138W        W42662   8.633  13.854   4.478  0.2850  0.3048 -0.0346
25139W        W42663  17.135   0.350   5.215  0.1050 -0.3229 -0.0175
25140W        W42664   2.532   8.228   2.426 -0.2022  0.1385 -0.0964
25141W        W42665   5.546   4.267  13.406 -0.0243 -0.3692 -0.2191
25142W        W42666  16.550  17.635   3.191  0.4081 -0.0411  0.0369
25143W        W42667   8.813   3.775  13.845 -0.0513  0.0198 -0.3413
25144W        W42668  15.814   6.590   2.157 -0.0350  0.1993  0.3241
25145W        W42669  14.836   3.686  13.782 -0.0633 -0.0821  0.0290
25146W        W42670   3.014   5.476  12.938  0.5860  0.0784  0.3885
25147W        W42671   0.835  11.805  12.909 -0.1645 -0.0920  0.0586
25148W        W42672   7.890  10.130  11.743  0.4073 -0.3552  0.3363
25149W        W42673  10.095   4.269  14.121 -0.1305  0.0166  0.0397
25150W        W42674  13.004  10.157   1.812 -0.1299  0.0036  0.0547
25151W        W42675  14.901   1.838   6.148 -0.0343  0.1337 -0.1299
25152W        W42676   7.611   4.431   5.190  0.2438 -0.2781  0.1296
25153W        W42677   8.282  12.339   5.342 -0.0471 -0.0171 -0.2251
25154W        W42678  13.785   2.845   1.980  0.1013  0.0531  0.1260
25155W        W42679   7.533  10.546  12.424  0.0446  0.2222  0.1579
25156W        W42680  17.620   3.130  14.821 -0.0843  0.0610  0.0654
25157W        W42681  12.188  10.196  15.755  0.2104 -0.3514  0.2255
25158W        W42682   0.332   4.053   1.160  0.0415  0.3317 -0.2226
25159W        W42683  13.002   0.964   3.216  0.1112  0.1247 -0.0312
25160W        W42684   6.359  17.217  13.575  0.0116 -0.0872 -0.0713
25161W        W42685  15.233   0.016  13.097 -0.0061 -0.1436 -0.1316
25162W        W42686  13.588  16.320   1.415  0.1181  0.0980  0.0366
25163W        W42687   3.252   0.257   1.251 -0.0604 -0.3076  0.4675
25164W        W42688  17.678   8.067   1.977  0.0933 -0.2107  0.0838
25165W        W42689  15.367   1.749   4.965 -0.1159 -0.1605  0.0967
25166W        W42690   4.555   5.847  14.858  0.2716  0.2788  0.2648
25167W        W42691   8.821   4.174  15.481 -0.3389 -0.1369 -0.0835
25168W        W42692   9.981  10.920   3.670 -0.1045  0.1054 -0.1881
25169W        W42693   4.057  13.360  13.926 -0.0123 -0.1198 -0.1965
25170W        W42694   0.346  13.108   2.473  0.0128  0.1362  0.0907
25171W        W42695  17.515   7.055   2.860 -0.2829  0.0993  0.0274
25172W        W42696  10.908   2.372   0.303 -0.0572 -0.0823 -0.1662
25173W        W42697   6.385   1.463  12.180  0.2589 -0.4431 -0.2580
25174W        W42698   4.439  14.147   1.028  0.0518 -0.0274 -0.2359
25175W        W42699   0.089   0.817   5.729  0.0804  0.1669  0.2342
25176W        W42700   7.393  12.388   2.450  0.0713 -0.1635 -0.1118
25177W        W42701   3.128  15.373   1.120 -0.2684  0.1816 -0.4380
25178W        W42702   9.957  14.874   5.419  0.0296  0.0416  0.2360
25179W        W42703  11.317   7.520  12.265 -0.0492 -0.2388 -0.0845
25180W        W42704  12.627   8.820  12.985 -0.2508  0.1119  0.0146
25181W        W42705   1.648   6.322   3.100  0.2183 -0.2451 -0.2480
25182W        W42706   0.434   9.229   3.323  0.0685  0.0157  0.0565
25183W        W42707   7.776  15.433  14.438 -0.0600  0.0202 -0.0633
25184W        W42708   1.492   4.212   0.720  0.1901 -0.1006 -0.0560
25185W        W42709  11.989  15.177   4.485 -0.0818 -0.0832  0.1888
25186W        W42710  11.738   3.300  12.083  0.0033  0.0976 -0.0948
25187W        W42711   3.718   6.100  12.814 -0.0450 -0.1487  0.0437
25188W        W42712   9.459  10.809  13.262 -0.4057  0.2685  0.2709
25189W        W42713   5.582  11.351   1.453 -0.2212 -0.2069 -0.0540
25190W        W42714  11.876  12.129   2.580  0.0851 -0.1222 -0.1720
25191W        W42715  14.582  17.916   0.715  0.1164  0.0349  0.0900
25192W        W42716  17.758   5.340   1.611 -0.0814 -0.0657 -0.2371
25193W        W42717  12.154  16.009  11.362 -0.1564 -0.0457 -0.0981
25194W        W42718  13.508   4.994   0.905 -0.0172  0.2380 -0.1205
25195W        W42719   5.753   4.478   1.570  0.2569 -0.1392 -0.2497
25196W        W42720   4.330  11.489   1.530 -0.1933  0.1230  0.0881
25197W        W42721  15.567   9.988   1.853 -0.3345  0.0057  0.5223
25198W        W42722   7.581   7.394   1.130  0.5056 -0.2359  0.2159
25199W        W42723  11.126  12.879  14.132  0.0697 -0.1280  0.5513
25200W        W42724  16.113  12.603  15.598 -0.0219 -0.0203  0.0787
25201W        W42725   7.345   9.896  15.516  0.2349 -0.3034  0.0211
25202W        W42726  14.120  11.145  14.659  0.0302  0.1043 -0.2405
25203W        W42727   6.811   7.750   2.443 -0.0892 -0.2560 -0.2314
25204W        W42728  13.557  17.481   3.531  0.1057  0.1071  0.1417
25205W        W42729   8.282   0.529   1.840  0.1127 -0.0905  0.0629
25206W        W42730   0.850   8.435  12.035 -0.1328  0.2043 -0.1388
25207W        W42731  17.527   1.952  13.142  0.0577  0.4277  0.1357
25208W        W42732  13.138  14.426   0.627  0.0544  0.0379  0.2574
25209W        W42733   5.408  10.591  13.190 -0.2618 -0.1454  0.0583
25210W        W42734   5.847   4.984  12.297 -0.1228 -0.1077  0.0411
25211W        W42735   6.509   9.368  13.322  0.0154  0.0942  0.2252
25212W        W42736   6.926   0.891   1.693 -0.2740 -0.0529 -0.0372
25213W        W42737  12.118   8.411   3.970 -0.2898 -0.0682 -0.0114
25214W        W42738  15.616   3.243   2.289  0.1768  0.0076  0.1328
25215W        W42739  11.642  14.801   2.941 -0.2312  0.2394  0.0699
25216W        W42740   3.102   5.986  11.179 -0.0081 -0.1319 -0.0472
25217W        W42741   1.345  12.500  14.914 -0.0129  0.1478  0.0988
25218W        W42742  10.202   4.379   2.880  0.0419 -0.2580 -0.1893
25219W        W42743   1.036   4.352   0.497 -0.0963  0.1518  0.2206
25220W        W42744   9.381   8.688   2.026 -0.0785 -0.0372 -0.0197
25221W        W42745  14.327   4.408   1.428 -0.0200  0.2308  0.1923
25222W        W42746  13.195  17.036   0.279 -0.2698  0.0254 -0.2514
25223W        W42747  13.660   5.871  13.840  0.2048  0.1889  0.1869
25224W        W42748   5.359  10.786  11.771 -0.1444 -0.0464 -0.0382
25225W        W42749   8.992  11.608  11.782 -0.0355  0.1149 -0.3100
25226W        W42750  11.733   1.217   0.443 -0.1843 -0.1843 -0.0132
25227W        W42751   5.258  12.902   3.891 -0.1063  0.1040 -0.0138
25228W        W42752   6.127   7.394   1.985 -0.1506 -0.4650 -0.1232
25229W        W42753  17.553  14.675   3.067  0.1478 -0.0231 -0.0195
25230W        W42754  17.741  15.418  15.947  0.0727 -0.0945 -0.4790
25231W        W42755   2.939   2.674  11.597 -0.1105  0.1690  0.0551
25232W        W42756   7.581   7.292  12.034  0.1691  0.0147 -0.0265
25233W        W42757   3.382   2.946  13.119 -0.3304 -0.0609 -0.1392
25234W        W42758   1.469  11.188   2.794  0.1488  0.2655 -0.2283
25235W        W42759   3.625   9.317  14.303 -0.2925  0.0792  0.0554
25236W        W42760  16.009   4.876  16.235  0.0762  0.0266 -0.0804
25237W        W42761   8.282  17.692  16.081 -0.1581 -0.2363  0.0648
25238W        W42762   5.604  11.325  13.515 -0.0000 -0.0112 -0.2292
25239W        W42763  12.177   5.204  10.538 -0.2297  0.1596 -0.0378
25240W        W42764   7.849  12.234   6.368 -0.2447  0.0006 -0.1454
25241W        W42765  14.483  15.405  15.967  0.1034 -0.3971  0.0179
25242W        W42766  12.222   1.696  11.926  0.1280 -0.0771  0.3849
25243W        W42767  17.117   0.880   4.871  0.0547  0.0433  0.1400
25244W        W42768   9.350   5.772   4.372  0.1339 -0.4031 -0.2214
25245W        W42769   4.417   0.970   0.321 -0.2260 -0.0359 -0.0341
25246W        W42770  11.529   3.132  12.714  0.0058  0.0880 -0.2293
25247W        W42771  15.589   0.450  12.777  0.1949 -0.1379  0.0941
25248W        W42772   0.219   0.584   3.227  0.0315 -0.0303  0.0341
25249W        W42773  14.464   4.829   1.911  0.1088  0.0597  0.0476
25250W        W42774  16.845  13.645  11.162  0.1231  0.0481 -0.0166
25251W        W42775  12.008  15.443   5.367 -0.2922  0.3060  0.0218
25252W        W42776  10.634   5.986  13.733 -0.1329  0.4681  0.0189
25253W        W42777   6.245  10.037  13.870 -0.0585  0.3823 -0.1977
25254W        W42778  12.475  13.217  11.797 -0.0872 -0.2427 -0.1649
25255W        W42779   9.196   2.667   1.216 -0.2015  0.1765  0.1167
25256W        W42780  16.262  13.526  14.866  0.1049  0.0090 -0.1339
25257W        W42781   9.835   0.817   4.552  0.2759  0.1140 -0.1455
25258W        W42782   4.558  10.085  13.609 -0.0044 -0.2712 -0.1858
25259W        W42783   7.319   4.821   1.099  0.0193 -0.0136  0.1410
25260W        W42784   6.904  10.321   1.079  0.1626  0.3300  0.0555
25261W        W42785  17.761   3.998   4.585 -0.6568 -0.0445 -0.2073
25262W        W42786  13.020   9.006   2.344  0.1768  0.0598  0.2027
25263W        W42787  12.616  13.823   4.783  0.0397  0.1111  0.0611
25264W        W42788   9.505  14.224  11.917 -0.0266 -0.0981  0.0271
25265W        W42789  17.424   7.716  15.302  0.0128 -0.3080 -0.0962
25266W        W42790   3.060   3.084  15.207 -0.2445  0.0756  0.1689
25267W        W42791   6.640  10.840  11.710 -0.0313 -0.1168 -0.1601
25268W        W42792   5.111  13.040   0.980  0.3427 -0.2426 -0.1576
25269W        W42793  12.968   0.305  16.088 -0.1452  0.3927  0.2160
25270W        W42794   3.545   6.910   0.894 -0.2812  0.1093  0.1511
25271W        W42795   3.710  16.842  16.410  0.1293  0.0802 -0.0225
25272W        W42796  11.218  12.213  16.048  0.0103 -0.0088  0.0853
25273W        W42797  15.219   3.919  15.829  0.1265 -0.0437 -0.2142
25274W        W42798  11.926   2.128  15.469  0.1873 -0.1414  0.2242
25275W        W42799  13.995   2.073   0.224  0.2039 -0.0927  0.1985
25276W        W42800   6.966  14.532  15.723 -0.2025 -0.2533 -0.0192
25277W        W42801  17.949  15.144   0.397  0.0180 -0.0522 -0.0262
25278W        W42802   3.547   1.098   1.319 -0.0323 -0.0154  0.0449
25279W        W42803   6.238   9.703  12.457 -0.2145 -0.1335 -0.0866
25280W        W42804  15.048  14.431  15.699 -0.0603 -0.1203 -0.0718
25281W        W42805   3.858   2.712   3.192 -0.0314  0.1691  0.0332
25282W        W42806  11.208   1.510   4.810  0.2049  0.1066  0.1732
25283W        W42807   6.270  11.650  12.153  0.1222 -0.0442 -0.0551
25284W        W42808  11.096   8.569  12.524  0.0744  0.2469 -0.0615
25285W        W42809   8.898  17.779   0.342  0.1526 -0.0433  0.1318
25286W        W42810   5.789   6.319  11.743 -0.1150 -0.1861 -0.2010
25287W        W42811   5.346   5.156   3.172  0.1027  0.2278 -0.0044
25288W        W42812  17.164   5.057   2.619 -0.0789 -0.1200  0.1167
25289W        W42813   1.443   3.808   1.272  0.3734  0.0836 -0.0760
25290W        W42814   2.702  11.223  15.750  0.1397  0.1219 -0.0407
25291W        W42815  16.262   8.026   4.541 -0.0540  0.0618  0.0398
25292W        W42816  13.082   0.497  11.703  0.3078 -0.4983  0.1616
25293W        W42817  12.082   7.323   2.527  0.1254  0.0504 -0.2852
25294W        W42818   5.408  15.807  11.875  0.0286  0.0656  0.1419
25295W        W42819   5.163  10.733  16.015  0.2969  0.1981 -0.1294
25296W        W42820   9.904  14.328  14.606 -0.1186  0.2539  0.1533
25297W        W42821   2.982   1.137   0.449  0.0043  0.0311 -0.0096
25298W        W42822  11.095   8.002  16.178  0.0728  0.0780  0.1063
25299W        W42823  13.098   2.103   3.257  0.1333 -0.1771 -0.0417
25300W        W42824  15.095  11.528  13.605 -0.0437 -0.4027  0.3894
25301W        W42825  16.580  11.777  13.924  0.1837 -0.2504  0.1200
25302W        W42826  16.609  15.933   1.403 -0.1265  0.0182  0.0182
25303W        W42827   4.295  14.144  14.797 -0.1051  0.3991  0.4689
25304W        W42828   1.745   9.941   1.135 -0.1129  0.2552 -0.1396
25305W        W42829   7.592   2.457  10.743  0.1649 -0.0243 -0.3474
25306W        W42830  11.526   3.739  13.013  0.0973 -0.1252  0.0225
25307W        W42831   3.574   2.891   1.132 -0.0443  0.0393 -0.0743
25308W        W42832  13.289  12.711  15.304  0.0026 -0.1076 -0.2500
25309W        W42833  12.426   4.929   0.153  0.1598  0.1312 -0.1876
25310W        W42834  15.066  17.942  13.997  0.1859 -0.1475 -0.0646
25311W        W42835  10.249  10.905  11.728  0.2210  0.1219  0.0746
25312W        W42836  10.577  15.391  12.837 -0.1330 -0.0177  0.2979
25313W        W42837   9.885  14.013   3.626 -0.3032 -0.1065 -0.0995
25314W        W42838   3.286   6.009  15.769 -0.0054  0.1559 -0.1654
25315W        W42839   6.305   8.980   3.354  0.3229 -0.0972 -0.1318
25316W        W42840   3.129   1.747   3.612  0.0790  0.2400  0.0366
25317W        W42841  13.931  16.770  13.028 -0.0682  0.0813 -0.2984
25318W        W42842   1.323   1.509  13.268 -0.1457 -0.2421 -0.0873
25319W        W42843   2.677   4.269   3.919 -0.0776  0.1535 -0.0027
25320W        W42844   0.125  12.485  13.344 -0.1820  0.0367  0.4389
25321W        W42845  11.963   9.903   0.705 -0.1446  0.1546 -0.0087
25322W        W42846   8.392   5.834  13.063 -0.4029 -0.1773 -0.0274
25323W        W42847  13.296  11.630   6.076  0.1931 -0.0021 -0.0112
25324W        W42848   6.357   3.180   3.473  0.2442  0.0425 -0.0894
25325W        W42849  10.813   3.679   2.847  0.0717  0.1288 -0.1889
25326W        W42850   2.158  10.501   3.677 -0.2971  0.2261 -0.0166
25327W        W42851   7.252  16.339   2.776 -0.3550 -0.0328 -0.2559
25328W        W42852   2.398  17.217   2.339 -0.2479 -0.0158  0.2670
25329W        W42853  13.866   5.712   2.706 -0.1021 -0.4455  0.1247
25330W        W42854   1.705  11.265   4.726  0.1461  0.0264 -0.3602
25331W        W42855   9.535  14.748  14.730  0.0775  0.0797 -0.1172
25332W        W42856  16.654  14.951   0.436 -0.0962 -0.0256  0.1710
25333W        W42857   4.072  13.552  13.075  0.0560 -0.0451 -0.1648
25334W        W42858  16.942  13.326  11.572 -0.1759  0.0056  0.0455
25335W        W42859  10.044  16.106   1.952  0.2528  0.1951 -0.0035
25336W        W42860  13.351   8.233  12.922 -0.1213  0.0458  0.3317
25337W        W42861   5.631   2.819  11.160  0.4449  0.3154 -0.0627
25338W        W42862   2.687  13.311   4.270  0.0483 -0.2276 -0.3624
25339W        W42863  10.554   9.349  11.400 -0.3672  0.2002 -0.1139
25340W        W42864   8.346  10.307  15.091  0.1109  0.1316 -0.0496
25341W        W42865  12.665  16.792   5.176  0.1289  0.3167 -0.1807
25342W        W42866   9.902   8.398   0.828 -0.0542  0.1345  0.0712
25343W        W42867   8.619   2.190   0.713 -0.0795 -0.2147  0.1183
25344W        W42868   2.940  10.337  12.857 -0.1968  0.1227  0.0560
25345W        W42869   5.793   3.390   3.905 -0.0700 -0.2322 -0.1625
25346W        W42870  13.131   4.150   0.038 -0.2851  0.0609  0.1196
25347W        W42871  16.021   7.549  11.403  0.0136  0.1062  0.0076
25348W        W42872   8.323   1.552  13.940 -0.1440  0.0953 -0.4244
25349W        W42873  17.609   2.675  12.440  0.3419 -0.0981  0.4675
25350W        W42874   7.377  12.327  15.861  0.1273 -0.2344  0.0584
25351W        W42875  16.794  16.284  12.095  0.0328 -0.1945  0.2503
25352W        W42876  16.346   0.891   2.583 -0.0626 -0.0627 -0.1889
25353W        W42877  11.469  12.697  16.267  0.0261 -0.0344 -0.1166
25354W        W42878  13.372   6.745  13.105  0.1769 -0.2160 -0.3159
25355W        W42879  16.958   0.756  12.994 -0.0783  0.0172  0.2670
25356W        W42880  16.673  13.151   1.064 -0.1633  0.0552 -0.2542
25357W        W42881  14.687  16.669   4.797  0.2485  0.0885  0.4299
25358W        W42882   6.416  17.098  12.729  0.0947  0.3221  0.0011
25359W        W42883   1.756   1.826   1.722  0.2464  0.5173 -0.0218
25360W        W42884   7.135  10.599  14.137 -0.1113 -0.2269 -0.1983
25361W        W42885   9.959  12.087   1.543 -0.1676 -0.1583 -0.0393
25362W        W42886   6.125   8.122  15.658  0.1489 -0.4602  0.0789
25363W        W42887   4.841  10.262  15.988 -0.0645 -0.0081  0.3414
25364W        W42888   2.792   7.599  11.289 -0.1189  0.0335  0.2043
25365W        W42889   7.952  10.554  15.533 -0.1566  0.1716  0.2781
25366W        W42890  12.264  16.504   2.949  0.0455  0.2452  0.1334
25367W        W42891  15.562   8.132  16.012  0.0010  0.2587 -0.0214
25368W        W42892   6.672  16.815  12.069 -0.0760  0.3728  0.0849
25369W        W42893   3.630   7.143  14.887 -0.0099 -0.0519  0.2739
25370W        W42894   1.371  15.751   0.145 -0.1019  0.1468 -0.1726
25371W        W42895  16.021   1.191   3.455 -0.1093 -0.1139 -0.1044
25372W        W42896   1.888   4.024  13.525  0.0041 -0.1103 -0.0223
25373W        W42897  17.432  13.571   0.447 -0.0923 -0.1850 -0.0792
25374W        W42898  10.164  12.678  14.982 -0.1210  0.1194  0.1525
25375W        W42899   6.773  17.014   1.623  0.4484 -0.0779  0.2081
25376W        W42900  14.934   6.765  12.599 -0.1106 -0.2339  0.2194
25377W        W42901  12.854  16.229  12.749 -0.0500 -0.1878 -0.1223
25378W        W42902  11.671  16.866  12.330 -0.2230 -0.0106  0.0207
25379W        W42903   1.817  14.645   3.969  0.0409  0.2003 -0.0146
25380W        W42904   1.576  14.222   2.173  0.1080  0.2168  0.0009
25381W        W42905  10.825  13.082   3.834  0.2237  0.4960 -0.1307
25382W        W42906   2.057   9.371  11.152 -0.1137  0.1575 -0.3014
25383W        W42907  13.231   0.543   2.747  0.1667 -0.0433 -0.1317
25384W        W42908   3.302   2.555  15.535  0.1288 -0.0949  0.3158
25385W        W42909  17.752   4.758  15.393 -0.2634  0.0606  0.1305
25386W        W42910   5.275   5.507   4.659  0.5507  0.2057 -0.3146
25387W        W42911   2.808   0.444   5.059 -0.0840  0.2706  0.1056
25388W        W42912  14.577   9.598   3.546 -0.0318 -0.1093 -0.3033
25389W        W42913  10.894  10.645   4.754 -0.0446  0.0167 -0.1211
25390W        W42914   1.533  11.634  15.433 -0.1779 -0.1139 -0.3268
25391W        W42915  11.719   3.924  15.168  0.1212  0.1405 -0.3700
25392W        W42916  16.203   8.551   2.830 -0.0308  0.1412  0.1706
25393W        W42917  14.993   6.138   0.777 -0.1130 -0.1226 -0.0041
25394W        W42918   5.807  10.858   3.753 -0.0141 -0.1526 -0.1975
25395W        W42919   7.414   4.180  15.490  0.0821 -0.2159  0.0748
25396W        W42920  14.999   9.373   1.055 -0.0922 -0.3572 -0.1376
25397W        W42921  16.205  11.902  11.696 -0.0438  0.3104 -0.3394
25398W        W42922   4.534   5.053   3.339 -0.3385 -0.0837  0.0349
25399W        W42923   4.602  12.336  12.893  0.0140  0.3305 -0.0319
25400W        W42924  10.627  15.028  13.179 -0.0736 -0.2450  0.5283
25401W        W42925  12.663   6.248  16.240  0.2138 -0.4039  0.1796
25402W        W42926   6.881  14.088  12.946  0.1170 -0.1451 -0.1866
25403W        W42927   1.631   9.672   4.336 -0.2428  0.1732 -0.1693
25404W        W42928   2.239  11.415  13.592  0.0766 -0.5975  0.1428
25405W        W42929   8.285   5.529   0.235 -0.0709  0.0905 -0.1092
25406W        W42930  16.603   1.467  11.301  0.2858  0.0984  0.1024
25407W        W42931  11.822   7.794  14.354 -0.5037  0.2703  0.2843
25408W        W42932   4.827  10.467  16.425 -0.3483 -0.0549 -0.0139
25409W        W42933   6.299   5.709  15.427  0.0651  0.3148  0.0204
25410W        W42934  13.172  15.886   2.828  0.2175 -0.1490 -0.2801
25411W        W42935   2.916   9.191   2.959  0.0419 -0.3335 -0.1785
25412W        W42936  11.247  11.006   4.611 -0.0506  0.0435 -0.1838
25413W        W42937   8.146   8.560   1.972 -0.1343 -0.1688 -0.3000
25414W        W42938   7.007  11.354  12.451 -0.1773 -0.0989 -0.2019
25415W        W42939   7.202   2.910   3.013  0.1406 -0.0068 -0.1191
25416W        W42940   2.471  14.775   4.086 -0.3881 -0.1207  0.0665
25417W        W42941  12.714   1.302   2.877  0.0576  0.0778 -0.0056
25418W        W42942   3.583   7.460  14.483  0.0145 -0.1520  0.0631
25419W        W42943   3.935  14.145  12.487 -0.2342  0.3378  0.0885
25420W        W42944   4.856  10.941   0.909 -0.2029  0.2407 -0.1061
25421W        W42945  16.654  15.458   1.695 -0.3476 -0.1589  0.3244
25422W        W42946   6.370  15.980  14.895 -0.0292 -0.1909 -0.0035
25423W        W42947   2.647   0.880   4.871 -0.3067  0.0038 -0.0767
25424W        W42948  16.018   1.876  14.587 -0.1850  0.0601  0.3446
25425W        W42949   5.079  13.445   3.801 -0.1667  0.0197 -0.0395
25426W        W42950  11.779   0.699  15.881  0.2895  0.2164  0.1216
25427W        W42951   5.363  10.330   1.200 -0.2294  0.0832  0.0458
25428W        W42952  15.573  12.855  12.054 -0.0150 -0.1819 -0.0468
25429W        W42953   0.067   1.748   5.589 -0.0717  0.0692 -0.0658
25430W        W42954   7.710  17.017  11.958 -0.2863 -0.1438 -0.0731
25431W        W42955   5.517  13.180   3.533 -0.1684  0.0245 -0.3485
25432W        W42956   7.266   3.051  11.726  0.0555 -0.1004  0.2766
25433W        W42957   8.772  12.320  12.446  0.2068 -0.0322  0.0661
25434W        W42958   5.040   6.558  16.019 -0.0543  0.0442 -0.0509
25435W        W42959  11.389  16.940   2.050 -0.1708  0.0559  0.2044
25436W        W42960  17.281  17.231  16.111  0.0926 -0.2386 -0.2403
25437W        W42961  17.598  15.862   4.569 -0.0616 -0.0608  0.3279
25438W        W42962   4.747   8.089   0.344 -0.1066 -0.1277 -0.1052
25439W        W42963  16.559  14.226  11.902 -0.0879 -0.0676 -0.2971
25440W        W42964   7.376   7.143  13.137  0.1308 -0.0157 -0.0956
25441W        W42965   8.221  10.275  13.281 -0.0341  0.2388  0.2907
25442W        W42966  15.445   5.042   1.664  0.2957  0.0863  0.0150
25443W        W42967  14.310   8.179   4.431 -0.1591  0.2737  0.2394
25444W        W42968   8.356  12.397  16.093 -0.3943  0.2504 -0.1088
25445W        W42969  12.588   6.327   2.219 -0.1532 -0.3391 -0.3703
25446W        W42970   9.088  12.488   0.828 -0.0936 -0.0669 -0.0609
25447W        W42971  10.398   8.349   3.955  0.0922  0.0836  0.0896
25448W        W42972   9.515   5.525   0.437  0.3329 -0.1679  0.1249
25449W        W42973   6.348   7.555   2.414 -0.1095  0.0194 -0.1564
25450W        W42974   7.505   5.041  15.629  0.2712  0.0023  0.0582
25451W        W42975   3.830  17.808  12.721  0.0449  0.0063 -0.1865
25452W        W42976   3.460   8.950   3.694  0.1057  0.0048  0.1014
25453W        W42977  17.166  10.662  13.876  0.0725  0.1279  0.0983
25454W        W42978   4.021   2.876   0.768  0.4010  0.0593 -0.2216
25455W        W42979  10.534   3.135  13.488  0.1457  0.0403  0.1870
25456W        W42980  11.911  11.853  16.356 -0.1748  0.0535 -0.0769
25457W        W42981   9.734   6.592  11.362  0.1214  0.0129 -0.0922
25458W        W42982   8.998  14.790   4.492  0.0458  0.0468 -0.2775
25459W        W42983   9.299   1.356  11.803 -0.1116  0.3545 -0.1328
25460W        W42984   0.758  13.391  16.275  0.2176 -0.2238  0.1747
25461W        W42985  16.750  12.851   2.998  0.0053 -0.1017  0.0567
25462W        W42986   1.818   5.864  14.605  0.1907  0.4279 -0.2462
25463W        W42987  17.853   9.062  11.754 -0.2338  0.2572 -0.1837
25464W        W42988   0.953  14.447  14.594 -0.0146 -0.0610  0.2956
25465W        W42989  11.406  10.165  12.154  0.1155 -0.0728 -0.0297
25466W        W42990  16.564   4.496   4.115  0.1928  0.0907  0.1258
25467W        W42991  12.401  10.994   4.743  0.2833 -0.4499  0.0570
25468W        W42992   3.255  17.094  14.423 -0.1213 -0.0041 -0.0798
25469W        W42993  15.744   7.326  11.817 -0.0188  0.1740 -0.0678
25470W        W42994   0.464  13.511   2.860  0.1785  0.1787 -0.0863
25471W        W42995  11.324  10.915   0.825 -0.2992  0.2567 -0.1073
25472W        W42996  13.042  17.523   0.371 -0.0527  0.2098  0.1586
25473W        W42997   3.271  13.128   5.087 -0.1780  0.0392  0.1001
25474W        W42998   4.748   4.405   1.669  0.1648 -0.1619  0.1265
25475W        W42999   9.592  12.145   2.862 -0.2257 -0.0074 -0.2224
25476W        W43000   7.023   3.640   0.761  0.1249 -0.1099 -0.1745
25477W        W43001  10.509   1.176   0.557 -0.0537  0.0798  0.2457
25478W        W43002  16.366   1.299   2.971 -0.1888 -0.2581 -0.4354
25479W        W43003   5.942  10.871  14.925 -0.0268 -0.0291 -0.1402
25480W        W43004   1.310   6.748  14.940 -0.0989 -0.3022 -0.0775
25481W        W43005   6.833   0.284  15.482 -0.1951  0.2858 -0.1044
25482W        W43006   8.328   2.972   4.217 -0.0019  0.0453 -0.0920
25483W        W43007   5.722   9.658   0.824 -0.1173 -0.0961 -0.3418
25484W        W43008  11.625  14.511   1.935 -0.0148 -0.1985  0.2860
25485W        W43009  15.588  15.393   3.386  0.0291  0.0423 -0.0204
25486W        W43010  14.227  15.715   1.396 -0.2010  0.0325  0.1717
25487W        W43011   6.680   3.965   0.893 -0.3089  0.2349  0.4258
25488W        W43012  12.092   7.050  12.422 -0.0928  0.3410  0.4283
25489W        W43013  15.424   9.235   0.388 -0.0496  0.0745  0.1015
25490W        W43014   3.876  15.889   4.413 -0.1029 -0.0900 -0.1293
25491W        W43015  12.145   3.042   2.680  0.1953 -0.1944  0.2366
25492W        W43016  14.122   5.491   0.641 -0.0552 -0.1063 -0.3168
25493W        W43017  10.832   6.303   3.895  0.0223  0.1626 -0.0434
25494W        W43018   8.765   3.152  15.798 -0.2458 -0.1329  0.0890
25495W        W43019  11.685   5.757   3.666 -0.4560  0.2513 -0.2056
25496W        W43020   8.921   5.326  14.085 -0.1157 -0.0387 -0.1104
25497W        W43021   1.507  14.298  12.566 -0.0148 -0.0562  0.0580
25498W        W43022  17.157  12.360  16.187 -0.0721  0.3551  0.3736
25499W        W43023   7.215  15.246   0.171 -0.2300  0.1187  0.1681
25500W        W43024  16.965  11.763  12.499 -0.0517  0.1549 -0.0853
25501W        W43025   6.969  12.691   0.504 -0.0858  0.0288 -0.1677
25502W        W43026  15.528  13.971  14.440 -0.0224 -0.0194 -0.0637
25503W        W43027   1.733  10.447   1.160 -0.0804 -0.1229  0.1238
25504W        W43028  14.117   4.244   3.760 -0.1518  0.0386  0.1184
25505W        W43029   3.094  12.571   2.419 -0.3123  0.0804 -0.0587
25506W        W43030  17.969   6.304   2.128 -0.1331  0.0912  0.0923
25507W        W43031  10.349   5.316  11.982 -0.0772 -0.0882 -0.0277
25508W        W43032  10.332   5.796  15.958 -0.1003 -0.2786 -0.2075
25509W        W43033  16.855   6.024  13.292 -0.0733 -0.5931 -0.3239
25510W        W43034  17.479   8.946  12.228  0.1662  0.3969  0.5114
25511W        W43035  15.839   6.542  12.878 -0.1890  0.0494  0.3794
25512W        W43036  15.345   5.282  11.747 -0.0779 -0.1881  0.2005
25513W        W43037  17.556   5.023  12.331 -0.1111  0.5035  0.1802
25514W        W43038   7.161   3.757   3.466  0.1122 -0.0501 -0.0433
25515W        W43039   8.567   9.993  13.902 -0.1140 -0.0516 -0.0216
25516W        W43040   3.939   5.510   5.633 -0.0359  0.2349 -0.1601
25517W        W43041   8.297   7.710  13.423 -0.2222  0.3578  0.0812
25518W        W43042  11.712  11.444   3.904 -0.1972 -0.2326 -0.0851
25519W        W43043  15.297  16.423  15.302  0.2101 -0.0448  0.0198
25520W        W43044   2.626  14.892   2.744  0.1478 -0.0519 -0.0181
25521W        W43045   3.751  12.145  13.297 -0.0316 -0.3146 -0.0565
25522W        W43046   4.608  11.482   0.097  0.0003 -0.0868  0.2267
25523W        W43047   8.304   9.971  12.273 -0.0379 -0.0417  0.0539
25524W        W43048   7.578   0.066   0.389  0.2718 -0.1809  0.3580
25525W        W43049   5.422  13.411  12.033  0.0121  0.2683 -0.6240
25526W        W43050   5.229  11.196  16.101 -0.0140  0.0981  0.0663
25527W        W43051   3.919  14.179   2.405  0.4394 -0.1462 -0.2661
25528W        W43052   7.844  13.639   2.271  0.2334 -0.3119 -0.1520
25529W        W43053  11.348   6.699  16.340  0.2544 -0.2207 -0.1818
25530W        W43054   0.283  13.041   2.952  0.2935 -0.0937  0.1469
25531W        W43055  10.910   6.039   1.696  0.2195 -0.1211 -0.0685
25532W        W43056   5.355  13.594  15.105  0.0699  0.2260  0.0226
25533W        W43057  10.640  14.781  11.956 -0.0568  0.1746  0.0431
25534W        W43058  13.450  14.270   4.337 -0.0369 -0.0964  0.2124
25535W        W43059  17.377  10.807  14.815 -0.2141 -0.1931 -0.2780
25536W        W43060  16.819   5.606  13.847  0.1947 -0.3127  0.1389
25537W        W43061  13.807   8.064   0.243 -0.1985  0.0301  0.2642
25538W        W43062   7.044  13.671   0.449 -0.1620 -0.1278 -0.0911
25539W        W43063   5.402   1.224   6.457 -0.0814 -0.1955  0.1258
25540W        W43064   1.745  10.240   2.776  0.0244 -0.1503 -0.3386
25541W        W43065  13.221   1.270  11.782  0.1653 -0.1670  0.0965
25542W        W43066  11.622   4.292   2.946  0.0328  0.2472  0.0360
25543W        W43067   5.805   0.084  15.171 -0.2037 -0.1212  0.3022
25544W        W43068  12.465  13.869   0.841 -0.0945  0.0865 -0.1706
25545W        W43069  17.918   8.893  14.454  0.2973  0.0495  0.1852
25546W        W43070  12.327   3.682  11.426  0.2977  0.1208  0.0202
25547W        W43071   8.142   8.940  10.723  0.0466  0.0859  0.0934
25548W        W43072   2.536   4.480   2.954 -0.1812 -0.0542 -0.1002
25549W        W43073  14.190   9.824   2.553 -0.3189 -0.1258  0.3167
25550W        W43074   7.222   3.976  12.310 -0.0776 -0.0738 -0.2658
25551W        W43075   4.461   1.938   2.975  0.1298  0.1398 -0.0459
25552W        W43076  11.347  16.075  11.919  0.0918 -0.0676 -0.0244
25553W        W43077   7.825  16.506  11.252 -0.0639 -0.2979  0.3943
25554W        W43078  16.489   2.615  15.971 -0.0283 -0.0849 -0.2667
25555W        W43079   6.444   7.032  15.625 -0.1446 -0.1965  0.0042
25556W        W43080   8.613   4.043  10.993  0.5537  0.1750 -0.1113
25557W        W43081   4.491  15.287  11.190 -0.0633 -0.0036  0.0499
25558W        W43082   6.861   4.122  13.067  0.0631 -0.3406 -0.1791
25559W        W43083   0.583  10.088   0.504 -0.1303  0.0397  0.0449
25560W        W43084  16.785   4.599  15.208 -0.0263 -0.0430 -0.3902
25561W        W43085   5.532  16.506   3.417 -0.4355  0.0065  0.2372
25562W        W43086  12.917  11.278   3.044 -0.0162  0.0507  0.0188
25563W        W43087  12.225   8.354   2.906 -0.0766  0.0051 -0.1727
25564W        W43088   9.441   4.502   1.552 -0.2159 -0.0004 -0.2302
25565W        W43089   0.461  10.659  16.403  0.1773 -0.2630  0.0414
25566W        W43090   6.987   5.638  13.235 -0.0609 -0.1155  0.0525
25567W        W43091   6.764  12.072  15.170  0.0398 -0.0002 -0.3659
25568W        W43092   0.970  11.826  12.329  0.2518  0.4120 -0.2616
25569W        W43093  14.284   8.772  15.466  0.2508 -0.0119 -0.2541
25570W        W43094   3.450  12.275  15.417 -0.1228 -0.1219  0.1491
25571W        W43095  10.100   8.237   3.480 -0.3539  0.2315 -0.2046
25572W        W43096   4.160   9.814   5.133  0.1701 -0.3450 -0.1242
25573W        W43097   0.489   2.296  12.407 -0.1232 -0.0669 -0.0313
25574W        W43098   4.523  12.478  13.455  0.1449 -0.1320  0.1638
25575W        W43099   6.997   1.765   5.246 -0.1644  0.1918  0.0221
25576W        W43100  13.419   8.681  15.338  0.0909 -0.1547  0.0521
25577W        W43101   2.927  17.499   5.104  0.2142 -0.1434  0.0798
25578W        W43102   9.305   6.447   4.505  0.1264 -0.0735  0.1337
25579W        W43103   5.052  11.497   4.925 -0.1031  0.4831  0.0012
25580W        W43104   4.914   6.891  12.675 -0.0511  0.0684  0.2758
25581W        W43105  11.542  12.349   0.436 -0.0351  0.0118 -0.3232
25582W        W43106  15.014  12.082   0.658  0.0965  0.1210  0.0916
25583W        W43107  16.536  10.322  14.394  0.1524  0.1654 -0.2492
25584W        W43108  11.268  10.374   4.471  0.0727  0.2538 -0.1833
25585W        W43109   4.447   7.156   3.994  0.0014 -0.0678 -0.2298
25586W        W43110   8.130   9.017   0.215 -0.0490  0.1953  0.2845
25587W        W43111   1.113  11.864  11.812  0.2543  0.1218  0.1482
25588W        W43112  16.813   7.678   3.560 -0.1093 -0.4667 -0.1806
25589W        W43113   6.172   3.024   1.593  0.1173 -0.3140 -0.1436
25590W        W43114  10.939  11.526  13.739 -0.1937 -0.1500 -0.0437
25591W        W43115  11.194   6.448  14.244  0.0216  0.1745 -0.0462
25592W        W43116   2.158  17.878   2.590  0.1312  0.3896  0.0219
25593W        W43117   3.902   6.583   0.605 -0.1412 -0.2869 -0.0008
25594W        W43118  13.188   2.487   1.440  0.2212 -0.2406  0.0366
25595W        W43119  15.465   1.738  15.420 -0.2641 -0.0164  0.1058
25596W        W43120   1.024   4.900   2.125 -0.1056  0.0225  0.1596
25597W        W43121  13.023  14.939   0.707  0.0272 -0.4062  0.3482
25598W        W43122   5.564   8.700   5.225 -0.1731  0.5154 -0.3558
25599W        W43123  13.428   5.049   1.410  0.3039  0.1726  0.2164
25600W        W43124  14.697  15.511  12.371 -0.3126 -0.1041  0.1002
25601W        W43125   6.504  17.492   1.185 -0.0840  0.3474 -0.2087
25602W        W43126  10.738   3.746   1.304  0.4126  0.0920  0.1772
25603W        W43127   9.969  14.459  12.131  0.0158 -0.1017 -0.1115
25604W        W43128   3.181  17.967  14.801  0.0714  0.0350 -0.2690
25605W        W43129  13.086   3.532  14.350  0.1376 -0.2325 -0.0002
25606W        W43130   4.475   0.765  11.310  0.0125  0.1077  0.4216
25607W        W43131   1.431  16.223   1.831  0.1330 -0.1321 -0.0066
25608W        W43132  11.236   3.691   0.449  0.0169 -0.0402  0.0662
25609W        W43133   5.718  10.079   0.527 -0.0627 -0.2010  0.2442
25610W        W43134  12.285   5.454  15.825  0.2077  0.0663  0.1173
25611W        W43135  16.004  14.404  11.311 -0.3531  0.1742  0.1135
25612W        W43136  11.427   5.604   5.171  0.1029  0.1009  0.1581
25613W        W43137  15.071   2.617   4.111 -0.3877 -0.1298  0.1173
25614W        W43138   0.455  13.514  14.616 -0.0532  0.2457  0.0691
25615W        W43139   2.136   2.428  16.374  0.1551 -0.1213 -0.3121
25616W        W43140  12.235  10.812   3.961 -0.1729  0.3529  0.0052
25617W        W43141  17.164  11.845  16.289  0.0425 -0.0513  0.0461
25618W        W43142  12.953  14.288  12.368  0.3245 -0.2754  0.0641
25619W        W43143   7.209  17.425  11.471 -0.1654 -0.1681  0.0385
25620W        W43144   8.793   1.420  13.702  0.2882  0.1904  0.0644
25621W        W43145  13.678   2.441  16.455 -0.0377  0.1837  0.0029
25622W        W43146   4.921   8.877   2.926 -0.0203  0.0596 -0.0292
25623W        W43147   7.411   5.125  14.267  0.2248  0.4702 -0.1162
25624W        W43148  16.247  17.541   4.859  0.1216 -0.2416 -0.0162
25625W        W43149  16.864   6.265   4.509  0.1266 -0.0840  0.0466
25626W        W43150  14.285   4.775   1.070  0.2009 -0.1052 -0.0439
25627W        W43151  14.951   9.076  14.226  0.1008  0.4362  0.5215
25628W        W43152   6.350   6.953  15.109 -0.0102 -0.1932  0.0061
25629W        W43153   3.325  14.326  13.040  0.1871  0.2002  0.1490
25630W        W43154   4.943   5.998  15.213 -0.0294  0.0693 -0.4236
25631W        W43155   5.349  10.501  12.145  0.0038  0.1119 -0.2952
25632W        W43156   4.286  16.049  14.202 -0.0823 -0.0806 -0.3194
25633W        W43157  17.093  16.531   1.929  0.4007 -0.3078 -0.0132
25634W        W43158  14.124   9.147  15.201  0.0162 -0.2501 -0.0648
25635W        W43159   1.360  10.144  16.237 -0.1283 -0.0277 -0.0285
25636W        W43160   7.728   2.622  10.304  0.1915 -0.1481 -0.2970
25637W        W43161   4.875  12.876   3.066 -0.0489 -0.0681 -0.3523
25638W        W43162   4.356   7.005   1.377  0.0792 -0.0458  0.0783
25639W        W43163   9.214   6.873  11.832  0.5306 -0.2124 -0.1045
25640W        W43164   1.147   0.173  15.444 -0.1665 -0.0475 -0.1317
25641W        W43165   3.081  16.148   3.255  0.2370 -0.2156 -0.1154
25642W        W43166  15.624   9.955  13.324  0.0260 -0.1223  0.0511
25643W        W43167  11.521  15.833  14.429  0.2822  0.0895 -0.0080
25644W        W43168  13.549  11.837  15.160  0.1008 -0.2049  0.1165
25645W        W43169  14.121   7.001   3.908 -0.0601  0.1777  0.2983
25646W        W43170   0.485  11.662   4.224  0.0663  0.0621  0.1369
25647W        W43171   2.851  11.218   2.649  0.0458  0.2142 -0.0523
25648W        W43172   6.573  12.667   5.844 -0.0849 -0.0362 -0.2047
25649W        W43173   1.985   0.353   0.336  0.1865 -0.0086  0.0474
25650W        W43174   8.256   0.052  12.937 -0.1841 -0.0777  0.2235
25651W        W43175  12.363  11.106   0.262  0.0463 -0.1133 -0.2641
25652W        W43176   5.672   2.096   0.395 -0.4223 -0.0384  0.0264
25653W        W43177  13.453  13.266   0.152 -0.0933  0.1772 -0.0506
25654W        W43178  14.397  12.898   2.332 -0.3001  0.2417 -0.1068
25655W        W43179   8.187  14.555   3.054  0.3647  0.1757 -0.0167
25656W        W43180   1.984   8.878   1.257 -0.3920  0.1322 -0.2064
25657W        W43181   7.786   6.462   0.440  0.2042 -0.1190 -0.0695
25658W        W43182   7.798   1.960   4.809 -0.0931 -0.0760  0.0172
25659W        W43183   2.150   3.352  15.447 -0.1782 -0.3494  0.2943
25660W        W43184   5.281  12.596   1.234 -0.1063 -0.1203 -0.0470
25661W        W43185   1.866  12.831   4.227  0.0618  0.8907  0.0287
25662W        W43186   2.118   4.644   0.043 -0.1454 -0.4236  0.1226
25663W        W43187   6.124   6.595   3.588  0.5064  0.2728  0.1770
25664W        W43188   2.370   8.930   1.589 -0.2051  0.2154  0.3054
25665W        W43189   3.668   2.244   3.104  0.1030 -0.2735 -0.0835
25666W        W43190  15.847   2.068   5.573 -0.3661  0.1669  0.1103
25667W        W43191   3.688  11.778  11.239 -0.2669  0.2381  0.0807
25668W        W43192   8.901   1.984  16.204 -0.1426  0.0806  0.3162
25669W        W43193   6.813   2.663  14.507 -0.0654  0.1776 -0.0561
25670W        W43194   5.538  15.323  16.280 -0.1693 -0.3132  0.1135
25671W        W43195  10.074  17.449   0.975 -0.0862 -0.1320  0.2415
25672W        W43196   0.893   1.547  12.436 -0.0263 -0.2548 -0.0760
25673W        W43197  13.798   4.678  14.908  0.1129  0.2014  0.2372
25674W        W43198   1.964   5.591   4.439  0.2226  0.1882 -0.0647
25675W        W43199   0.460   6.901   4.326  0.2399  0.0981  0.0117
25676W        W43200  11.859   5.302  14.611 -0.0175 -0.0548  0.0140
25677W        W43201  13.883  11.283   1.762 -0.1369 -0.0231  0.0597
25678W        W43202   1.648  11.120  13.086  0.0223  0.1082  0.1819
25679W        W43203  10.693  13.191   3.377  0.0560  0.1915  0.2321
25680W        W43204   0.843   7.933  11.749 -0.0590  0.1366  0.2716
25681W        W43205   9.566   8.616   2.499  0.0546 -0.2215 -0.0988
25682W        W43206   7.429  10.839   2.887 -0.1027  0.4116  0.1623
25683W        W43207  14.127   0.643   3.767  0.1475 -0.0087 -0.0107
25684W        W43208  11.407   1.892  11.962 -0.0838 -0.2750 -0.0128
25685W        W43209   9.728  17.196   3.743  0.1453  0.1971  0.1467
25686W        W43210  12.549   4.261  12.132  0.1129 -0.1790 -0.0808
25687W        W43211   9.571   0.122  13.369 -0.2636 -0.1101  0.1284
25688W        W43212  10.434   3.481  13.884  0.0854  0.0853  0.0599
25689W        W43213   5.694   3.013  13.875 -0.3865 -0.0422  0.4355
25690W        W43214  17.010  16.325  16.262  0.2465  0.2824  0.1765
25691W        W43215   6.159   1.017  14.113 -0.1254  0.0938 -0.0674
25692W        W43216   5.268  15.610   1.277 -0.0755  0.0149  0.0114
25693W        W43217   6.486  10.319   1.742  0.0610 -0.2109  0.1908
25694W        W43218  11.451  15.465   0.706 -0.1078  0.1024 -0.1649
25695W        W43219  12.943   8.544  15.904  0.3152  0.1507 -0.2849
25696W        W43220   5.348  16.924   2.463 -0.0931  0.2670 -0.1373
25697W        W43221   4.519   5.607   4.974  0.2092 -0.0920 -0.0324
25698W        W43222   9.859   8.172  13.182 -0.0237 -0.3906  0.1648
25699W        W43223  17.789   8.170   1.249 -0.0449 -0.1435 -0.1025
25700W        W43224   0.088   4.622   2.271 -0.0730 -0.1172 -0.0104
25701W        W43225  13.952  16.478   2.805  0.0678  0.0364  0.0962
25702W        W43226   1.396   1.543   3.124 -0.1445  0.0178  0.0727
25703W        W43227   3.379  11.108  13.081 -0.4407  0.0016 -0.1293
25704W        W43228  17.390  15.580  14.673 -0.0031  0.3691  0.2135
25705W        W43229   2.950  14.736   5.307 -0.1083 -0.2345  0.2416
25706W        W43230   3.149   0.627  11.521 -0.1970 -0.3266  0.0397
25707W        W43231  11.813   5.169  12.779 -0.0632 -0.2537  0.1919
25708W        W43232  16.266  14.176   2.368 -0.1295  0.2127  0.3505
25709W        W43233   1.889   4.898   3.792 -0.0143 -0.0177 -0.0899
25710W        W43234  10.189  15.178   4.877 -0.0602  0.2750  0.0580
25711W        W43235   9.506   2.271  12.347  0.0991  0.2065 -0.1221
25712W        W43236  10.722   1.305   3.166  0.1662  0.0230 -0.1161
25713W        W43237   1.468   2.280   3.385  0.0644 -0.0824 -0.4010
25714W        W43238   4.748  17.719  14.198 -0.1230 -0.1465  0.0181
25715W        W43239  10.611   1.655   2.768  0.1467  0.3796 -0.1549
25716W        W43240   4.491   0.588   5.512 -0.1807 -0.2128 -0.0578
25717W        W43241   6.640  16.620   4.638 -0.1150 -0.0459  0.0861
25718W        W43242   2.654   8.350   3.925  0.1192  0.0496 -0.2316
25719W        W43243  15.957  16.889   1.739  0.1209  0.2008  0.1169
25720W        W43244   6.107   7.708  12.134  0.1655  0.2152 -0.0685
25721W        W43245  16.852   1.915   4.618 -0.0392  0.1624 -0.0440
25722W        W43246   9.802  17.820  12.045  0.3167 -0.1047 -0.0733
25723W        W43247   4.198   6.565   4.366  0.2354 -0.0908 -0.0226
25724W        W43248   5.449  16.287   0.565  0.1140  0.1705  0.2617
25725W        W43249   8.707  11.900  15.432 -0.1777 -0.1445 -0.0302
25726W        W43250   3.133   2.299   1.695 -0.1443  0.0332 -0.1613
25727W        W43251  13.223   4.369  13.558  0.1568  0.2849  0.1585
25728W        W43252   3.804  12.366  16.288 -0.1228 -0.1000 -0.0783
25729W        W43253  15.091  14.674  16.178 -0.0902 -0.0596  0.1145
25730W        W43254   3.903  10.569  13.811  0.0005 -0.1469  0.0864
25731W        W43255  14.705   8.388   0.447  0.2549  0.0476 -0.0830
25732W        W43256   4.363  15.587  15.899  0.0288  0.0401  0.0182
25733W        W43257  14.490  13.953   5.355 -0.2007  0.1880  0.0088
25734W        W43258  14.027   6.869  13.967 -0.0296  0.1188 -0.2144
25735W        W43259  12.860  12.814   2.994 -0.1580  0.2896 -0.1773
25736W        W43260  16.706   8.509   0.345 -0.2146  0.1668 -0.2222
25737W        W43261  13.614  15.757   5.469  0.0581 -0.2675  0.0229
25738W        W43262  13.186   6.092   3.662 -0.3225  0.1362 -0.1232
25739W        W43263   1.561  12.794  13.389 -0.1449 -0.0401  0.2964
25740W        W43264   9.160  12.722   1.307 -0.0088 -0.0283 -0.1094
25741W        W43265   4.493   9.062  14.324  0.0417 -0.0813  0.1343
25742W        W43266   9.573  17.857  12.515  0.1127 -0.2589  0.1482
25743W        W43267   3.287   9.001   1.731 -0.3188  0.0270  0.0499
25744W        W43268   8.188  14.689   5.088 -0.2111 -0.0498  0.3127
25745W        W43269   2.783   0.710  11.088  0.0189  0.0739  0.0102
25746W        W43270  12.772  13.779  11.911 -0.1537 -0.1147  0.2813
25747W        W43271   6.712  13.956   0.739 -0.1815 -0.0402  0.2973
25748W        W43272  11.057  14.790  12.268 -0.2746  0.0781 -0.1457
25749W        W43273  17.407   9.330   4.544 -0.0197  0.0381  0.0362
25750W        W43274  17.719   7.225  14.024  0.0746 -0.2443  0.1866
25751W        W43275   0.282   7.763  13.454 -0.0983  0.0403  0.0758
25752W        W43276   4.027  13.137   0.242  0.3194 -0.0935 -0.0939
25753W        W43277   3.072   0.859  10.726 -0.0700 -0.3002  0.1540
25754W        W43278  15.158  10.796   3.204  0.0586 -0.0129  0.2646
25755W        W43279  12.521  12.326   2.061 -0.1855 -0.0239 -0.0881
25756W        W43280  10.801  11.783   3.721 -0.2628  0.3011 -0.1233
25757W        W43281   0.378  15.838   3.240  0.2150 -0.2882 -0.1439
25758W        W43282   4.113   3.311  16.013  0.2000 -0.3396  0.3118
25759W        W43283  11.696  12.393   4.817  0.0282 -0.0348 -0.2377
25760W        W43284   7.409   7.459   4.677 -0.2336 -0.1494  0.0952
25761W        W43285   5.120  14.477  14.799  0.3908 -0.1081  0.1053
25762W        W43286  14.340   1.616   2.075 -0.2759  0.1347 -0.1373
25763W        W43287  12.168   6.364   5.365  0.0673 -0.0988  0.1992
25764W        W43288  17.018   0.474   3.380  0.1943  0.2620  0.0707
25765W        W43289  17.227   5.560   1.777  0.2062 -0.2073 -0.1240
25766W        W43290   8.079   4.850  15.575  0.0017  0.1498  0.2492
25767W        W43291  16.772   2.936  14.517  0.4443  0.1275  0.2967
25768W        W43292   1.799   3.870   1.956 -0.3317 -0.0564 -0.0175
25769W        W43293   0.506  13.629   1.608 -0.1668 -0.1538 -0.1050
25770W        W43294   6.076  10.331   4.528  0.0103 -0.1317  0.1823
25771W        W43295  14.185   9.890  11.799 -0.2009  0.1233 -0.1332
25772W        W43296  13.482   1.438   2.008 -0.0189  0.4375  0.2901
25773W        W43297   7.933  12.272  12.214  0.1766  0.0411  0.3527
25774W        W43298  17.335   5.373   2.232 -0.1367 -0.0872  0.1764
25775W        W43299  16.471  15.760  14.550 -0.1441  0.3005 -0.4646
25776W        W43300   4.116  17.743  13.706  0.0010  0.2700 -0.0483
25777W        W43301   2.968   9.350  16.068 -0.0373 -0.1634  0.1531
25778W        W43302  17.161  14.193  16.051 -0.0414  0.1160 -0.1785
25779W        W43303  10.225   5.636   1.530  0.0598 -0.3013 -0.2197
25780W        W43304  16.862  11.779   4.102  0.4142 -0.1183  0.1117
25781W        W43305   9.560  13.668  12.123 -0.2140 -0.0495 -0.1013
25782W        W43306   1.247   2.306   2.887  0.1445 -0.3526  0.2167
25783W        W43307   8.440  15.530   5.809 -0.1046  0.1992 -0.2392
25784W        W43308   6.453  14.669  15.666 -0.4342  0.1997  0.2450
25785W        W43309   8.564  10.623  15.392  0.1326 -0.0703 -0.1267
25786W        W43310  15.381  14.645   4.078  0.1603 -0.0915  0.2110
25787W        W43311  16.935   9.893  10.987  0.0838 -0.1005  0.1701
25788W        W43312  17.441   7.540   2.619 -0.0178 -0.1763 -0.2540
25789W        W43313  11.867  11.057   3.593  0.2905  0.1476 -0.0051
25790W        W43314  14.530   8.091   3.002 -0.3004  0.2111  0.2675
25791W        W43315   7.982  17.097   4.907 -0.0803 -0.1064  0.1685
25792W        W43316   5.213  16.006  14.233  0.2645 -0.2062  0.2818
25793W        W43317   3.892   9.544   3.726  0.3764  0.1753  0.1579
25794W        W43318  11.269  17.913   0.589 -0.0445  0.0524  0.0215
25795W        W43319  13.666   9.413  13.527 -0.0104 -0.1197 -0.0689
25796W        W43320  15.214   3.590   0.350 -0.1427 -0.3147 -0.1535
25797W        W43321   0.001  14.266  11.848 -0.1031 -0.0412 -0.0729
25798W        W43322  16.750  17.843   1.651  0.0476 -0.1830  0.3390
25799W        W43323  12.356   4.610  15.385  0.0331 -0.5172 -0.0605
25800W        W43324   1.123   4.300  15.574  0.1107 -0.2599 -0.2082
25801W        W43325   0.189   5.232   1.048  0.0113  0.1075 -0.2182
25802W        W43326  15.714  17.580   5.467 -0.2287  0.0909  0.0528
25803W        W43327   5.314  16.644  14.816  0.0198  0.2219  0.3452
25804W        W43328   2.569  14.971  11.229 -0.1632  0.1706  0.3104
25805W        W43329   7.241  16.975  14.377  0.0557 -0.2246  0.0640
25806W        W43330  12.531  12.961  14.688  0.1244 -0.1157  0.0809
25807W        W43331  16.683  11.421   4.446  0.1961 -0.0168  0.0143
25808W        W43332   2.048   9.245  12.642  0.1181  0.1269 -0.0063
25809W        W43333   1.390   0.674  15.492  0.0254  0.1180 -0.1609
25810W        W43334  10.887  12.577  13.772 -0.0069 -0.1923  0.1386
25811W        W43335  13.893  14.995  12.809  0.1246 -0.2094 -0.3340
25812W        W43336   8.945   3.559  14.328  0.1771 -0.1450 -0.3406
25813W        W43337  10.485   9.147   1.029 -0.1209  0.0153  0.2046
25814W        W43338  14.968   9.618   4.569 -0.1331 -0.2442 -0.0743
25815W        W43339   4.317   1.821  11.933 -0.0603 -0.0346 -0.1687
25816W        W43340   8.563  14.044   0.348 -0.0117  0.1626  0.2811
25817W        W43341  17.141   4.966  14.169 -0.0743 -0.0817 -0.1505
25818W        W43342  14.881  10.104   4.551 -0.0494  0.0957 -0.1042
25819W        W43343   8.188  12.668  15.556 -0.0760  0.1443  0.1309
25820W        W43344  14.525  12.111   3.614  0.1357 -0.1838 -0.0495
25821W        W43345   7.391  13.334   0.608 -0.1073  0.0488 -0.1538
25822W        W43346   7.537  11.299  12.464 -0.0978  0.0735 -0.2263
25823W        W43347   5.480   5.943  14.203  0.2552 -0.3513 -0.0439
25824W        W43348   4.051  12.763   1.868  0.0273  0.0874  0.0790
25825W        W43349   1.287  16.476   1.293 -0.1547 -0.0712  0.0012
25826W        W43350  16.480   6.173   4.775  0.0866 -0.0815  0.0712
25827W        W43351   2.690  12.749   1.297  0.1428 -0.3430 -0.1957
25828W        W43352   2.679  11.967  13.360  0.2033  0.0260 -0.0670
25829W        W43353  13.741  12.454  13.322  0.0748  0.0170  0.5115
25830W        W43354   2.350  14.733   4.616 -0.0552  0.0232 -0.0960
25831W        W43355  16.305   3.639   0.715  0.3173 -0.0709 -0.0062
25832W        W43356  17.648   1.074   5.429 -0.0173  0.0032  0.1250
25833W        W43357  16.846   8.973   0.444  0.1608 -0.0862  0.1414
25834W        W43358   3.970   0.904   4.989 -0.3449 -0.2684  0.2714
25835W        W43359   8.124  10.643  13.679  0.2108 -0.0880  0.2163
25836W        W43360   9.233  11.607  12.262  0.0036 -0.2002 -0.0970
25837W        W43361   9.511   9.264  16.022 -0.2208  0.0446  0.2645
25838W        W43362   2.654   4.465   3.459 -0.0406 -0.2836  0.0242
25839W        W43363   2.255  11.014   4.499  0.0741 -0.2559 -0.2275
25840W        W43364   8.757   3.153  11.940 -0.1330  0.0498  0.2247
25841W        W43365   6.224  11.212   5.110  0.1322  0.0834  0.0032
25842W        W43366  17.191   2.466  15.751 -0.2659  0.0395 -0.0841
25843W        W43367  14.151   4.152  12.271  0.0776 -0.2942 -0.0083
25844W        W43368   0.869   9.524  15.311  0.2505  0.0499 -0.0694
25845W        W43369  17.261   0.884  14.637 -0.0268 -0.0226 -0.0402
25846W        W43370   8.547  15.384   0.223 -0.0555  0.2356 -0.2126
25847W        W43371   0.725  17.813  13.738  0.0214 -0.1995 -0.2875
25848W        W43372   2.043   0.038   4.684 -0.0793 -0.0896 -0.0766
25849W        W43373  11.860  14.870   2.159  0.3711  0.2676 -0.1555
25850W        W43374  17.363   4.159  15.708 -0.1907 -0.1657 -0.2119
25851W        W43375   1.148   9.261  15.018  0.0053  0.1045 -0.4557
25852W        W43376  13.291   7.028   3.359 -0.2740 -0.2191  0.0554
25853W        W43377  10.114  16.749   2.486  0.2207  0.4367 -0.0949
25854W        W43378   8.618  14.327   4.199 -0.0092  0.1262 -0.1016
25855W        W43379  15.828   5.686   2.507  0.2315 -0.0500  0.4026
25856W        W43380   4.830  13.116   0.039 -0.1231 -0.1743 -0.0999
25857W        W43381   5.154  12.355   3.649 -0.1558  0.1800 -0.3162
25858W        W43382  17.739  15.350  14.955  0.4283  0.2235 -0.1901
25859W        W43383   1.372   2.016  13.519 -0.1008  0.0534 -0.0572
25860W        W43384   5.978   1.032  16.444  0.3864  0.0063 -0.2292
25861W        W43385  17.775   1.935  12.294  0.0360 -0.1104  0.2835
25862W        W43386  12.915   8.397  13.154 -0.2988  0.0427 -0.0959
25863W        W43387  14.506  11.258  14.412  0.0216  0.0307  0.0714
25864W        W43388   7.112   1.924  12.774 -0.0053  0.1895 -0.0187
25865W        W43389   2.924   9.630  15.396  0.1365 -0.0483 -0.0885
25866W        W43390   3.817  13.648   4.534 -0.1646 -0.1854  0.0826
25867W        W43391  12.521   5.318   4.342  0.0267  0.0166  0.0144
25868W        W43392   9.460  16.754   1.457 -0.1095 -0.0664  0.2807
25869W        W43393  13.659   9.629  13.995 -0.0397  0.4169  0.2673
25870W        W43394   0.025  15.921  12.812 -0.2462  0.0520  0.1661
25871W        W43395  16.948  11.520   3.599  0.1027  0.0318  0.2143
25872W        W43396   5.195   3.997  15.216  0.2762  0.1428  0.1304
25873W        W43397   0.585   0.471   4.910 -0.5547 -0.0511  0.0766
25874W        W43398   8.039   3.330   0.657 -0.1540  0.0333 -0.1821
25875W        W43399   7.459   0.522  12.349 -0.0676  0.3132  0.0684
25876W        W43400   4.951  17.856  16.451 -0.2821  0.0232 -0.1351
25877W        W43401  15.097  11.418   3.119  0.0891  0.1796  0.2832
25878W        W43402  16.802  15.674   5.287  0.2114 -0.5156 -0.4133
25879W        W43403  10.073  13.977  15.069 -0.0379 -0.3303  0.0366
25880W        W43404  16.175  14.940   0.768 -0.0691 -0.1599  0.2829
25881W        W43405  10.508   0.714  12.269 -0.0218 -0.1793 -0.1139
25882W        W43406  16.130  10.711   1.233  0.0034 -0.1541  0.0353
25883W        W43407  12.374   2.613   2.719  0.0747 -0.1051  0.1603
25884W        W43408   2.957  11.014  12.820 -0.0590  0.0954 -0.2765
25885W        W43409  11.693  15.913   2.595  0.1789 -0.0145  0.1325
25886W        W43410  12.329  14.098  12.842  0.1034 -0.0310  0.2111
25887W        W43411  16.954  15.197   3.241 -0.0528  0.2059 -0.0511
25888W        W43412  14.183  12.633  14.764 -0.2273  0.0231  0.1108
25889W        W43413   8.647  16.467   3.324 -0.2301  0.1601  0.0747
25890W        W43414   9.204   1.584  14.384 -0.1289 -0.0797  0.1422
25891W        W43415   6.634  16.989   5.040  0.4346 -0.0764  0.1109
25892W        W43416   0.261  16.809   2.142  0.2037  0.2616  0.3042
25893W        W43417  10.132  11.545   1.331 -0.0279  0.2706 -0.1056
25894W        W43418  11.621  16.133  15.499 -0.0307 -0.0052  0.0178
25895W        W43419   1.904  15.555  11.402  0.1222 -0.0891  0.0361
25896W        W43420   2.504  17.002  12.154  0.2623  0.2092 -0.3122
25897W        W43421   3.473  12.979  15.625  0.1291  0.3475  0.2435
25898W        W43422   2.079  12.398  14.478  0.0919 -0.3224 -0.0049
25899W        W43423  16.483   8.024  13.956  0.2832 -0.1629 -0.1018
25900W        W43424  10.960   4.876  12.846  0.1419 -0.2176  0.1416
25901W        W43425  16.429   4.547  14.431 -0.0969 -0.2491  0.0408
25902W        W43426  16.542   3.693  12.385 -0.0328  0.2752 -0.0013
25903W        W43427   7.024   6.909   4.053 -0.1247  0.0841  0.0245
25904W        W43428  10.556  11.211  15.350  0.1503 -0.0035 -0.0167
25905W        W43429  17.596   5.372  14.601 -0.1416 -0.1646  0.2181
25906W        W43430  12.147  10.226   4.767 -0.2167 -0.0431 -0.0592
25907W        W43431   0.067  11.211   4.201 -0.0210 -0.1813 -0.1130
25908W        W43432  17.487   3.495  13.336  0.1191 -0.0438 -0.1662
25909W        W43433  10.581  11.619   1.237  0.1490 -0.0347  0.2808
25910W        W43434  15.458  11.109  14.474  0.2537 -0.0357 -0.1537
25911W        W43435  12.783   6.817   0.057  0.1208 -0.0260 -0.0352
25912W        W43436  17.769   1.555   3.373  0.4196 -0.0620 -0.2073
25913W        W43437   8.853  10.631   3.124 -0.0560 -0.3350  0.1959
25914W        W43438  17.968   1.424  11.439 -0.1518  0.1209 -0.1228
25915W        W43439  12.287  15.598   3.612 -0.0168  0.0679  0.0853
25916W        W43440   4.242   9.797   1.597  0.1761 -0.0525  0.0219
25917W        W43441  12.874  12.149  14.509 -0.3945  0.0695 -0.1255
25918W        W43442   3.266   1.487   2.254 -0.1584 -0.0457  0.0033
25919W        W43443  11.610   2.900   1.332 -0.4575 -0.0992  0.3410
25920W        W43444  16.663   9.400  11.063 -0.1511 -0.2894  0.0061
25921W        W43445   0.057   9.130   3.673 -0.0697  0.1318  0.0020
25922W        W43446  15.994   6.118   1.031  0.0029 -0.0432  0.2947
25923W        W43447  16.429  14.671  15.900 -0.2915  0.2196  0.3255
25924W        W43448   9.509  14.890   2.286  0.0732  0.0537 -0.0037
25925W        W43449   9.602  15.502   4.246 -0.0695 -0.1820 -0.2652
25926W        W43450  14.928  12.255  15.353 -0.0215 -0.0749 -0.0435
25927W        W43451   6.480  14.625   4.356  0.0332 -0.0187  0.2444
25928W        W43452   2.886  17.850  16.069 -0.0137  0.4012 -0.0299
25929W        W43453  13.731   1.687   0.468 -0.5957  0.0619 -0.0904
25930W        W43454   7.624   4.558  15.785  0.1092 -0.1852 -0.0110
25931W        W43455   2.292   2.333   4.196  0.1551 -0.2179  0.1085
25932W        W43456  11.679  14.833  15.816  0.1244  0.1995 -0.3581
25933W        W43457   1.735  13.839  14.264  0.1116  0.0239 -0.0034
25934W        W43458   5.370   0.252   3.277  0.0112 -0.3940  0.1810
25935W        W43459   9.500  15.513  13.839 -0.0386  0.1008 -0.1990
25936W        W43460  17.433  14.375   1.812 -0.0094  0.2675  0.0639
25937W        W43461   9.992  14.797   2.107  0.1037  0.0696 -0.1794
25938W        W43462  17.738  14.921  13.809  0.0520  0.3237  0.0593
25939W        W43463   6.602   1.269   3.499 -0.0249  0.0384  0.0291
25940W        W43464   9.256   1.596  15.302 -0.3302 -0.2066  0.2556
25941W        W43465   3.954   7.066   0.563  0.1571 -0.1594  0.0377
25942W        W43466  12.740  14.506   3.965 -0.1711  0.1714  0.1002
25943W        W43467   9.818  15.000  15.183 -0.2613  0.1685 -0.2058
25944W        W43468   5.791  14.892   3.628 -0.0940  0.2875 -0.0686
25945W        W43469   6.614   6.134  11.395 -0.0113  0.1131 -0.2301
25946W        W43470   3.573  16.391  11.556  0.1112  0.0444 -0.1736
25947W        W43471  14.948   9.205   3.207 -0.1057  0.0810 -0.3193
25948W        W43472  12.242   7.295  15.151 -0.1104 -0.4081 -0.1280
25949W        W43473   1.372   2.789  12.585 -0.1864  0.2627 -0.5194
25950W        W43474  11.004  10.392  13.236 -0.0995  0.0458 -0.1991
25951W        W43475  12.247   3.481  12.174  0.0869  0.4864 -0.4037
25952W        W43476   1.649   6.454  15.585  0.3052  0.2683  0.0747
25953W        W43477  11.952   1.926  14.046  0.1613  0.2708  0.0285
25954W        W43478   7.215   1.143  11.749  0.4443  0.2524  0.0149
25955W        W43479   5.780  14.004   0.325  0.0665 -0.2287  0.2762
25956W        W43480   1.971   4.097  14.074  0.0151  0.0069 -0.0473
25957W        W43481   2.916  12.825  12.388  0.2564  0.1534 -0.0977
25958W        W43482  12.662  17.824  16.198  0.0370  0.1533 -0.0392
25959W        W43483  16.945   2.892   0.929 -0.1118 -0.1378 -0.3104
25960W        W43484   2.783   0.585  13.807 -0.0803 -0.0750 -0.1465
25961W        W43485   2.846   1.048  13.546  0.3549  0.2301 -0.0591
25962W        W43486  13.201  11.313   0.038 -0.1438  0.1364 -0.0059
25963W        W43487  16.481  16.091   1.893  0.0187  0.0446  0.0492
25964W        W43488  17.308  10.160  12.737  0.1552  0.1887  0.1770
25965W        W43489   6.799   2.060   0.100  0.2907  0.1907 -0.2961
25966W        W43490   7.683   0.152   4.609  0.0621 -0.1435 -0.1256
25967W        W43491   7.114   5.928   2.754 -0.1300 -0.0632  0.1962
25968W        W43492  12.647   2.799   0.187 -0.0675  0.2364  0.2220
25969W        W43493   2.896  11.202  14.555 -0.3060 -0.1306  0.3325
25970W        W43494   6.723   8.327   4.328 -0.0905 -0.0508 -0.1677
25971W        W43495  14.459  12.207  13.552  0.0359 -0.1431 -0.3634
25972W        W43496  12.639   9.375   2.411 -0.2236  0.2712  0.0012
25973W        W43497  11.698  14.944  13.401  0.0696 -0.0686 -0.1771
25974W        W43498  15.464  10.284  15.701  0.2183  0.1186 -0.1682
25975W        W43499   3.428  11.902  14.772 -0.1217  0.2967  0.1705
25976W        W43500  12.690  11.572  15.043  0.1714 -0.0368 -0.0080
25977W        W43501  16.374   6.595   3.709  0.0894  0.0162  0.2901
25978W        W43502  17.628  11.327  11.853 -0.1695  0.0523  0.0982
25979W        W43503  12.176  12.504   4.272 -0.1362  0.2431 -0.1030
25980W        W43504  15.462  13.864   5.285 -0.2915  0.0614 -0.3870
25981W        W43505   8.342   0.559  13.140 -0.0829 -0.0364 -0.2968
25982W        W43506  13.965   8.260  16.286 -0.0565  0.1269  0.1553
25983W        W43507   4.458   1.850  14.036  0.1413  0.0962  0.1285
25984W        W43508  11.653   9.084   0.160  0.4868  0.2486 -0.2774
25985W        W43509   2.048   3.771   1.157  0.0942  0.1737 -0.0767
25986W        W43510   1.775  13.561   3.458  0.3661  0.0539 -0.0768
25987W        W43511  17.942   1.750  15.423  0.1582 -0.0912 -0.0477
25988W        W43512  14.227  15.050  14.260 -0.0834  0.1237 -0.1660
25989W        W43513  17.817  15.320   3.765  0.1269 -0.2064 -0.2754
25990W        W43514   4.403   2.510   5.054  0.1388 -0.0357  0.3507
25991W        W43515  13.847  13.343  13.289  0.2879  0.0054 -0.1828
25992W        W43516  10.306  13.962  13.466  0.2032  0.2044 -0.0984
25993W        W43517   3.071   8.363   0.987  0.0919 -0.0933  0.1256
25994W        W43518   8.796   6.964   3.627 -0.0591  0.0568  0.1243
25995W        W43519   2.545  14.035  11.909  0.2582  0.1059 -0.1918
25996W        W43520   0.495   6.120  14.482  0.0232 -0.3142 -0.1493
25997W        W43521  15.410   4.564   0.333  0.2123 -0.1359 -0.2788
25998W        W43522  16.662  13.224  14.846  0.1377 -0.1521 -0.2277
25999W        W43523   1.687   6.368  16.294 -0.0604 -0.0515 -0.1819
26000W        W43524   7.431   2.666   1.757  0.3193 -0.0161  0.1537
26001W        W43525   9.841  12.111   1.049  0.1321  0.2421  0.0106
26002W        W43526  10.645  12.569   0.225  0.1671  0.3760 -0.1954
26003W        W43527  13.056   7.855   1.360 -0.0227  0.0292 -0.1042
26004W        W43528  13.245  16.005   2.137 -0.0731 -0.0240 -0.0917
26005W        W43529  10.921  16.042  13.205 -0.1312 -0.1643  0.1353
26006W        W43530   8.471   0.689  15.032 -0.0407  0.0988 -0.0146
26007W        W43531   7.763  15.323  13.443  0.0629  0.1246 -0.1224
26008W        W43532  15.075   5.677  11.426  0.0056  0.3807  0.0096
26009W        W43533   4.787  17.518  11.560  0.0241  0.1821  0.2216
26010W        W43534  17.327   7.737  11.755  0.0689 -0.0543  0.0748
26011W        W43535   8.823   9.718   0.621  0.1500  0.3616 -0.1003
26012W        W43536   7.668  17.841   1.139 -0.1250 -0.1130 -0.1380
26013W        W43537   5.338  14.609   3.630 -0.0027 -0.0148 -0.0014
26014W        W43538   3.586   5.617   0.982 -0.1707  0.2475 -0.0252
26015W        W43539  17.092  16.838   0.001  0.2703 -0.0493  0.2178
26016W        W43540  17.497   4.554   1.117  0.0715 -0.1710 -0.0424
26017W        W43541   2.233   3.621  13.585  0.0523  0.0334  0.1962
26018W        W43542  13.126   1.068   4.834  0.1871  0.0473 -0.2268
26019W        W43543   3.822   6.196   4.461 -0.0663 -0.0144 -0.0157
26020W        W43544  11.053   8.322   4.829 -0.1262 -0.2536  0.1025
26021W        W43545   3.051  17.153  12.242 -0.1648 -0.2979 -0.1081
26022W        W43546   4.112   3.823  15.294 -0.1386  0.0166 -0.0203
26023W        W43547  13.730   6.929   5.079 -0.0637  0.2132 -0.2069
26024W        W43548  15.903  17.392   1.854  0.2915  0.0481  0.2355
26025W        W43549   8.279   7.142  12.885 -0.2423  0.1386  0.0743
26026W        W43550   4.177   3.800  12.969 -0.1029 -0.0670 -0.1709
26027W        W43551   6.926  13.161   0.439  0.0965  0.0170  0.0123
26028W        W43552   2.955  16.259   0.449 -0.3146 -0.2634 -0.0009
26029W        W43553  17.318   8.823  12.868  0.4363  0.0751  0.1374
26030W        W43554  11.578  14.844  15.269  0.2299 -0.0493 -0.0479
26031W        W43555   0.703  11.381   3.812 -0.3956  0.2902  0.3167
26032W        W43556  17.280   5.645   0.001  0.0374 -0.1077  0.1645
26033W        W43557   1.351  15.349   1.432  0.2296  0.0778  0.0760
26034W        W43558   1.264  13.858  12.531 -0.3784  0.1615 -0.1529
26035W        W43559   5.447  15.672   3.258 -0.0518 -0.0260 -0.0675
26036W        W43560  12.505   1.009   3.252  0.0973 -0.1903 -0.0088
26037W        W43561  17.694   5.305   2.679 -0.0463  0.0853  0.2220
26038W        W43562   4.516   9.852   2.179 -0.1091  0.1675  0.0554
26039W        W43563   3.925   7.582  11.732  0.3263  0.1596  0.1392
26040W        W43564  10.132  14.556  16.120 -0.1755 -0.1664  0.0410
26041W        W43565  10.507  12.289  13.941 -0.0179  0.3126  0.1839
26042W        W43566   9.694  10.335   2.072  0.1873  0.1729  0.1026
26043W        W43567   4.693  17.100  16.208 -0.1804  0.2873 -0.0025
26044W        W43568   1.394   2.066   4.240 -0.0645 -0.0128 -0.2010
26045W        W43569   1.174   5.115  13.125  0.2384 -0.0447 -0.0744
26046W        W43570   7.444   7.551  12.903  0.1958 -0.3289 -0.2600
26047W        W43571  14.451  17.223   3.553 -0.0898 -0.2853  0.1665
26048W        W43572  13.239   7.607  11.533  0.1745 -0.0459 -0.0166
26049W        W43573   1.642  17.394  13.939  0.3476  0.1854  0.1607
26050W        W43574  10.746  14.830   3.231  0.0957  0.0643 -0.1477
26051W        W43575   3.026   3.936  15.562 -0.1058  0.0676 -0.0919
26052W        W43576  13.562  10.853  12.771 -0.2138  0.2839  0.1482
26053W        W43577   5.827  17.798   2.388 -0.1842  0.1352  0.2029
26054W        W43578   1.842  15.094  14.313  0.0436  0.4593 -0.1471
26055W        W43579  14.517   9.135   5.315  0.0025 -0.0129 -0.0305
26056W        W43580  14.267  16.661   1.065 -0.0061  0.1895 -0.1905
26057W        W43581  13.520   0.821   4.019  0.0246  0.0758 -0.1019
26058W        W43582  17.951  16.785  11.879 -0.2276 -0.2515  0.0800
26059W        W43583   8.218   7.564   0.782  0.1389  0.1591  0.0510
26060W        W43584  11.060   0.922  10.196  0.1089 -0.4570  0.2102
26061W        W43585  14.230  15.779  15.437  0.1237 -0.1693 -0.2541
26062W        W43586  11.194  14.788  14.938 -0.2531  0.2381  0.1239
26063W        W43587   1.787   4.192  14.889  0.1210  0.0547 -0.0929
26064W        W43588  16.389   6.043  14.068  0.0848 -0.0692  0.2196
26065W        W43589  12.869  12.139   0.744  0.2167  0.1280 -0.0988
26066W        W43590   7.090  15.004  13.869 -0.0801  0.2384  0.4171
26067W        W43591  16.546  12.200  10.723 -0.0681  0.2037 -0.2337
26068W        W43592   9.012  11.065   0.996 -0.0876 -0.0161 -0.1688
26069W        W43593   6.348  16.777  16.392  0.1318 -0.1129  0.2516
26070W        W43594   8.054   3.517   4.979 -0.2375 -0.0240 -0.0139
26071W        W43595   2.120   2.303   1.797  0.0665  0.3000 -0.0924
26072W        W43596   5.684   9.300  13.878 -0.0253  0.0156 -0.1072
26073W        W43597  15.479  15.737   0.086 -0.2546 -0.1926  0.0137
26074W        W43598  13.102   6.276   1.297  0.3536 -0.2714 -0.1091
26075W        W43599  10.433   3.957   1.668  0.0272  0.0691 -0.4318
26076W        W43600   0.421  13.238  14.217  0.0586  0.1962 -0.2482
26077W        W43601   1.529  10.400   1.632  0.0004  0.0485  0.0116
26078W        W43602  11.658   6.655  14.083 -0.2064  0.0035  0.2028
26079W        W43603  13.889   1.696   4.609  0.0471  0.0738 -0.1255
26080W        W43604   4.410  11.889  15.636 -0.2967  0.0068 -0.1530
26081W        W43605   7.631   6.253  13.559 -0.0861  0.1901  0.0567
26082W        W43606  14.201   0.225   4.605  0.0984 -0.3431  0.1714
26083W        W43607   9.042   5.451   4.675  0.1772 -0.2106 -0.0398
26084W        W43608   7.552   7.161  14.066  0.1544 -0.1533  0.1659
26085W        W43609   6.191  14.225  13.535  0.0735 -0.1191  0.0977
26086W        W43610   0.491  10.634  14.119  0.0375 -0.1285  0.1518
26087W        W43611   1.028   8.834  14.810 -0.1759 -0.1663  0.3447
26088W        W43612   5.947  14.538  15.773 -0.1102  0.0422  0.1308
26089W        W43613  16.081  17.936  11.162  0.0675 -0.0325  0.2422
26090W        W43614   4.714   2.317   0.409 -0.0984  0.3209 -0.3255
26091W        W43615   0.224   0.256  15.855 -0.1791 -0.1205 -0.0290
26092W        W43616   3.571   6.899  11.877 -0.0659  0.0531  0.2684
26093W        W43617   6.299  17.172   1.648 -0.2480  0.2670 -0.0288
26094W        W43618  12.000  10.879   3.140 -0.0056  0.1626 -0.2285
26095W        W43619   5.056   8.961   1.913 -0.2121  0.2614 -0.0752
26096W        W43620   4.241   1.257   1.662  0.0420  0.0695  0.3854
26097W        W43621   2.116  12.347  15.386 -0.0185 -0.0926 -0.1140
26098W        W43622   7.008   7.182   3.666 -0.2157 -0.2987 -0.1346
26099W        W43623   0.643   9.583  16.264  0.2808  0.2034 -0.1678
26100W        W43624   8.995  11.654   1.138  0.0168  0.0109  0.1003
26101W        W43625  14.098  11.318  16.462 -0.0312 -0.0740  0.3118
26102W        W43626   2.388  14.208  15.628  0.0274  0.0732  0.1338
26103W        W43627  16.886  11.189   5.618  0.5310 -0.1058 -0.2053
26104W        W43628   9.322   0.540   3.718  0.0512  0.1297 -0.4007
26105W        W43629   8.032   6.222   1.313 -0.2320 -0.1010  0.1857
26106W        W43630  16.145  10.393   3.988  0.3310  0.1690  0.1232
26107W        W43631  16.109   1.521  11.796 -0.0248 -0.0017 -0.1928
26108W        W43632  11.120   2.101  11.583  0.0289  0.0699 -0.0364
26109W        W43633   3.046  15.894  15.588  0.4121  0.0230 -0.0545
26110W        W43634   9.031   6.256   2.839 -0.1718 -0.1808  0.4989
26111W        W43635  10.494   4.776   2.907 -0.1440  0.2386 -0.0294
26112W        W43636   8.391  13.551  12.872  0.0473 -0.2477  0.4130
26113W        W43637  16.922  15.974  15.873  0.0777 -0.0468 -0.0940
26114W        W43638   6.295   4.213   0.669 -0.4080 -0.0935 -0.2367
26115W        W43639   3.029  12.926   4.682 -0.2345  0.0043 -0.0218
26116W        W43640   5.111  17.284  13.140 -0.2783 -0.1372  0.3180
26117W        W43641  13.443   0.185   5.137  0.1671  0.2887 -0.2551
26118W        W43642  13.197   0.030   1.847 -0.1520 -0.0088 -0.3273
26119W        W43643   7.324  14.536   0.342 -0.3665 -0.2207  0.1775
26120W        W43644  10.639   1.192   1.089  0.2031  0.0341 -0.1424
26121W        W43645   1.635  15.931   2.274 -0.1413  0.2692  0.1372
26122W        W43646  14.418  10.203   4.165  0.0799  0.1000  0.0381
26123W        W43647   1.846  13.193  13.206 -0.2474 -0.0943  0.1069
26124W        W43648   8.717  14.820  11.828  0.1184 -0.4140  0.0923
26125W        W43649  11.062  15.355   3.801  0.1075 -0.1630  0.3605
26126W        W43650   8.190   0.636  16.446 -0.1515  0.1276 -0.0230
26127W        W43651   9.013   8.773  15.667  0.2778 -0.7273  0.2753
26128W        W43652   9.769  14.545   6.197 -0.1177  0.0249 -0.2102
26129W        W43653   0.047   2.320   0.118 -0.1757 -0.2928  0.0226
26130W        W43654  13.644  13.285   2.599 -0.1628  0.0276 -0.1235
26131W        W43655  15.779  12.682  11.650  0.0291  0.4529 -0.1895
26132W        W43656   0.796   9.556  12.991 -0.1606  0.3107 -0.2255
26133W        W43657   9.503   8.249  12.709 -0.0072  0.2569 -0.2020
26134W        W43658   1.695   5.773   4.880  0.0912 -0.0250 -0.2420
26135W        W43659  17.208   8.028   4.422 -0.0124  0.1196  0.1644
26136W        W43660   6.801   8.593   2.559 -0.1215  0.1134  0.0802
26137W        W43661   9.799   2.665  13.635 -0.0869 -0.1035 -0.2022
26138W        W43662   4.139  16.983  14.012  0.1413  0.2538  0.1327
26139W        W43663   5.470   4.485   0.938 -0.2665  0.2991 -0.1645
26140W        W43664  13.874   3.286   4.874 -0.1339  0.0656  0.2023
26141W        W43665  13.470   9.087   2.105  0.0527 -0.2504 -0.1411
26142W        W43666   1.522   7.335   2.233 -0.1324  0.0162  0.1096
26143W        W43667  17.763   7.850  15.628  0.0958  0.1296  0.1902
26144W        W43668  10.087   6.075  15.111  0.2219  0.1541  0.3191
26145W        W43669  11.743  10.935  11.412  0.1324  0.0138 -0.2626
26146W        W43670  14.256   9.250   5.721 -0.2745 -0.1057 -0.0929
26147W        W43671   6.623   4.421  13.760  0.1713 -0.1006  0.2867
26148W        W43672  17.902   4.240  12.196 -0.1640  0.0769  0.1578
26149W        W43673   9.651   8.416   4.714  0.1829 -0.0793 -0.1288
26150W        W43674  10.048  17.119   4.135 -0.1116 -0.0989  0.2891
26151W        W43675  11.740   9.376  15.276 -0.1137  0.3156  0.2598
26152W        W43676  16.484  12.985  12.449 -0.3153 -0.0006  0.2835
26153W        W43677   6.523  15.399  15.979  0.1536  0.0202  0.1348
26154W        W43678  12.803   9.663   1.769 -0.1445 -0.0174 -0.2383
26155W        W43679  14.443   3.529   4.370 -0.0714 -0.5011 -0.0380
26156W        W43680   0.472   0.107   2.078 -0.0973  0.2543  0.0305
26157W        W43681  10.097   6.432   0.986 -0.1579  0.1857 -0.2443
26158W        W43682  13.744  11.956   0.316 -0.1082  0.1506 -0.1995
26159W        W43683   9.458  16.150   4.103 -0.2852 -0.5296  0.4523
26160W        W43684  10.190  16.958  14.477  0.0150  0.2034 -0.0025
26161W        W43685  11.673  10.934  13.558 -0.0329 -0.2687  0.2404
26162W        W43686   4.894  11.018   4.124 -0.1492 -0.2480 -0.0314
26163W        W43687  11.806  15.082   2.596 -0.0806  0.0060 -0.2668
26164W        W43688  12.087   3.930  12.396  0.0121  0.0001  0.3538
26165W        W43689   3.485   8.905   4.568 -0.1026 -0.0054 -0.0140
26166W        W43690   1.266  15.466  15.832 -0.0535 -0.2713 -0.0557
26167W        W43691   8.502  17.627  14.099 -0.0476  0.1051 -0.0917
26168W        W43692   6.848  14.534  13.173  0.0090  0.1729  0.0416
26169W        W43693   5.545   9.700  14.191  0.2036  0.2130 -0.1037
26170W        W43694   4.866  14.172  12.810  0.4044 -0.3437 -0.3608
26171W        W43695   0.571  15.484  14.030  0.0085  0.1412  0.1747
26172W        W43696   5.583   6.287  16.079  0.1252  0.1729  0.1204
26173W        W43697   6.153   2.693  13.775  0.0335 -0.3961 -0.3540
26174W        W43698   2.273   7.932   2.110 -0.0381  0.1204 -0.1492
26175W        W43699  17.811  15.061   4.291 -0.2336 -0.0874 -0.2021
26176W        W43700   8.463  12.741   0.429 -0.2497  0.0421 -0.3927
26177W        W43701  16.045   9.979  12.474  0.3609 -0.0190  0.2131
26178W        W43702  10.882  16.719   4.856 -0.1739 -0.2077  0.0992
26179W        W43703  10.819   8.024  15.208 -0.0294 -0.0597 -0.1171
26180W        W43704   5.604  12.678  12.730  0.1618 -0.0081  0.0187
26181W        W43705  11.292   8.048  12.359  0.1225 -0.0085 -0.1563
26182W        W43706  17.539  17.394   2.182 -0.1901  0.3105 -0.2675
26183W        W43707  11.085  17.140   4.237 -0.3721  0.1294 -0.0297
26184W        W43708  12.086  14.946  15.234  0.1398 -0.0420 -0.1698
26185W        W43709  13.933   0.845  12.163  0.0769  0.0647 -0.1952
26186W        W43710   9.530   3.442  13.917  0.1003  0.1903 -0.0039
26187W        W43711   1.076   9.321  16.284 -0.0157 -0.1901  0.2846
26188W        W43712  15.454  16.275  11.978 -0.2097  0.1415  0.1517
26189W        W43713  13.872  12.277  12.868  0.2508 -0.2089  0.1254
26190W        W43714  16.564   0.044  12.923  0.1721 -0.2852 -0.3680
26191W        W43715  15.057  10.141  12.298  0.3412  0.0456  0.1336
26192W        W43716  14.487  16.666   2.670 -0.0030 -0.2131  0.3689
26193W        W43717   9.349   4.820  11.916  0.0980  0.1045 -0.0570
26194W        W43718  15.305  17.463  13.987  0.0529 -0.0006  0.0311
26195W        W43719  12.938  16.959  14.082  0.2172  0.3400  0.0974
26196W        W43720   0.555   6.672  14.734  0.0159 -0.0272 -0.1655
26197W        W43721   7.346  14.908  14.277 -0.1441 -0.1116 -0.2561
26198W        W43722   2.921   2.328  15.741 -0.1888 -0.3167  0.2813
26199W        W43723  17.050  16.654   4.410  0.3041 -0.3061  0.0361
26200W        W43724   7.531   9.369   3.442  0.0092 -0.0672  0.1645
26201W        W43725  10.955  11.285  15.691  0.0604 -0.0375 -0.3086
26202W        W43726   8.818   9.852  12.150 -0.2382 -0.2054  0.1004
26203W        W43727   8.391   8.834   1.250  0.1108  0.2377 -0.0165
26204W        W43728   1.664  16.588   0.921 -0.1290 -0.0037 -0.0276
26205W        W43729  11.471   0.680   1.708 -0.1610  0.1519  0.1520
26206W        W43730  16.511   6.485  12.411  0.0750  0.0248  0.1209
26207W        W43731   8.512   0.445   4.922 -0.0204 -0.3158 -0.0337
26208W        W43732   0.526   2.975  12.121 -0.2228  0.1415  0.2505
26209W        W43733   2.938  16.976   1.102  0.0108 -0.2093 -0.0894
26210W        W43734   0.415   7.089  14.410 -0.2057  0.3210 -0.0060
26211W        W43735   4.053  12.538  13.253  0.3467 -0.0541 -0.1203
26212W        W43736   6.744  12.897  14.247  0.0712  0.0333 -0.3078
26213W        W43737   9.220   6.519  13.602  0.1931  0.0721 -0.0091
26214W        W43738   3.319  15.070   4.787 -0.2167  0.0061  0.0670
26215W        W43739   7.354   3.313  13.500  0.0781 -0.0364 -0.1326
26216W        W43740   3.503   1.077   0.261 -0.3090  0.3741  0.0646
26217W        W43741   9.738  14.368   2.344 -0.0422 -0.1798  0.1827
26218W        W43742  14.590  16.492   0.022 -0.0003  0.1875  0.4071
26219W        W43743   3.687   9.740   3.309  0.5227 -0.0113 -0.1889
26220W        W43744  10.552  13.450   2.358  0.0983 -0.1084  0.1483
26221W        W43745  10.791   1.578  14.202 -0.2562  0.1681  0.1876
26222W        W43746  11.369  12.120   6.419  0.0931  0.3169 -0.1512
26223W        W43747   8.794  10.404   1.728  0.0584  0.0130 -0.0434
26224W        W43748   6.677  15.388   2.880  0.2424 -0.1217 -0.1986
26225W        W43749  10.278  15.854   2.674  0.1336  0.0240 -0.5888
26226W        W43750  14.652   3.537   2.648 -0.0536  0.1902  0.2060
26227W        W43751  16.040   8.052   2.963 -0.2907 -0.2387  0.0360
26228W        W43752   0.640  15.869  16.115 -0.0879  0.0409 -0.0210
26229W        W43753   7.093   7.311   1.166 -0.2302  0.1720 -0.0475
26230W        W43754  14.767   0.420  14.541  0.0621 -0.0146 -0.0511
26231W        W43755  14.137   4.599  13.586  0.0158 -0.2835 -0.0377
26232W        W43756  15.624   3.357  13.488 -0.2073  0.2223 -0.4078
26233W        W43757   2.974  14.974  12.408  0.0825 -0.0146 -0.1245
26234W        W43758  11.691   9.122  14.158 -0.0821 -0.1024  0.1678
26235W        W43759   4.851   0.510  11.733  0.0375 -0.0280 -0.0906
26236W        W43760   1.099  17.773   4.187  0.0622 -0.0327 -0.0808
26237W        W43761   1.458   7.716   3.596 -0.0321  0.2977 -0.3713
26238W        W43762  13.682   1.151  16.052  0.2266  0.2158  0.2366
26239W        W43763   6.841   2.788  11.782 -0.0775  0.1759 -0.1960
26240W        W43764   7.156  12.681   1.843 -0.0732 -0.1324  0.3590
26241W        W43765  13.477   5.962  16.265  0.1404 -0.0719 -0.1508
26242W        W43766  14.852  14.370   5.412 -0.1867  0.3123 -0.1634
26243W        W43767   5.106  17.318   4.329  0.2120  0.2278  0.2625
26244W        W43768   1.200   2.229  16.210 -0.1631 -0.3111  0.0747
26245W        W43769  15.866  10.908  15.850 -0.2219 -0.3079 -0.1073
26246W        W43770   0.344  10.262  12.081 -0.0933  0.0701  0.0784
26247W        W43771   2.433  10.671   0.719 -0.2514  0.0182  0.0225
26248W        W43772   6.022  17.961   0.058  0.2255  0.0279  0.0664
26249W        W43773  15.429  13.686  12.350  0.2229  0.0732 -0.0239
26250W        W43774   5.357   3.127   0.123 -0.1613 -0.1117  0.1495
26251W        W43775   9.547   2.602   5.116 -0.2510  0.0085  0.0887
26252W        W43776  12.349  10.953  16.283  0.0392  0.1565 -0.1187
26253W        W43777   9.906  17.338  14.734  0.0175 -0.1702 -0.1760
26254W        W43778   0.727   1.207   1.143 -0.1004 -0.3972  0.3283
26255W        W43779   4.753   5.342   3.930 -0.3353  0.0648  0.1318
26256W        W43780   2.211   6.611  15.327 -0.0722  0.1637 -0.3753
26257W        W43781   4.413   6.763   0.199 -0.2016 -0.0513 -0.1003
26258W        W43782   4.376  14.635   3.679 -0.0133  0.1648  0.1687
26259W        W43783   7.617   3.655  14.980  0.1972 -0.1782 -0.1126
26260W        W43784   1.142   7.425   4.797  0.2116 -0.2652 -0.0427
26261W        W43785  13.464  13.165  13.927 -0.0864 -0.0527 -0.0820
26262W        W43786   2.613   4.024   2.198  0.2237 -0.2322 -0.0791
26263W        W43787   8.834   4.145   4.869  0.0958  0.0653 -0.1568
26264W        W43788  17.818  17.961  12.186 -0.0106 -0.0338 -0.0451
26265W        W43789   3.393   6.833  13.906  0.2589  0.1837  0.1508
26266W        W43790  13.344   8.232  16.452 -0.3512  0.1535  0.1510
26267W        W43791   4.770   0.082   3.079  0.1797  0.1288  0.0305
26268W        W43792  12.079  14.505  12.098 -0.3177  0.0946  0.1479
26269W        W43793   6.589   2.051  15.924  0.0820 -0.4676 -0.2019
26270W        W43794  16.092   7.766  12.116 -0.2387 -0.3503 -0.0531
26271W        W43795   0.279   4.071  11.721 -0.3730 -0.0168  0.0209
26272W        W43796   0.090  13.587  15.555 -0.1421 -0.4106  0.1455
26273W        W43797   5.386   6.010   6.182 -0.4210  0.0018  0.3525
26274W        W43798   1.975  13.117   0.088 -0.2198 -0.0403  0.2285
26275W        W43799  16.029  12.184  14.906  0.2951  0.0700  0.0396
26276W        W43800   4.310   9.093  12.311 -0.0786 -0.0125 -0.3345
26277W        W43801  14.732  13.213   1.153 -0.1560 -0.0276 -0.1689
26278W        W43802   7.848  16.179   4.563 -0.0250  0.3721 -0.1778
26279W        W43803  10.851   1.852  13.210 -0.0510 -0.1497  0.0215
26280W        W43804  13.205  13.113   2.809  0.3572  0.1106  0.1595
26281W        W43805   4.775   1.372  12.173 -0.1348  0.0986 -0.2521
26282W        W43806   7.141  15.914  12.109  0.0867 -0.1454 -0.0728
26283W        W43807  10.501  15.921   1.871 -0.0528  0.1137 -0.2036
26284W        W43808   4.968   0.875   4.536  0.2657 -0.1241  0.1286
26285W        W43809   4.246   9.519  16.231  0.0282 -0.2471 -0.0261
26286W        W43810  17.301   9.098  13.704  0.1454 -0.0424  0.1823
26287W        W43811   8.530  13.466  16.094 -0.0213 -0.1614 -0.2679
26288W        W43812   1.971  17.813   3.999  0.2825  0.1903  0.0004
26289W        W43813  14.035  13.098   4.416  0.2176  0.0933  0.0757
26290W        W43814   3.241   7.390  10.509 -0.1045  0.1255  0.0468
26291W        W43815  10.683   7.808  15.737  0.3071  0.1939  0.2393
26292W        W43816   1.556   4.041  14.430 -0.1805 -0.2755  0.4533
26293W        W43817  12.490   2.146  12.503  0.0170  0.2549 -0.1487
26294W        W43818  17.379  14.440  12.044 -0.1370 -0.0826  0.0653
26295W        W43819   0.512  17.379  11.495 -0.4070  0.2718 -0.1954
26296W        W43820  13.371  17.847  14.679 -0.2832 -0.0327 -0.0116
26297W        W43821  14.580   2.066   5.346  0.1093 -0.0007  0.1842
26298W        W43822   9.497   5.001   1.361 -0.1323 -0.1966  0.2443
26299W        W43823  12.029   9.090   0.471  0.3018 -0.3075 -0.0987
26300W        W43824   6.702   7.109  16.355  0.0674 -0.2176  0.3346
26301W        W43825   5.271   8.430  15.572 -0.2909  0.0536 -0.5743
26302W        W43826   3.660  11.225  14.207  0.0875 -0.0206  0.4338
26303W        W43827  12.149   6.372   1.514 -0.1819 -0.1387 -0.1361
26304W        W43828   5.320  15.302  14.704  0.2809 -0.0014  0.2264
26305W        W43829   5.297  16.097   2.215  0.0191 -0.1421  0.0197
26306W        W43830   7.908   8.014  13.776 -0.3520  0.2648  0.1363
26307W        W43831   5.695   2.148  16.015 -0.0115  0.0495  0.3455
26308W        W43832   4.260   2.603  15.123  0.1017  0.2787 -0.2288
26309W        W43833   1.792  16.820  12.363 -0.2299 -0.0798 -0.1071
26310W        W43834  13.181  13.805   0.485 -0.2258 -0.0042  0.3427
26311W        W43835  17.778  13.317  16.032  0.1015 -0.0823  0.0795
26312W        W43836   0.472   9.249  11.956  0.3543 -0.2589 -0.1455
26313W        W43837   8.878   8.622   1.395 -0.0553 -0.0798 -0.0424
26314W        W43838  13.145   6.597   0.925 -0.2146  0.2429  0.1960
26315W        W43839   2.057  15.656   1.462 -0.0988  0.0231  0.1338
26316W        W43840   6.071  15.787   3.712 -0.2917 -0.0328 -0.2380
26317W        W43841  13.545  12.049   5.117  0.2927 -0.1475 -0.4360
26318W        W43842   9.560   7.894   1.247 -0.0531  0.0882 -0.3096
26319W        W43843  13.498   2.708   2.656 -0.1620 -0.0165  0.1453
26320W        W43844  10.907   7.401   1.070  0.2336  0.4473  0.3838
26321W        W43845  13.775  14.345  13.962 -0.1028  0.1637  0.0712
26322W        W43846   5.837  17.544  16.087  0.1599 -0.2386  0.0051
26323W        W43847  15.494   2.360   4.270 -0.0601 -0.1798  0.0730
26324W        W43848   1.722   4.913   2.675  0.1741 -0.2221 -0.2393
26325W        W43849   3.809  12.203  14.539 -0.0342  0.1808  0.2620
26326W        W43850  17.520   8.639   2.337  0.0496  0.0220  0.0445
26327W        W43851  16.409   6.120  15.564  0.1219  0.0780 -0.1140
26328W        W43852   5.963  16.432  13.868 -0.1815  0.2301  0.2824
26329W        W43853   6.542  13.601   0.416 -0.0645  0.0781 -0.2146
26330W        W43854  12.878   2.185   1.861 -0.2456 -0.0654 -0.2109
26331W        W43855  16.803  16.524  15.691 -0.1359  0.1050  0.2989
26332W        W43856   4.019   9.082   3.731 -0.0577  0.2490 -0.0027
26333W        W43857   5.018   2.963  15.624  0.3974  0.0616 -0.1340
26334W        W43858   3.230  15.243   3.739  0.1041 -0.2646  0.0666
26335W        W43859   3.182  14.317  13.566  0.0631 -0.0534 -0.0858
26336W        W43860   9.208   4.662   1.087  0.0123  0.0108 -0.3022
26337W        W43861   4.613   9.017   0.943 -0.0341 -0.0187 -0.0695
26338W        W43862   0.390  12.661  11.872 -0.1645  0.1222  0.2231
26339W        W43863   4.383   9.143   4.405 -0.1215  0.0010  0.2026
26340W        W43864  15.949   8.112  16.293  0.0726 -0.2170  0.0313
26341W        W43865  12.235   2.150  11.785  0.0034 -0.1078  0.3522
26342W        W43866   0.523   1.057   2.302  0.0621  0.1246  0.0878
26343W        W43867   0.780   0.494  15.176  0.2957  0.3655 -0.0664
26344W        W43868   0.950   5.004  15.114 -0.0638 -0.0618 -0.1828
26345W        W43869   0.752  14.472   4.337 -0.2080  0.0789 -0.2113
26346W        W43870   8.020  15.440   0.468  0.1276 -0.1728  0.2455
26347W        W43871  11.977   7.412  15.565  0.0519  0.0957 -0.1665
26348W        W43872   6.107   1.256  13.624 -0.0731  0.1016  0.2876
26349W        W43873   5.484  17.157  16.043 -0.1804  0.0716  0.2990
26350W        W43874  11.163   6.787   4.004 -0.1501  0.0140  0.3602
26351W        W43875   8.339  17.000  12.684 -0.0392  0.0689  0.1702
26352W        W43876   4.042  11.984   1.243  0.1219 -0.0970  0.5004
26353W        W43877   0.679   9.070   1.652  0.1346  0.0180 -0.2808
26354W        W43878  10.869  15.601   0.117  0.0718 -0.0768 -0.4780
26355W        W43879  14.723   9.340   4.174 -0.2693 -0.3012  0.1328
26356W        W43880  15.000   3.321  14.050  0.0676  0.0219 -0.3672
26357W        W43881  17.693  17.725  12.597 -0.3119 -0.1400  0.0988
26358W        W43882  13.155   3.538   0.326  0.0793  0.2703  0.3507
26359W        W43883   6.101  17.781  14.932  0.2258  0.0749 -0.0526
26360W        W43884   7.652  14.045   6.175 -0.0832  0.0334 -0.1201
26361W        W43885   9.484   9.012  14.497  0.0977  0.3048  0.1275
26362W        W43886  15.704  11.236  16.321  0.1327  0.1825  0.3149
26363W        W43887   5.666  11.048  15.259  0.1874 -0.0995 -0.1073
26364W        W43888  13.867   4.848  14.167 -0.1433  0.0246 -0.1541
26365W        W43889   0.273  10.094  12.587  0.0636 -0.2228  0.0316
26366W        W43890   9.875   0.509   2.735 -0.2080  0.0302 -0.1558
26367W        W43891  17.158   6.756  11.261 -0.1233 -0.2211  0.0489
26368W        W43892   4.829  15.971  15.162  0.1478 -0.1343 -0.1122
26369W        W43893   7.043  17.146   3.641 -0.0732 -0.0470  0.1360
26370W        W43894  11.337  10.747  16.320  0.1818 -0.0805  0.1279
26371W        W43895   2.289   0.679   0.149  0.1814  0.0568  0.0219
26372W        W43896  13.300  12.155   0.284 -0.0755 -0.2287 -0.1375
26373W        W43897  16.448   1.081  15.024  0.1044  0.0695  0.2142
26374W        W43898   5.374   7.992  12.501 -0.0778  0.0010 -0.1950
26375W        W43899  11.744  12.052  12.101 -0.0105 -0.0654  0.0270
26376W        W43900  14.867   1.107  16.311  0.1233  0.2226  0.1874
26377W        W43901   2.510   7.556  13.600  0.1149  0.0463 -0.0049
26378W        W43902  12.021   5.901  14.084 -0.2831  0.0094 -0.1311
26379W        W43903  15.855   7.752   3.630  0.1543 -0.1879 -0.0496
26380W        W43904  15.771  11.628   2.514 -0.1539 -0.2347  0.0094
26381W        W43905  13.165   9.465  13.329 -0.2816  0.1531 -0.2258
26382W        W43906   9.286  10.138   1.743 -0.1013 -0.0080 -0.4750
26383W        W43907   5.603   7.417   5.226  0.0170 -0.1022 -0.1166
26384W        W43908  14.839   2.780   4.967 -0.0640 -0.3048 -0.1142
26385W        W43909   8.880   4.044  14.894  0.0136 -0.1484  0.3350
26386W        W43910  15.598   1.786   1.959  0.0446  0.1011  0.1662
26387W        W43911   1.011  12.233   3.469  0.2189 -0.1017 -0.3101
26388W        W43912   8.466  10.737  15.956 -0.2774  0.1366 -0.2890
26389W        W43913   4.198  13.946  11.831 -0.1304  0.0929 -0.0790
26390W        W43914   9.523   9.635   5.335 -0.1404  0.1551  0.0268
26391W        W43915  13.557   0.914   4.572 -0.1553  0.1350  0.3444
26392W        W43916   6.546   2.780  12.883  0.0521  0.1024  0.0162
26393W        W43917  11.342   8.858   2.739  0.0335  0.2420  0.1005
26394W        W43918   3.490  12.208  13.736 -0.1395 -0.1430 -0.0421
26395W        W43919   9.333  16.845   4.796 -0.1319  0.0765 -0.2943
26396W        W43920  14.362   8.034  16.092 -0.2670  0.0319  0.0709
26397W        W43921  13.910   0.676   4.297  0.0110 -0.2516 -0.3557
26398W        W43922  17.593  17.657   1.724  0.2518 -0.0858 -0.1629
26399W        W43923  10.098  15.776  14.529  0.1877 -0.0094  0.0274
26400W        W43924  11.820   0.588  13.040 -0.3314  0.1657 -0.0037
26401W        W43925   2.053   5.280  11.760  0.0804  0.2911 -0.2207
26402W        W43926  16.537  17.360   1.578  0.0633 -0.0355 -0.1679
26403W        W43927   5.392  12.743   0.669  0.1453  0.2856 -0.1420
26404W        W43928   1.946   9.416   1.198 -0.0470 -0.0172  0.3158
26405W        W43929   5.893  16.690  14.822 -0.1105  0.0779  0.2045
26406W        W43930  17.075   5.062   1.798 -0.0746 -0.1261 -0.0493
26407W        W43931  14.604   7.669  14.437 -0.0529  0.1770 -0.4458
26408W        W43932  14.010   0.689  14.296  0.1454  0.1907 -0.0143
26409W        W43933   0.012   5.207  15.395  0.2257 -0.2891 -0.3940
26410W        W43934   7.850   2.688  14.991 -0.1375  0.1047  0.1204
26411W        W43935   1.056  11.428  16.016  0.0801  0.1029 -0.2532
26412W        W43936   3.422  10.495  15.835  0.0602  0.2238  0.0397
26413W        W43937  10.355   0.088  13.027  0.3825 -0.1500 -0.2973
26414W        W43938   8.279   8.625   0.733  0.1590 -0.2230 -0.1114
26415W        W43939  12.939   2.967  11.809 -0.0822 -0.1751  0.3250
26416W        W43940   4.675  14.140   4.340 -0.0170  0.1033  0.1592
26417W        W43941   4.805  16.970   0.488  0.2104  0.1957 -0.2579
26418W        W43942   0.191   8.959   9.985  0.1908 -0.0026 -0.1756
26419W        W43943  14.755  14.113   4.916 -0.0728  0.5357 -0.1417
26420W        W43944   4.231   5.791   1.748  0.2663 -0.3341 -0.3662
26421W        W43945   2.365   6.673   0.632 -0.0495  0.1254 -0.3046
26422W        W43946  15.799  10.434  14.985 -0.0753  0.0213  0.2293
26423W        W43947   5.388   7.960  10.468 -0.0567 -0.1345 -0.0456
26424W        W43948   4.528  12.195  11.770  0.0175  0.0888 -0.0726
26425W        W43949   5.190   9.920  12.657  0.1563  0.1802 -0.1633
26426W        W43950   3.131   3.659  12.826  0.1753  0.1667  0.0745
26427W        W43951   5.798   4.644   2.883 -0.3288  0.1609 -0.1684
26428W        W43952   1.162   0.770   4.403 -0.2531  0.2112 -0.2581
26429W        W43953   8.598   2.269   4.907 -0.0385 -0.0238  0.0497
26430W        W43954   4.011   0.702   1.640  0.2361  0.1990  0.0492
26431W        W43955   4.046  15.027   1.667  0.2964 -0.0077  0.2232
26432W        W43956  11.101  16.109  14.271  0.2082 -0.3140  0.0442
26433W        W43957  17.037   4.465  14.233  0.1893  0.0850 -0.2164
26434W        W43958  10.126  12.288  15.314 -0.3408 -0.0846  0.3332
26435W        W43959  14.682  10.014   0.351  0.1222  0.0298  0.4639
26436W        W43960  11.866  17.164  13.122 -0.3428 -0.1229  0.1128
26437W        W43961   7.953   6.802  13.805  0.1400 -0.3177  0.1280
26438W        W43962   4.629   6.190  13.176  0.1075 -0.0262 -0.2380
26439W        W43963  12.254  16.873   3.908 -0.1825 -0.0239 -0.2496
26440W        W43964  13.963   2.822  13.840  0.0296  0.1189 -0.1124
26441W        W43965   1.286   8.603   1.181  0.1583  0.0686  0.0119
26442W        W43966  11.736  17.027  13.615 -0.0212  0.1753 -0.0663
26443W        W43967  11.829  10.317   4.336 -0.0788  0.0616 -0.0016
26444W        W43968  12.131   8.380  12.178 -0.3086  0.0107 -0.0899
26445W        W43969   6.788  10.439  13.788  0.0949  0.4640  0.0211
26446W        W43970  17.185   3.733   1.472 -0.1199 -0.1568  0.2501
26447W        W43971   2.163  14.367   4.261  0.0055  0.2684 -0.0822
26448W        W43972   7.277   6.393  12.028  0.1272  0.0234 -0.0910
26449W        W43973  16.669  10.138  13.967 -0.1915 -0.0783  0.2483
26450W        W43974  12.958  13.283  14.841  0.2494  0.2066  0.2273
26451W        W43975  13.769  10.065  15.374  0.2247  0.0399 -0.6077
26452W        W43976  12.738   0.582   3.539 -0.0296  0.2930 -0.0123
26453W        W43977  10.495   0.871  13.754 -0.1032  0.4911 -0.1737
26454W        W43978  12.951  15.841   3.322 -0.0210  0.1604  0.3932
26455W        W43979   3.899   1.928   1.098 -0.1453 -0.2189  0.3153
26456W        W43980  15.803  15.173  12.006  0.1807  0.2350 -0.0402
26457W        W43981   8.552   9.182   4.231  0.0290  0.0121  0.0246
26458W        W43982   6.888  16.227  16.302 -0.0038  0.4653 -0.0143
26459W        W43983   9.692   7.469  13.737 -0.1912 -0.1318  0.0274
26460W        W43984   2.906   9.881  14.568  0.0350  0.3453  0.3963
26461W        W43985  17.462  17.533  15.170 -0.2815  0.0519  0.1542
26462W        W43986  10.849   4.492   5.867 -0.0402  0.0697  0.2654
26463W        W43987  10.308   4.541   0.495 -0.0407  0.2562  0.2273
26464W        W43988  13.229  10.009  14.632 -0.0988  0.1907  0.0637
26465W        W43989  10.884  11.334   4.729  0.0066  0.0926  0.3563
26466W        W43990   9.268   7.444   3.484 -0.2913  0.1278 -0.0106
26467W        W43991   6.644   6.520  11.763 -0.1704 -0.1618 -0.0839
26468W        W43992  12.354  16.220  13.285  0.3420  0.1947 -0.1710
26469W        W43993   8.281  11.068   5.640 -0.3252 -0.2351 -0.1642
26470W        W43994  12.884  16.911  11.690 -0.0653 -0.2859  0.2076
26471W        W43995  16.093   9.756  14.966  0.0543  0.0921  0.2560
26472W        W43996   6.689  11.413   0.059 -0.1244  0.0553  0.1977
26473W        W43997   8.555   6.171   3.646  0.0406  0.0039 -0.3694
26474W        W43998   4.682   9.796  15.863 -0.1548 -0.1476 -0.0171
26475W        W43999  16.375   3.605  14.035 -0.3458  0.0879  0.0742
26476W        W44000   0.973  14.193  15.193  0.1581 -0.0603 -0.3317
26477W        W44001   4.076  10.239   1.556 -0.3011  0.0056  0.2681
26478W        W44002  13.825  15.777  14.994 -0.1751  0.0410  0.0996
26479W        W44003  17.603   6.339   3.722 -0.0459 -0.2283 -0.0932
26480W        W44004   2.932   6.847   4.920  0.2045  0.1765  0.0308
26481W        W44005  16.254  17.888  15.821 -0.1289  0.1513 -0.0300
26482W        W44006   7.592  12.527   3.114  0.2839 -0.4042 -0.1558
26483W        W44007   4.416   4.847   3.815  0.2497  0.1483 -0.1625
26484W        W44008  15.739   2.106  12.821  0.0759  0.2103 -0.2481
26485W        W44009  10.612  12.190  15.387 -0.1409 -0.1978 -0.1575
26486W        W44010  13.784  16.387  13.869 -0.0404 -0.6243 -0.1469
26487W        W44011   7.599   8.546   0.854 -0.0973  0.2429 -0.1763
26488W        W44012  13.938   1.388  12.202 -0.0790 -0.2065 -0.1035
26489W        W44013   4.913  14.900  14.545  0.0701  0.2265  0.0190
26490W        W44014  17.933   6.117   1.236 -0.1778 -0.1077 -0.1596
26491W        W44015   5.063   3.112   4.370  0.1951 -0.0821  0.0253
26492W        W44016  13.070  11.678  11.932  0.1452  0.2857  0.0795
26493W        W44017  12.452   4.768  12.103 -0.0633 -0.1323  0.3037
26494W        W44018  16.826   9.429  12.043  0.0928 -0.0638 -0.2278
26495W        W44019   5.352   4.489   2.573 -0.0363 -0.2237  0.2341
26496W        W44020  12.051  14.817  16.153 -0.1174  0.1184 -0.1834
26497W        W44021   5.743   6.037  11.284  0.1077 -0.3818 -0.1024
26498W        W44022   2.201  13.212   0.871  0.1595 -0.2850 -0.1728
26499W        W44023  15.965  13.717  15.816 -0.2002  0.1891 -0.0159
26500W        W44024   9.355   5.463  15.028  0.0831 -0.2213 -0.1972
26501W        W44025   8.568  11.140   5.153  0.1323  0.0175  0.3135
26502W        W44026   7.189  12.753   5.301  0.0233 -0.2643 -0.1170
26503W        W44027   5.109   2.219  15.368  0.0783 -0.2922  0.0525
26504W        W44028  15.390  17.144   2.731 -0.0301 -0.3464 -0.0594
26505W        W44029   1.165  14.502  11.698 -0.0860 -0.0873  0.0144
26506W        W44030  16.946   3.865  14.092  0.1430  0.0325  0.2836
26507W        W44031   6.236   8.440   2.825 -0.0914  0.2417  0.0031
26508W        W44032   7.893   3.693   9.906 -0.3646 -0.0740  0.3185
26509W        W44033  10.877   6.734   3.577 -0.2834 -0.0400  0.0762
26510W        W44034   0.814  17.788   3.135 -0.1682 -0.1611 -0.0174
26511W        W44035   1.073  14.457   1.445  0.2995 -0.1957 -0.2614
26512W        W44036  10.491  16.420   4.647 -0.1025  0.1175 -0.1286
26513W        W44037  13.474   3.892  15.689 -0.2033 -0.2138 -0.0996
26514W        W44038   4.700   1.136  14.118 -0.2823  0.0115 -0.1796
26515W        W44039  10.424   1.352  15.774 -0.1604 -0.3501  0.1308
26516W        W44040   7.663   5.512   1.696 -0.0782  0.2655  0.4297
26517W        W44041   0.175  11.662  13.636  0.0301  0.2606  0.0723
26518W        W44042  17.311  12.619   2.888 -0.2515 -0.0261 -0.2762
26519W        W44043   4.008  12.076  11.484  0.3929 -0.1925  0.0731
26520W        W44044  10.418   4.798  11.995  0.0159 -0.1668 -0.0061
26521W        W44045  17.833   4.242  16.210 -0.4906 -0.2833 -0.2323
26522W        W44046  12.022   9.902  14.468  0.1824 -0.0893  0.0639
26523W        W44047   5.822   9.126   3.067  0.1243 -0.0484 -0.0687
26524W        W44048   3.612   2.401   4.054 -0.1518  0.0696  0.3264
26525W        W44049   2.602   3.588   3.601 -0.3744  0.2732  0.1824
26526W        W44050   3.020   8.132   1.504  0.0214 -0.0113  0.2231
26527W        W44051  16.985  12.048  11.565  0.0251 -0.1366  0.0125
26528W        W44052   5.252   0.387   0.475 -0.0440  0.1041  0.3384
26529W        W44053   0.766  13.038  14.765  0.3922 -0.1336  0.0966
26530W        W44054   7.328  11.320   0.813  0.0057 -0.0548 -0.0195
26531W        W44055  11.013   5.275  11.310 -0.1985 -0.0745  0.2390
26532W        W44056  11.454   0.736  14.375  0.2565  0.0591  0.1114
26533W        W44057   2.156  13.461   2.533 -0.1711 -0.2004  0.1997
26534W        W44058  14.471   8.583   1.337  0.5164 -0.0074 -0.0234
26535W        W44059  14.516  11.298   2.367  0.1590  0.0831 -0.0660
26536W        W44060  15.056  14.699   4.431 -0.1108  0.3317 -0.1965
26537W        W44061  10.934   1.139  13.774  0.0215 -0.0928  0.2267
26538W        W44062   9.050   0.330   2.241  0.1793  0.0841 -0.1271
26539W        W44063  13.555   0.635   2.346 -0.1279  0.0759 -0.1926
26540W        W44064   0.559   5.423   0.277  0.1072  0.0244 -0.1714
26541W        W44065   0.458   2.243   3.034 -0.0082 -0.0099  0.3040
26542W        W44066  13.702   8.622  12.065 -0.2578  0.1358 -0.0797
26543W        W44067   9.582   1.151  11.443 -0.0035  0.2077 -0.4497
26544W        W44068   1.400  15.568  13.108 -0.2554  0.2003  0.0487
26545W        W44069  14.635  10.413   0.085  0.0867  0.4892  0.2344
26546W        W44070   9.386   5.711  12.900 -0.3063 -0.3425  0.0214
26547W        W44071  17.379  13.693  11.516  0.0375 -0.2100  0.1999
26548W        W44072   4.277  15.166   5.763  0.0450  0.0544 -0.0281
26549W        W44073  17.120   5.411  14.747 -0.1687  0.1406 -0.0832
26550W        W44074   1.401   7.062   4.630 -0.1583 -0.0360  0.1967
26551W        W44075   7.026  11.926   4.314  0.0216 -0.0721  0.0967
26552W        W44076   1.380   3.330  16.255  0.1563 -0.1619  0.2351
26553W        W44077  13.596   7.574  12.372  0.0963  0.3132 -0.0586
26554W        W44078  14.583  10.988  13.993  0.0238  0.0037 -0.1953
26555W        W44079   3.074   3.425   3.585  0.4075  0.1909 -0.0077
26556W        W44080   8.057  10.797   3.441 -0.0719  0.2292 -0.1558
26557W        W44081   4.266   7.507   1.539  0.3479 -0.2724  0.3652
26558W        W44082   2.475   0.832   0.954  0.0168 -0.0967 -0.1198
26559W        W44083  15.917   2.305  16.421  0.0354  0.4225 -0.1874
26560W        W44084  15.974   2.182   3.031  0.1105 -0.0558  0.0180
26561W        W44085  12.515  11.517  15.940  0.0856 -0.2427  0.0817
26562W        W44086   4.998   1.741   1.065  0.5400  0.3155 -0.3300
26563W        W44087   6.387   6.234  12.433  0.0356 -0.1378 -0.3530
26564W        W44088   7.894   8.163   0.068  0.0455 -0.2406  0.2905
26565W        W44089  14.397  13.564  13.168 -0.0452 -0.2231  0.1945
26566W        W44090   9.570  10.118  13.937 -0.1426  0.0399 -0.0697
26567W        W44091   6.884  15.708   3.575 -0.1027 -0.2770 -0.0086
26568W        W44092   5.546  17.644   4.679  0.0500  0.1574 -0.0832
26569W        W44093  15.566   5.707  13.184 -0.0374  0.1294  0.0177
26570W        W44094   0.252   5.742   3.254  0.2396  0.1313  0.0692
26571W        W44095  11.128  14.325  15.109  0.0549  0.2781  0.4011
26572W        W44096   0.752   9.669   0.280  0.1177  0.0157 -0.1340
26573W        W44097   9.112   5.262   1.006 -0.0892  0.0738  0.1492
26574W        W44098   4.096  11.772   3.370  0.0723  0.1588  0.0782
26575W        W44099   1.437   5.745   1.369  0.1909  0.0263  0.0533
26576W        W44100  17.729   0.348   4.476  0.3160  0.1184 -0.0739
26577W        W44101   2.813   0.056   4.053  0.0537 -0.0493  0.1045
26578W        W44102  14.975   8.586  14.421  0.2571  0.0749 -0.2132
26579W        W44103   5.535  15.951   0.973 -0.0469 -0.2185  0.2036
26580W        W44104  13.514   8.804   0.652  0.3769  0.1954  0.0263
26581W        W44105   7.801  16.180  13.828 -0.4577 -0.0204  0.1316
26582W        W44106   0.932  13.854   3.717 -0.2571 -0.0470  0.1842
26583W        W44107  10.879   3.004  15.802 -0.2231 -0.1639 -0.1704
26584W        W44108   9.222   1.046  12.171 -0.4946 -0.1306 -0.1838
26585W        W44109  15.139   0.151  16.285 -0.1415 -0.0690 -0.0953
26586W        W44110  11.326  15.894  14.859  0.1600 -0.1055 -0.0912
26587W        W44111   7.090  16.441  11.713  0.3085  0.0105  0.1040
26588W        W44112   3.573   8.236   4.462  0.2799 -0.3083  0.1234
26589W        W44113  14.121  15.728   1.892 -0.1486 -0.1955 -0.4748
26590W        W44114   3.059  17.920   4.935  0.0808 -0.2369  0.0494
26591W        W44115  15.203   5.740  13.549 -0.0821 -0.1426 -0.2209
26592W        W44116   2.941   7.761  13.295 -0.0620 -0.0967  0.0690
26593W        W44117   9.816   5.279   5.017  0.3570  0.0307  0.2670
26594W        W44118  13.821   0.153  14.896 -0.1954 -0.1644  0.4017
26595W        W44119  13.258  14.426  14.245  0.2454 -0.0635 -0.1541
26596W        W44120  13.444   2.956  13.149  0.0512 -0.1742 -0.0803
26597W        W44121   2.871   9.816   3.827  0.1197  0.3528 -0.3419
26598W        W44122  10.420  15.264  11.677 -0.1765  0.3175 -0.1320
26599W        W44123  14.387   3.620  12.292 -0.1076  0.2838  0.1584
26600W        W44124  17.719   6.639   4.884 -0.2125 -0.4114  0.0692
26601W        W44125   9.292  13.569   5.356 -0.3048  0.1536  0.0750
26602W        W44126  12.318  12.924   2.333  0.0019 -0.0339  0.2194
26603W        W44127   1.295   4.408  14.633  0.0056 -0.1410  0.0095
26604W        W44128   2.401  10.780  14.911  0.1130 -0.1610  0.1731
26605W        W44129   0.850  13.882   2.103 -0.0462 -0.0544  0.0042
26606W        W44130  10.119  10.713   0.242  0.1544 -0.0952  0.0867
26607W        W44131  14.471  14.707   0.087  0.1653 -0.0918 -0.0215
26608W        W44132   5.412   6.021  16.443 -0.0554 -0.2233 -0.0130
26609W        W44133   3.623   9.794  10.816  0.1203  0.3079  0.0852
26610W        W44134   1.304  12.291   4.501 -0.0755 -0.1040 -0.1288
26611W        W44135   2.097   5.547  14.301 -0.2645 -0.0461  0.0670
26612W        W44136  10.188  11.351  16.464  0.2031  0.1853 -0.1249
26613W        W44137   2.444   6.896   4.795 -0.2708  0.1711  0.2816
26614W        W44138  14.038   1.861  15.431 -0.0594 -0.2144 -0.1736
26615W        W44139  12.657  14.479  15.660 -0.2901 -0.1022 -0.2231
26616W        W44140   9.354   4.961   3.110 -0.2164  0.3406  0.0298
26617W        W44141   8.100  12.188  12.979 -0.1704 -0.1123 -0.1102
26618W        W44142   4.804   1.849  12.141  0.1516  0.1839  0.0382
26619W        W44143   2.922  13.587   3.823  0.1402  0.0586 -0.2633
26620W        W44144   4.357   8.601   5.210 -0.1525  0.0422  0.2529
26621W        W44145   0.085   5.512   3.999 -0.2977 -0.1430 -0.4379
26622W        W44146   2.339   1.209  15.696  0.2088  0.1015  0.1033
26623W        W44147  12.307  13.485   0.009  0.2928  0.0727 -0.0992
26624W        W44148  12.664  13.894  12.408 -0.0929  0.0451 -0.1061
26625W        W44149  10.913   9.301  13.040  0.4227 -0.2131  0.0558
26626W        W44150  17.739   1.120  13.442 -0.0181  0.0232 -0.0879
26627W        W44151  16.879   0.432  11.749  0.0123 -0.4413  0.0763
26628W        W44152  11.588  14.357  14.054  0.1484 -0.1161  0.1337
26629W        W44153   5.093   0.531   3.617 -0.0149 -0.0668  0.0718
26630W        W44154  17.516  12.937   1.610  0.0363  0.2121 -0.0335
26631W        W44155   1.954  11.870   2.685 -0.3814  0.2022 -0.1042
26632W        W44156  16.981   5.073  13.603 -0.0587 -0.0448  0.1179
26633W        W44157   6.297   4.354  11.182 -0.0231 -0.1968 -0.0009
26634W        W44158  12.932   1.257   1.638  0.1414  0.1368  0.1067
26635W        W44159   0.061  10.559  12.442 -0.3685  0.1429 -0.1661
26636W        W44160  17.074   1.320  11.195  0.0713  0.2511 -0.0953
26637W        W44161   5.830   6.896  11.657  0.3536 -0.2650 -0.0826
26638W        W44162   9.245   2.124  13.574  0.1821  0.1723  0.1260
26639W        W44163  15.596   7.937  11.890 -0.0076 -0.0620  0.0038
26640W        W44164   3.493  10.168   0.858 -0.5531 -0.3403 -0.0276
26641W        W44165   9.389   9.000   3.309 -0.0133 -0.3149  0.0214
26642W        W44166   5.611  10.156  14.191 -0.2489 -0.3264 -0.0810
26643W        W44167   5.625  14.608   4.043  0.1480 -0.0062  0.1525
26644W        W44168  17.926   0.748  11.863 -0.1660 -0.3235  0.0286
26645W        W44169   4.219  13.431  11.854 -0.0071 -0.2133  0.1754
26646W        W44170   0.668   8.701  12.876 -0.0278 -0.0856 -0.1529
26647W        W44171  15.549  12.797   3.724  0.0723 -0.0789 -0.2736
26648W        W44172   3.242  13.572   2.521  0.0022  0.0267 -0.1035
26649W        W44173   3.431   8.314   1.841 -0.1163 -0.4679 -0.4952
26650W        W44174  11.953   5.556   4.602  0.1248  0.3526 -0.3212
26651W        W44175  17.964  17.843   3.361  0.1771  0.2244  0.0384
26652W        W44176   8.790   4.470   6.211 -0.3945  0.1450 -0.1265
26653W        W44177  15.363   3.224  14.974 -0.0804 -0.1547  0.0933
26654W        W44178  12.007   9.477   3.769 -0.2595 -0.0937 -0.3377
26655W        W44179  14.145   5.463   1.554 -0.0784  0.4208  0.2577
26656W        W44180   9.220  15.697   4.470  0.1592  0.0055  0.0982
26657W        W44181   6.666  16.375  14.027  0.0236  0.4836 -0.0534
26658W        W44182   9.672  14.099  12.375  0.3432  0.1004 -0.0877
26659W        W44183  13.117  11.222   1.005 -0.1090 -0.2181  0.2194
26660W        W44184   4.483   1.740   4.244 -0.0292 -0.0022 -0.1003
26661W        W44185   7.256   5.267   1.352 -0.0008  0.0007 -0.0035
26662W        W44186  15.696   1.654  12.024 -0.0686 -0.0072 -0.2921
26663W        W44187   3.917  14.902   1.103  0.1263 -0.2153 -0.1737
26664W        W44188   9.185   3.385   0.069 -0.2563  0.0958 -0.6371
26665W        W44189   1.091  10.451   3.798 -0.1628  0.0093 -0.0687
26666W        W44190  14.326   2.072   3.908 -0.5770 -0.1734  0.2506
26667W        W44191  17.810   0.553  13.443  0.2583 -0.1446 -0.2026
26668W        W44192   2.118  15.015   3.625  0.3359  0.0649 -0.1638
26669W        W44193  16.505  16.605  13.169  0.3791 -0.3010 -0.1032
26670W        W44194   3.623  13.537   3.726 -0.4227  0.1589  0.0182
26671W        W44195   7.718  16.699  12.340  0.0215  0.0530 -0.0373
26672W        W44196  14.227  12.457   2.463 -0.1428  0.1185 -0.0676
26673W        W44197   4.004  13.806   1.125 -0.0890  0.2686  0.0620
26674W        W44198   3.740  16.710  12.030  0.0215 -0.2130 -0.4684
26675W        W44199   6.057  13.542   0.554 -0.0812  0.2649 -0.1334
26676W        W44200   5.453  13.805   2.215  0.2795 -0.3567 -0.0231
26677W        W44201   3.887   8.772   0.548  0.3482 -0.0103 -0.0505
26678W        W44202   6.756  16.341   4.285 -0.2449  0.1551  0.0838
26679W        W44203  12.597   7.185  14.338 -0.1105  0.1351 -0.0849
26680W        W44204   0.686   8.870  12.233 -0.2587 -0.2467 -0.2010
26681W        W44205  12.525   2.208  14.845  0.1206  0.1461  0.0283
26682W        W44206   3.546  11.824   5.768  0.0364  0.0642 -0.0670
26683W        W44207  12.714  12.540   4.430 -0.0504  0.2939  0.0612
26684W        W44208   1.312  13.448   2.601 -0.1173  0.4359 -0.0352
26685W        W44209   2.564   4.863   1.399  0.1004 -0.0583 -0.2183
26686W        W44210  17.493  17.604  13.800 -0.1156 -0.1984  0.0104
26687W        W44211  16.358   6.337   2.629 -0.0713 -0.0291 -0.0946
26688W        W44212   5.080   3.983  11.854  0.0101  0.2328  0.0102
26689W        W44213   4.714   5.305   6.207  0.0690  0.0719  0.1929
26690W        W44214   7.122  10.124  15.117  0.1630 -0.0530 -0.0856
26691W        W44215   4.167   3.270  14.160 -0.2952  0.3299 -0.1930
26692W        W44216   5.966   9.018   4.087  0.0428 -0.1671  0.0074
26693W        W44217  11.790   8.083  12.334  0.0905 -0.0110 -0.0493
26694W        W44218   1.227  15.662  14.532 -0.0558 -0.1876 -0.3924
26695W        W44219  11.363   8.196   1.096 -0.1239  0.1741  0.1039
26696W        W44220   4.531  17.752   3.423  0.1553 -0.1049 -0.0858
26697W        W44221   1.986   2.971   0.722 -0.0145  0.2253 -0.0373
26698W        W44222   0.067   6.378  13.898 -0.2176 -0.0250 -0.2355
26699W        W44223  17.307   6.815  13.221 -0.0678 -0.1636 -0.0006
26700W        W44224  13.357   7.756   0.171  0.0969 -0.1136 -0.0626
26701W        W44225   5.358   2.254   3.244  0.0765  0.0316 -0.1380
26702W        W44226  13.687  14.067   3.896  0.1231 -0.4800  0.2756
26703W        W44227  13.360  15.091   4.488 -0.1568 -0.2034  0.1224
26704W        W44228   5.138   2.619  11.025 -0.2277 -0.1192 -0.0666
26705W        W44229   1.387   6.490  13.040  0.1900  0.1485 -0.2142
26706W        W44230   0.705   2.763   3.146 -0.1574  0.0490 -0.0249
26707W        W44231   0.723   5.421  11.860  0.2778 -0.1205 -0.3949
26708W        W44232  10.033   4.980   0.558  0.0826 -0.0075 -0.0964
26709W        W44233   1.453   2.226  10.900  0.1483 -0.4918  0.1194
26710W        W44234  17.940  11.075   1.705  0.0898 -0.1060 -0.2170
26711W        W44235   4.802  13.428  15.155  0.2667  0.0750 -0.0373
26712W        W44236   8.170  10.999  16.321 -0.0226  0.0890 -0.2834
26713W        W44237   5.500  15.107   5.263 -0.1716  0.0908 -0.1633
26714W        W44238   1.001  10.380   3.189  0.0128  0.0234  0.0152
26715W        W44239  17.210   3.399   0.276 -0.2010  0.0335 -0.0351
26716W        W44240   5.144   3.183   3.354  0.4293 -0.1006 -0.2486
26717W        W44241  11.245   2.738  12.296 -0.0210  0.0333 -0.0045
26718W        W44242   5.170   6.201   1.667 -0.1280 -0.1789 -0.0397
26719W        W44243   2.718   7.142   3.011  0.0118  0.1404  0.0209
26720W        W44244   7.015  16.487  15.715 -0.0981  0.1759 -0.1768
26721W        W44245   7.571   9.525  15.921  0.0646 -0.0355 -0.1201
26722W        W44246  16.533   9.066  10.707  0.1707 -0.1158 -0.1704
26723W        W44247  12.043  12.508   2.275 -0.0129 -0.1788  0.1113
26724W        W44248  14.118  15.572   3.953  0.1144  0.0374 -0.0405
26725W        W44249  14.623   5.089  15.576  0.0443  0.3074  0.1116
26726W        W44250  10.390   8.433  11.498  0.0869 -0.0591  0.2708
26727W        W44251   8.798   3.729  15.759  0.1414  0.1230  0.0507
26728W        W44252   9.074   4.761  11.107  0.3330  0.0133  0.2897
26729W        W44253   3.479   6.064   1.191  0.0345 -0.0889  0.2190
26730W        W44254   8.639  10.545  13.739  0.0527 -0.2015  0.1509
26731W        W44255   5.762   3.856  14.356 -0.3817 -0.1193 -0.1608
26732W        W44256   9.503  15.744   0.656 -0.1443  0.1405  0.0716
26733W        W44257  14.429   4.850  11.663  0.0515  0.1338  0.0376
26734W        W44258  12.115  11.408  16.256  0.0110  0.2867  0.2500
26735W        W44259   1.305   7.034  14.505  0.1905 -0.6619  0.2564
26736W        W44260  16.585   1.298  11.806 -0.1113  0.1598  0.2716
26737W        W44261   7.081   0.370   2.891  0.0960  0.1777 -0.1564
26738W        W44262  12.274   9.050  12.830 -0.3082  0.2205 -0.1039
26739W        W44263  17.077   4.576   4.318  0.0787 -0.2477  0.2452
26740W        W44264   7.548   0.491   1.344 -0.3560 -0.0059  0.1126
26741W        W44265   3.793   3.967  11.188 -0.0351 -0.2833  0.0880
26742W        W44266  10.918   5.633   4.943  0.0641  0.2148  0.1247
26743W        W44267  15.625  15.220  14.075  0.2254 -0.2302  0.1284
26744W        W44268   6.523  14.492  12.698  0.1716  0.1496  0.1989
26745W        W44269   6.614  16.226  15.281  0.0262  0.2505  0.0127
26746W        W44270   2.604   6.499   4.559  0.0954 -0.1133 -0.0624
26747W        W44271   2.431  17.373   3.610 -0.0502  0.2254  0.0678
26748W        W44272   7.247   8.936  10.691 -0.0629  0.1843  0.0544
26749W        W44273   9.706  11.772   4.850  0.0313 -0.0472  0.2206
26750W        W44274  12.349   0.379  13.196 -0.1288  0.2142 -0.0376
26751W        W44275   9.359   2.906   3.532  0.3191  0.2651 -0.3900
26752W        W44276   3.570  16.801   3.508  0.0562 -0.1092 -0.3126
26753W        W44277  15.656   6.527  12.104 -0.0555  0.1080  0.0561
26754W        W44278  14.378  14.879  16.023  0.0130 -0.1088 -0.1438
26755W        W44279  13.506  12.071  12.616  0.0829 -0.0657  0.0462
26756W        W44280  10.272  14.204  14.269 -0.0139 -0.2968 -0.0458
26757W        W44281  10.805   1.195  11.433  0.2111  0.3009 -0.3845
26758W        W44282   8.566   1.182   2.422 -0.2920  0.1139  0.0841
26759W        W44283   1.985   2.837   3.275 -0.1231 -0.1475  0.2265
26760W        W44284   4.877   3.589   3.363  0.0026 -0.2271  0.0906
26761W        W44285   0.482  11.790   1.246 -0.1451  0.2761  0.1608
26762W        W44286  17.719  15.590   2.372  0.1625 -0.3434  0.4083
26763W        W44287  15.413   7.273   3.280  0.0406  0.1210  0.3570
26764W        W44288   1.333   6.399   0.256 -0.1553 -0.0392 -0.0991
26765W        W44289  12.651  15.206   2.820  0.2564 -0.1590  0.0778
26766W        W44290   1.106   7.163   3.962 -0.0431 -0.1477  0.0158
26767W        W44291   6.782  12.983   0.935 -0.6617 -0.0894 -0.0119
26768W        W44292  10.595  17.357   0.871 -0.3137 -0.0132  0.0028
26769W        W44293   5.016   5.045  15.807 -0.0184  0.1914  0.1170
26770W        W44294   7.668  11.300   1.203  0.0427 -0.0430  0.2153
26771W        W44295   7.108   1.634   4.737  0.0854  0.2080 -0.1905
26772W        W44296  15.569   9.483  12.427  0.1761 -0.1760  0.0141
26773W        W44297   6.058   4.345  15.028 -0.0416  0.1273 -0.0472
26774W        W44298   1.818  14.635   3.452  0.2014 -0.3329  0.1675
26775W        W44299  13.676   4.415  15.912  0.2995  0.1129 -0.2104
26776W        W44300   2.911   1.756   1.920  0.1658 -0.0254 -0.1005
26777W        W44301  14.890  16.153  16.225 -0.0288  0.1233  0.1197
26778W        W44302  15.423   6.941  11.987  0.1209 -0.0971 -0.1931
26779W        W44303   4.039   4.082   2.070  0.1383  0.0892  0.0574
26780W        W44304  16.099  12.607  13.742 -0.0688 -0.2554 -0.1327
26781W        W44305  16.937  13.398   0.325  0.1317  0.0548  0.2201
26782W        W44306   4.938   4.872   3.929  0.1185 -0.0243 -0.2858
26783W        W44307  13.421  11.746  11.550 -0.1196  0.0068  0.2118
26784W        W44308   8.770  14.442   2.085  0.1042  0.0326  0.0946
26785W        W44309   1.003  14.620  13.275 -0.0816  0.2474 -0.1815
26786W        W44310   4.082  17.281   2.507 -0.0794  0.0435 -0.3435
26787W        W44311  13.317  16.908  12.522 -0.2347 -0.3592  0.0446
26788W        W44312   4.267   0.951  14.660  0.3274 -0.4004 -0.1616
26789W        W44313  14.181  11.436   3.986  0.2276  0.0335  0.1148
26790W        W44314   3.360   6.128  13.836 -0.2836  0.3110 -0.3101
26791W        W44315   9.656   6.000   2.286  0.1139 -0.1637  0.4614
26792W        W44316   7.038   4.559  16.337  0.1570 -0.3827  0.0084
26793W        W44317  12.941  10.281  12.890  0.1043 -0.0823  0.3427
26794W        W44318  10.682   9.201   1.538  0.2835  0.2509 -0.1413
26795W        W44319  14.436   3.348  12.833  0.0653 -0.1388 -0.0492
26796W        W44320   9.581   0.176  14.436 -0.3009 -0.0938  0.0593
26797W        W44321  11.552  11.359   3.416  0.1545  0.1066  0.0987
26798W        W44322   3.055   0.668   6.090  0.1349 -0.0611  0.1009
26799W        W44323   5.162   5.819   1.159  0.2620 -0.3513  0.4046
26800W        W44324   2.935  14.382  12.337  0.3372 -0.1595 -0.1876
26801W        W44325   6.173  15.863  12.190  0.1664 -0.2776 -0.1137
26802W        W44326  12.805  16.127  13.559 -0.2062 -0.2033 -0.2706
26803W        W44327  15.061  12.029   2.384  0.0893  0.0033  0.0851
26804W        W44328   7.611   8.307   3.171 -0.1914  0.1453  0.1198
26805W        W44329   6.297  11.777  12.704  0.0878  0.0049  0.1163
26806W        W44330  14.067   5.585  13.250 -0.2007 -0.0355 -0.3059
26807W        W44331   9.651   0.799  15.521 -0.0852  0.2140  0.0518
26808W        W44332   6.278   4.607  14.050  0.3011 -0.2160  0.1891
26809W        W44333   9.618   1.471   3.669 -0.2159 -0.2227  0.0407
26810W        W44334  15.208   2.358  13.557  0.3092  0.1217  0.0314
26811W        W44335   7.617  17.062   2.633 -0.0272 -0.0250 -0.0374
26812W        W44336  11.708   7.449   5.051 -0.2325  0.1758 -0.0795
26813W        W44337   4.494   7.890   2.913 -0.0057  0.0628 -0.1041
26814W        W44338   2.883  15.689  15.173  0.0223  0.3490  0.1176
26815W        W44339   1.541   3.338   2.777  0.0257 -0.2226 -0.1058
26816W        W44340   4.337   3.102  12.709  0.3476 -0.2913 -0.2458
26817W        W44341   1.803   2.670   0.324  0.1470  0.1692  0.0352
26818W        W44342   8.909  15.336  16.237  0.0938 -0.3821  0.0734
26819W        W44343  10.277   7.512  13.772  0.0170 -0.0406  0.0902
26820W        W44344  14.863   7.497   3.804 -0.0943  0.2568 -0.0398
26821W        W44345   3.864  16.681  14.722  0.2045 -0.1685  0.0329
26822W        W44346  17.872   4.160  14.769  0.1838  0.2259  0.3410
26823W        W44347   4.048  12.810   3.325  0.2540  0.2189  0.0442
26824W        W44348   8.104   8.142  12.684 -0.0547  0.2344 -0.0479
26825W        W44349   8.285   3.609  13.722  0.0569  0.4633 -0.1193
26826W        W44350  16.944   9.306   4.334  0.1375  0.0139  0.0747
26827W        W44351  11.019  10.100   0.483 -0.2723 -0.2810  0.3258
26828W        W44352  12.520  15.517  15.808 -0.0120  0.1257 -0.1424
26829W        W44353  15.154  13.383  11.983 -0.0338  0.0422  0.1652
26830W        W44354  15.812  13.556   1.660  0.3495 -0.2762  0.0471
26831W        W44355  11.478   7.841   4.796 -0.0059  0.0816  0.1770
26832W        W44356   5.496   4.065   1.289 -0.0191  0.1661  0.1649
26833W        W44357  17.563  14.025   2.431  0.2571  0.0773  0.0190
26834W        W44358   5.063  13.189  11.419  0.0129  0.0304  0.0111
26835W        W44359  13.441  14.448   1.830 -0.2113  0.3156  0.0553
26836W        W44360  12.353   5.233  12.268  0.2481 -0.0297 -0.0726
26837W        W44361  10.154   6.848  12.062 -0.3764  0.0177  0.0873
26838W        W44362  12.869   7.774  14.693  0.3842 -0.1244  0.1316
26839W        W44363   3.989   5.422  15.796  0.0294  0.2130 -0.2746
26840W        W44364  16.983   1.762  15.822 -0.0710  0.0045  0.0015
26841W        W44365   5.813   5.325   2.443 -0.1780  0.0014 -0.0275
26842W        W44366   8.801  15.724  14.526 -0.2444  0.1094  0.0742
26843W        W44367  14.024  13.112  14.709 -0.2095  0.4045 -0.2968
26844W        W44368   5.144  11.390   0.093 -0.0042 -0.1812  0.2313
26845W        W44369  15.949  11.121   2.635 -0.1294  0.4812  0.0478
26846W        W44370   6.257  10.775   4.730 -0.0080  0.1814 -0.1568
26847W        W44371  10.335   3.393  12.175  0.3341  0.1473 -0.0798
26848W        W44372   3.618   3.488   4.472  0.0079 -0.0525  0.0733
26849W        W44373   5.081  10.841  10.848  0.1636 -0.3586  0.3026
26850W        W44374  11.516   9.203  11.904  0.1677 -0.0682 -0.2838
26851W        W44375  12.897  13.988  11.256  0.0276  0.1314 -0.1517
26852W        W44376  14.579  15.737   2.218 -0.0533 -0.1506 -0.0922
26853W        W44377   9.331  12.051   0.767 -0.2524  0.3579  0.0453
26854W        W44378   6.175   2.037   5.359  0.0401 -0.0854 -0.0369
26855W        W44379   6.307   6.392   3.100  0.1729 -0.0392  0.0609
26856W        W44380   1.235  13.549  16.380 -0.2266  0.2294 -0.0422
26857W        W44381  16.446   9.558   1.781  0.0722  0.0202  0.0506
26858W        W44382  11.925  17.933   5.029 -0.1722 -0.0776 -0.0144
26859W        W44383   4.967   2.005  13.835  0.2568  0.1016 -0.1349
26860W        W44384   6.610  10.105  14.991  0.1167 -0.3376  0.2692
26861W        W44385  11.747  17.681  13.338  0.0824  0.0211 -0.0123
26862W        W44386   3.107  15.361  15.466 -0.2454 -0.0349  0.1057
26863W        W44387   5.079   9.477   2.954 -0.2025  0.1688  0.0248
26864W        W44388   0.195  12.720  11.378  0.4589  0.2682 -0.2511
26865W        W44389  10.603   5.636   0.764 -0.1776  0.0000 -0.4508
26866W        W44390   1.365   7.868  13.879  0.0983 -0.2592 -0.3044
26867W        W44391   4.041   6.125   3.901  0.2146  0.1016  0.0899
26868W        W44392  10.236  16.775   3.826 -0.1772  0.1819  0.2156
26869W        W44393   5.868   2.106   5.771 -0.0695 -0.2096 -0.0339
26870W        W44394  12.153   0.514  11.655 -0.4396  0.2713  0.0193
26871W        W44395   8.779   4.372  13.941 -0.0438 -0.0525  0.2186
26872W        W44396   8.425   4.435   3.731  0.0114  0.0709 -0.0064
26873W        W44397   0.100   0.444  12.291  0.2204 -0.1732  0.1069
26874W        W44398   4.960   3.392  11.664 -0.0663 -0.2182  0.0178
26875W        W44399   7.808   1.804  14.023 -0.0694  0.1918 -0.0226
26876W        W44400  16.302   2.832  12.808  0.1654 -0.0435  0.0181
26877W        W44401  15.496   1.320  13.538  0.1711 -0.3175 -0.5147
26878W        W44402  15.040  14.411  15.141  0.3313 -0.2580 -0.1151
26879W        W44403  17.092   7.011   0.722 -0.1388  0.0940 -0.0070
26880W        W44404   4.266  16.280   3.199 -0.0862  0.4522  0.0702
26881W        W44405  12.426  16.956   1.378  0.0927 -0.2335 -0.1165
26882W        W44406   3.074   1.867  15.538  0.3269 -0.3378 -0.3191
26883W        W44407  12.059  10.767  15.430 -0.1763 -0.0911 -0.0608
26884W        W44408  17.636  14.434  13.709 -0.1008 -0.2651  0.0587
26885W        W44409   4.821   4.119   3.365  0.1691 -0.2679  0.1011
26886W        W44410  16.140  16.750   4.545  0.2284  0.1416 -0.1343
26887W        W44411   1.138   2.374  15.286  0.2110  0.0253  0.1871
26888W        W44412  17.278   1.236  13.134  0.0738  0.0346  0.2234
26889W        W44413  16.909  13.186  16.325  0.2324  0.0365 -0.0938
26890W        W44414  10.340  17.521  16.399 -0.1005  0.0200  0.0858
26891W        W44415  16.681   7.734   2.897 -0.0980 -0.1177 -0.0348
26892W        W44416  16.032   7.933  15.618 -0.2119  0.1788 -0.1770
26893W        W44417   4.856   7.140   4.293  0.2093  0.0496  0.0495
26894W        W44418   7.188  13.537   1.837  0.1371 -0.2363 -0.1137
26895W        W44419  13.447   5.052  15.931 -0.1919 -0.0227 -0.1771
26896W        W44420   7.563   9.729  13.418 -0.0848 -0.0794  0.0364
26897W        W44421  14.221   9.747  12.936  0.1639  0.0967  0.0205
26898W        W44422  15.924  14.678   4.447  0.0460  0.0272 -0.1557
26899W        W44423   2.783  16.180   3.685  0.1613  0.1403 -0.3635
26900W        W44424   9.504   2.448   1.595 -0.0038 -0.2049  0.0800
26901W        W44425  12.872  16.942   4.686  0.0098 -0.1262 -0.0845
26902W        W44426   7.478  10.634  11.829  0.0713 -0.1624  0.0128
26903W        W44427   8.202   1.314  15.189 -0.3171 -0.0901 -0.2938
26904W        W44428  11.941  17.752  11.396 -0.1332 -0.2805 -0.1979
26905W        W44429   1.890  13.590  14.757  0.1410  0.1658 -0.2423
26906W        W44430   9.009   0.944  14.494 -0.1725 -0.0716  0.0412
26907W        W44431  15.299  11.789   5.545 -0.1605  0.1129  0.1269
26908W        W44432  14.311  13.199  16.432 -0.1504  0.2053 -0.4632
26909W        W44433   1.304   6.200   1.503 -0.0877  0.2978 -0.1252
26910W        W44434   4.675   7.204   0.038 -0.2149  0.0229  0.0808
26911W        W44435   9.381  11.765  14.124  0.1333  0.0530  0.1786
26912W        W44436  15.604   1.874  14.214  0.1898  0.0384 -0.0039
26913W        W44437   0.436  14.470   0.656 -0.2526  0.1779  0.0075
26914W        W44438  14.847   1.946   0.210 -0.1375  0.1098 -0.1746
26915W        W44439  16.458  17.970   0.732  0.2495  0.2316 -0.0095
26916W        W44440  16.979   2.327  12.499  0.0773 -0.0617  0.4329
26917W        W44441   5.447   3.861  12.425 -0.1760 -0.1471 -0.0455
26918W        W44442   4.816   7.163  12.242  0.0216 -0.0427 -0.0536
26919W        W44443   2.336  11.028   1.307  0.5064 -0.1557  0.0856
26920W        W44444   0.802  12.970   2.287  0.2796  0.0896 -0.2743
26921W        W44445  17.433  16.515  15.375  0.1073  0.1841  0.0354
26922W        W44446  16.505  13.831   3.353 -0.2089  0.0797 -0.1492
26923W        W44447   0.708  13.260  13.091  0.1793  0.0583 -0.2143
26924W        W44448  11.301   8.424   4.035 -0.0094 -0.0705  0.0678
26925W        W44449  14.526   7.877   4.026 -0.1549 -0.0308 -0.0308
26926W        W44450   9.377   4.369   0.106  0.1013 -0.1644  0.0906
26927W        W44451   0.812  13.425   2.464  0.1403 -0.2494  0.3730
26928W        W44452   3.954   2.768   6.183  0.0875 -0.2062 -0.1276
26929W        W44453   9.164   9.840   3.276  0.0573 -0.1550  0.1841
26930W        W44454   3.853  14.991  15.007  0.1687  0.0253  0.1519
26931W        W44455   6.335   6.609  14.276 -0.1627 -0.1791  0.0652
26932W        W44456   7.705  10.148  15.733  0.1365 -0.0709 -0.0330
26933W        W44457  10.234   6.628   0.145  0.1183 -0.0544  0.0706
26934W        W44458   1.202   5.071   2.726 -0.1001 -0.1839  0.0856
26935W        W44459  13.560   1.407   5.987 -0.1425  0.2078 -0.1789
26936W        W44460  11.312   6.517   3.047 -0.1277  0.0495  0.1270
26937W        W44461   6.076   5.903   4.419 -0.2652 -0.0334 -0.2151
26938W        W44462  15.167   0.521  12.207  0.0198  0.5409  0.3326
26939W        W44463   4.619   1.210  11.707 -0.1283  0.2916  0.1265
26940W        W44464   0.094   1.442  15.074  0.0637 -0.0418 -0.2215
26941W        W44465  17.760  11.720  11.177 -0.0242 -0.2657  0.1156
26942W        W44466   8.348  11.047  11.944 -0.3583 -0.1480  0.1768
26943W        W44467  10.257  17.389   1.406 -0.0173 -0.0436 -0.0903
26944W        W44468   0.090  17.815   0.012 -0.3095  0.0791  0.0235
26945W        W44469   4.606  14.822   5.071 -0.3782 -0.0335 -0.0436
26946W        W44470   2.350  10.168  15.807 -0.1648 -0.1106 -0.3625
26947W        W44471  10.118   1.940   0.126 -0.1393 -0.1028 -0.3093
26948W        W44472   5.302   2.125   2.743 -0.0788 -0.1681  0.0688
26949W        W44473  12.471   6.459  15.707 -0.1356  0.1858 -0.1941
26950W        W44474  16.920  13.778  13.208 -0.0099 -0.2554  0.1676
26951W        W44475  17.215  17.888   1.454  0.1703 -0.0318  0.2293
26952W        W44476   4.384  12.427  15.454 -0.1073 -0.0373  0.0484
26953W        W44477   9.534  15.132   3.678 -0.0697 -0.1811  0.1922
26954W        W44478  10.766  15.216  16.158 -0.3208  0.0855  0.0641
26955W        W44479  15.146  14.585   1.769  0.4582 -0.0918  0.0772
26956W        W44480  10.970  11.871  15.580  0.2812  0.3621  0.1918
26957W        W44481   8.573   1.843  14.335  0.0744  0.0262 -0.0703
26958W        W44482   8.166   5.520  13.492 -0.0865 -0.0963  0.0157
26959W        W44483  13.769  17.246  11.859  0.4156  0.3380  0.1115
26960W        W44484   5.175  14.858   3.177  0.3090  0.1406  0.1218
26961W        W44485  15.652  14.476   1.307  0.0945 -0.2901  0.0425
26962W        W44486   2.391   9.623   0.070 -0.0859 -0.1187 -0.0340
26963W        W44487   6.147  17.930   1.284 -0.2181  0.0426  0.4234
26964W        W44488  15.154  11.773  12.724 -0.2064 -0.0226 -0.2368
26965W        W44489  15.828  10.448   0.843  0.0656 -0.2569  0.1627
26966W        W44490   0.796  11.191   4.733  0.0619  0.0032  0.2519
26967W        W44491  10.838   3.788   2.325 -0.0965  0.0028  0.0531
26968W        W44492   4.269  15.973  11.278  0.1686  0.1217  0.0123
26969W        W44493  12.708  17.667  14.245  0.1394  0.1928 -0.0168
26970W        W44494   3.884  15.115   0.639 -0.2010 -0.2118  0.0158
26971W        W44495   9.873   3.987   5.358  0.2046  0.0262  0.0838
26972W        W44496   8.958  16.206  12.467  0.4211  0.2323 -0.1960
26973W        W44497  12.892  14.773   1.129 -0.0097  0.2650 -0.2794
26974W        W44498  11.912   1.353  12.823  0.0674 -0.5362  0.1581
26975W        W44499   0.627  15.601  12.048  0.0857 -0.1546 -0.2213
26976W        W44500  11.794  15.861  15.154  0.0264  0.1664 -0.1688
26977W        W44501  12.289   2.602  12.630 -0.0905 -0.1947  0.0567
26978W        W44502   3.391   7.053   1.380 -0.1235  0.3125 -0.2843
26979W        W44503   8.069  12.115   3.669 -0.1159 -0.1833 -0.1290
26980W        W44504   5.761   5.566  15.429  0.0560  0.2435 -0.1268
26981W        W44505   1.673   5.986   4.401 -0.2016  0.4085 -0.1073
26982W        W44506  15.943  15.728  15.565  0.3687 -0.0697  0.0676
26983W        W44507   5.282   2.670  11.509  0.1715 -0.0900  0.1522
26984W        W44508  10.365   3.046   2.144 -0.0491  0.4230 -0.0295
26985W        W44509   2.407  16.300  12.929 -0.2529 -0.0002  0.5518
26986W        W44510   3.351   5.398  13.383 -0.1552  0.0035 -0.2170
26987W        W44511   0.087  10.534   3.022  0.3295 -0.0807 -0.1353
26988W        W44512  13.488   7.696   1.653  0.0690 -0.0013 -0.1110
26989W        W44513  17.182  12.991   1.945  0.0489 -0.0039  0.1401
26990W        W44514   6.369   2.106   4.880  0.2005  0.3628  0.2116
26991W        W44515   4.003   4.996  14.441  0.2923  0.1317 -0.0679
26992W        W44516  12.385   2.334   0.768 -0.1512 -0.0418  0.1258
26993W        W44517   4.245   4.227   1.046  0.1534  0.2363 -0.4590
26994W        W44518  14.211  10.231   0.319 -0.1255 -0.2586  0.0342
26995W        W44519   6.640  17.632  11.652  0.1682  0.2029 -0.0355
26996W        W44520  15.074   1.771  11.476  0.2504 -0.0367 -0.1740
26997W        W44521   8.248   4.541   2.629 -0.1947  0.0413 -0.2331
26998W        W44522  16.107   4.187  13.625 -0.3000  0.3859  0.0567
26999W        W44523   2.558   2.520   5.077 -0.2929 -0.2270 -0.1792
27000W        W44524  15.922  17.877   4.045 -0.1538  0.0075 -0.0642
27001W        W44525   4.344   3.065  14.683  0.2046 -0.0067  0.2809
27002W        W44526   0.447  15.000   0.585  0.3098  0.0861  0.1176
27003W        W44527   2.738   1.071   4.328  0.0252 -0.1388 -0.1424
27004W        W44528  11.068  16.693   6.283 -0.1068 -0.1592 -0.2468
27005W        W44529  16.287   6.066  14.668  0.0747 -0.2829 -0.1421
27006W        W44530  17.320   5.410  12.148 -0.0433  0.0012 -0.1767
27007W        W44531   2.946   5.840  13.923  0.0063  0.0608  0.2650
27008W        W44532   2.916  14.845   0.464  0.2438  0.3316 -0.1100
27009W        W44533   3.180   0.621  12.860 -0.0385  0.4515  0.2472
27010W        W44534  11.813  16.507  15.930 -0.3220 -0.1213 -0.2942
27011W        W44535  14.306   4.349  11.712  0.1748  0.0949  0.1740
27012W        W44536  11.682   0.263  15.342 -0.0045  0.2474 -0.0909
27013W        W44537   8.269   6.691   4.429 -0.0585  0.2442  0.2678
27014W        W44538  16.343   5.260  12.998 -0.0523  0.1153 -0.1129
27015W        W44539  17.874  13.334   1.407  0.2973  0.1487 -0.0267
27016W        W44540  12.743  13.759  16.206  0.0559  0.1045 -0.2611
27017W        W44541  12.457   6.993   3.181  0.0911  0.1861 -0.2556
27018W        W44542  17.811   2.998   0.031  0.1318 -0.0977  0.1648
27019W        W44543   7.575  13.068   0.188  0.1995  0.2488  0.0153
27020W        W44544  10.462   2.131  12.203 -0.2207 -0.3444 -0.0274
27021W        W44545   8.870   0.703  13.155 -0.1670  0.2202 -0.1148
27022W        W44546  11.116   9.750   2.301 -0.1841 -0.0136  0.1050
27023W        W44547  12.295  10.837  11.302 -0.2168 -0.1130  0.0958
27024W        W44548   6.928   5.053  14.797  0.0611  0.1655  0.0449
27025W        W44549  11.560  17.471  11.053 -0.2705  0.1897 -0.0672
27026W        W44550   2.575   2.388  15.115  0.0745  0.2500  0.2171
27027W        W44551  17.277  17.854   0.771  0.1212 -0.2314  0.2050
27028W        W44552  10.299   0.524   2.455 -0.4073  0.0401 -0.1730
27029W        W44553   4.324   1.258  13.643 -0.0936 -0.3277  0.1363
27030W        W44554  11.762  14.432   4.122 -0.1944  0.0946 -0.3134
27031W        W44555   8.040   2.023   3.099  0.1114 -0.0330  0.0066
27032W        W44556   7.512  12.782  15.694 -0.1767  0.0343 -0.0394
27033W        W44557   9.034   2.293   1.657  0.2659  0.1079 -0.1651
27034W        W44558   7.521   5.354  11.127  0.1267 -0.1158 -0.1108
27035W        W44559  13.985  15.051   3.844  0.0588  0.0597 -0.2315
27036W        W44560   6.911   2.867  16.062  0.0039 -0.1374 -0.0749
27037W        W44561   3.921  17.172   3.775  0.1499  0.0325  0.0176
27038W        W44562  12.633   5.104   2.062  0.0902 -0.0724  0.0577
27039W        W44563   0.596  11.409  12.929  0.2454  0.3341  0.2795
27040W        W44564  11.351  17.899  13.656 -0.1839  0.0557  0.0195
27041W        W44565  11.389  10.022   0.101  0.4512 -0.0951  0.2185
27042W        W44566  14.221   8.658   4.490 -0.3697 -0.0030  0.1786
27043W        W44567  17.378   2.058  15.347  0.1026  0.0858 -0.0530
27044W        W44568  10.158  10.181   3.362 -0.2202 -0.1444 -0.0243
27045W        W44569  12.903   7.671   0.498 -0.0838  0.3153  0.1896
27046W        W44570  17.008   6.386   2.849  0.2945 -0.1720 -0.0531
27047W        W44571  16.509  10.309   1.510 -0.0080  0.1649 -0.1743
27048W        W44572   4.872   4.816  13.331 -0.1481 -0.4121 -0.1348
27049W        W44573   7.947   2.109   4.333 -0.0095  0.2080  0.1076
27050W        W44574  14.808   0.981  14.562  0.2775  0.0620  0.1777
27051W        W44575  16.289   1.666   0.728  0.0894 -0.2586  0.1811
27052W        W44576   5.219  11.048   4.619  0.1751 -0.0720 -0.2205
27053W        W44577   1.590   4.725   4.548 -0.3793 -0.1885 -0.1251
27054W        W44578  12.704  17.432  11.570  0.0063  0.1814 -0.2166
27055W        W44579   7.241  17.247   3.171 -0.0936 -0.0233 -0.0272
27056W        W44580   1.911  17.468  15.712  0.0424  0.0237  0.4607
27057W        W44581  16.666  15.162  13.203  0.4135 -0.0523  0.0013
27058W        W44582  16.575  11.347  12.082  0.1352  0.2897  0.2473
27059W        W44583  13.342  17.120   0.750  0.3324  0.0845  0.1716
27060W        W44584   0.582  10.752  12.121 -0.0989 -0.0893  0.0632
27061W        W44585   8.751  10.299  12.934  0.0750 -0.1293 -0.0787
27062W        W44586  13.825  16.422   2.323  0.0723  0.1311 -0.1769
27063W        W44587  14.680   8.640  15.748 -0.0055 -0.2655 -0.1242
27064W        W44588   2.501  10.980   3.528 -0.0979 -0.0833  0.0358
27065W        W44589  11.025   8.070   2.840  0.1323 -0.3372  0.1922
27066W        W44590  12.842   8.261  14.723 -0.2830 -0.3409  0.1328
27067W        W44591  10.859   0.745  15.026 -0.0903  0.2357  0.0148
27068W        W44592   8.257   6.185  15.571  0.1127 -0.0026 -0.1132
27069W        W44593  10.954  11.752  16.086  0.1951 -0.2289  0.1440
27070W        W44594   6.872  15.370  13.057  0.3859  0.1062  0.1283
27071W        W44595  12.717  16.968  13.216 -0.0232  0.1505 -0.2239
27072W        W44596  11.788   1.622   0.068  0.0777  0.1927 -0.3018
27073W        W44597   0.209   1.966   2.666  0.2712 -0.1177 -0.3646
27074W        W44598  14.186   8.253   2.068  0.3643 -0.1769 -0.1047
27075W        W44599   6.314   3.442   1.411  0.0230 -0.1103 -0.1192
27076W        W44600  14.329   7.283  11.949  0.1290 -0.1047 -0.1929
27077W        W44601   2.782   4.205   0.828  0.3997 -0.1013  0.1209
27078W        W44602  10.739   0.873  14.507 -0.0990  0.2158 -0.1187
27079W        W44603  16.933   1.097  15.160  0.0856  0.1951 -0.0544
27080W        W44604   9.885  13.831  14.403 -0.0311 -0.3132 -0.0900
27081W        W44605  13.567   4.387  12.867 -0.0320  0.0159 -0.1489
27082W        W44606   2.650  10.640   0.199 -0.1000  0.1107 -0.1026
27083W        W44607  17.119  14.063  11.801 -0.0982 -0.3107 -0.1623
27084W        W44608  11.547  15.371   2.979  0.2207  0.1240 -0.1100
27085W        W44609  17.594   9.433   0.512 -0.0332 -0.1780 -0.0044
27086W        W44610   9.728   7.386   0.456  0.0384  0.2127  0.0234
27087W        W44611   5.805   6.822  14.293 -0.0064 -0.0096  0.0235
27088W        W44612   6.002   4.607   0.203 -0.0955  0.1953  0.0139
27089W        W44613  15.023  14.185   0.615 -0.0947 -0.1275  0.2624
27090W        W44614  11.654  13.537   1.721  0.2291 -0.1988 -0.3789
27091W        W44615   7.178   2.900  12.195 -0.0766 -0.0776 -0.0132
27092W        W44616   7.709   8.907  15.869  0.3097 -0.3110 -0.3732
27093W        W44617   3.985  17.498   1.070 -0.1104 -0.1661  0.0855
27094W        W44618   4.775   0.250  14.285 -0.1301  0.1231 -0.2031
27095W        W44619   5.289  12.597   5.104  0.0989  0.0836 -0.2117
27096W        W44620   6.743  16.219   5.304 -0.1205 -0.2352  0.1292
27097W        W44621   2.707   4.234  15.795  0.2052  0.1352 -0.0033
27098W        W44622  12.908  12.631  14.393 -0.1283 -0.1312  0.0093
27099W        W44623  15.996   0.201   1.124 -0.1314  0.2019  0.0507
27100W        W44624   3.811   0.026  13.289 -0.2809  0.0246  0.0965
27101W        W44625   4.165  15.899  11.754 -0.0749 -0.2126  0.2658
27102W        W44626   7.428   9.906   0.897 -0.1303 -0.3211  0.2255
27103W        W44627  15.829   4.474  14.408  0.1050 -0.2522  0.0140
27104W        W44628   5.246  14.254   3.986 -0.1091  0.3232  0.2164
27105W        W44629  13.082   7.924  15.190  0.2273  0.2198  0.2240
27106W        W44630  10.791  12.460  12.895 -0.3462 -0.2818  0.0293
27107W        W44631   9.589   2.158  10.559  0.2156  0.1977  0.0213
27108W        W44632   0.112   7.065   4.947 -0.1296  0.1544 -0.0920
27109W        W44633  12.594  10.952   0.739 -0.2081 -0.2409  0.0566
27110W        W44634  17.366  12.894  11.676 -0.1399  0.1551  0.0266
27111W        W44635  13.864  10.521   2.150  0.3011  0.0406 -0.3463
27112W        W44636  17.333  14.853   1.520 -0.1810  0.2261 -0.0314
27113W        W44637   9.679  12.220   3.654 -0.0857  0.1806 -0.2129
27114W        W44638   2.691   2.734  16.460 -0.3030  0.0570  0.2185
27115W        W44639   6.739   9.735  10.125 -0.2381  0.1457 -0.1300
27116W        W44640  14.146  10.879  12.278  0.2651 -0.1283  0.0651
27117W        W44641  11.125  10.548   1.854 -0.1513  0.1657  0.1532
27118W        W44642   6.405  13.599   2.395  0.0706 -0.3614  0.0513
27119W        W44643   3.250  17.811  14.220  0.0601 -0.0462 -0.0719
27120W        W44644   3.466   1.922   1.541  0.2451 -0.0173 -0.1666
27121W        W44645   2.792   0.607  13.244 -0.2715 -0.0961 -0.0684
27122W        W44646   1.556  15.580  12.028  0.2486  0.0579 -0.1694
27123W        W44647   8.953  13.571  14.073 -0.2359  0.0823 -0.1485
27124W        W44648  14.362   1.044  14.303 -0.2496  0.0452  0.4158
27125W        W44649   3.483   6.602  16.335 -0.0650  0.3385  0.1066
27126W        W44650  15.164  17.279   0.598  0.0100  0.3811  0.0506
27127W        W44651  15.093  13.817   3.811 -0.1656  0.1424  0.0905
27128W        W44652   3.009  15.918   1.293 -0.1917 -0.0151 -0.0981
27129W        W44653   9.694  15.469  16.187  0.0125  0.1002  0.1064
27130W        W44654   0.262   2.039  15.705 -0.0016 -0.0299 -0.1622
27131W        W44655   3.765  11.419  14.942  0.0308  0.0283  0.0032
27132W        W44656   9.989   2.017   2.396 -0.0302 -0.0522  0.0740
27133W        W44657   8.301  12.203   0.523 -0.1481 -0.0191  0.3233
27134W        W44658  11.221  12.938  12.333  0.2336  0.1970  0.1082
27135W        W44659   0.104   0.875  13.733 -0.2219  0.1172  0.3014
27136W        W44660   0.360  15.436   2.384  0.1667  0.1233  0.1410
27137W        W44661  17.587   9.120   2.162  0.0549 -0.1391 -0.0508
27138W        W44662  13.030  12.593   1.633  0.3947 -0.1777 -0.2289
27139W        W44663   6.334   2.718  11.861  0.2007 -0.0710 -0.1577
27140W        W44664   8.834   2.324   1.185  0.0385  0.4886  0.1164
27141W        W44665   5.938   7.381   1.467 -0.1043 -0.1134 -0.0212
27142W        W44666  16.882   9.974   3.714 -0.0514  0.0694 -0.0590
27143W        W44667  10.580  17.782   4.141  0.0843 -0.1734 -0.0590
27144W        W44668  14.606  12.784   0.892  0.1699 -0.1245  0.0314
27145W        W44669  13.407   3.831   1.926 -0.2053 -0.0308 -0.1117
27146W        W44670  16.543   6.610   1.776  0.3464  0.0386 -0.0678
27147W        W44671   4.908   3.368   4.858  0.2222  0.0786 -0.1867
27148W        W44672   1.909  10.401   3.233  0.1699  0.0254  0.1474
27149W        W44673   9.169  15.897   1.044 -0.1557  0.0586  0.1094
27150W        W44674  17.214   8.483   2.702  0.0083 -0.3546  0.0007
27151W        W44675  14.953  12.203   2.910 -0.1334  0.1985 -0.1721
27152W        W44676  11.729  10.411  10.639 -0.3490 -0.1720 -0.0011
27153W        W44677   9.060  15.049   0.265  0.1683  0.2798 -0.3234
27154W        W44678   0.593   1.328   4.961  0.1973  0.1661  0.2078
27155W        W44679  11.082  14.668  16.446 -0.2291 -0.1799  0.2641
27156W        W44680   3.997  13.497  15.764  0.1694 -0.1129 -0.1966
27157W        W44681   6.111   7.123   2.631  0.2796  0.0147 -0.4144
27158W        W44682  11.515  17.734   5.161 -0.0150  0.0032  0.3644
27159W        W44683  11.764   2.434   3.095  0.1265  0.0324 -0.2093
27160W        W44684   0.543   3.406  14.783  0.0203  0.1774  0.1006
27161W        W44685   9.691  16.832   2.775 -0.2208  0.0198 -0.0621
27162W        W44686   2.975   5.858   4.919  0.0903 -0.0051  0.0031
27163W        W44687   8.362  16.743  14.311 -0.0977  0.0375  0.1954
27164W        W44688   1.397   4.122   1.702 -0.1686 -0.2632  0.0992
27165W        W44689   6.299  13.899   1.968 -0.0913 -0.0822 -0.1115
27166W        W44690  14.948  11.348   5.710 -0.0456 -0.0947  0.0440
27167W        W44691   5.349   7.232  15.572 -0.4043 -0.1849  0.3250
27168W        W44692   1.538   2.779  13.228 -0.3458 -0.4069 -0.2532
27169W        W44693   0.163  12.146  11.888 -0.0292 -0.0978  0.3556
27170W        W44694   8.843   6.153  13.772 -0.0077 -0.1219 -0.0147
27171W        W44695  11.017  15.261   1.508 -0.0166  0.0448 -0.1057
27172W        W44696   8.478   9.484  15.401 -0.2438  0.0491 -0.2142
27173W        W44697   6.564   5.792   4.592 -0.0662 -0.0629 -0.1760
27174W        W44698   8.981   9.086  14.664  0.2900  0.0426 -0.2768
27175W        W44699  11.417   0.276  15.852 -0.0605 -0.0242 -0.2537
27176W        W44700   8.892  17.639   0.882  0.1401  0.0862  0.0841
27177W        W44701  11.868  12.933   4.781  0.0101  0.1447 -0.0196
27178W        W44702   0.493   8.232  15.756  0.0166 -0.1404 -0.0357
27179W        W44703   0.720  11.506  11.330  0.0596 -0.0496  0.1866
27180W        W44704   3.990  16.987   1.235 -0.0783 -0.0936 -0.0763
27181W        W44705  12.170  12.721  14.957 -0.0266 -0.0406 -0.0229
27182W        W44706  10.430   6.400   3.292 -0.1157 -0.1528 -0.1201
27183W        W44707  14.736  12.061  11.731  0.0757  0.1929 -0.2455
27184W        W44708   8.402   3.323  15.477  0.0427  0.0287  0.2215
27185W        W44709  11.341  12.379   0.932  0.0008 -0.0750 -0.0789
27186W        W44710  16.769   8.261  15.860  0.3447 -0.0612 -0.0072
27187W        W44711  16.370  16.117  11.907 -0.1301  0.0660 -0.2078
27188W        W44712  10.221   2.631  12.676  0.0460 -0.1574  0.3325
27189W        W44713   6.876  16.415   3.054  0.0721  0.1271 -0.4341
27190W        W44714   2.816   4.532  13.179 -0.2775 -0.1618 -0.1151
27191W        W44715   2.166   1.374  12.088  0.1588  0.1698 -0.0779
27192W        W44716   9.080  14.605  16.463  0.0477  0.2484 -0.6095
27193W        W44717  15.369  16.809  12.443 -0.2088  0.0358 -0.2975
27194W        W44718  11.649   0.111  16.274  0.0688 -0.1228  0.0095
27195W        W44719  15.871   0.965   2.412 -0.1835 -0.1202 -0.2042
27196W        W44720  14.201  14.200   4.781 -0.2202  0.0003 -0.0842
27197W        W44721   9.912   8.994   2.643 -0.0454 -0.0345  0.0317
27198W        W44722  16.910   6.296   5.036  0.0258 -0.0247  0.0901
27199W        W44723  12.447   1.924  14.151 -0.2277 -0.2407  0.0004
27200W        W44724  14.239   1.525  10.586 -0.2549  0.1187  0.2856
27201W        W44725   8.686   6.796  11.712  0.2348  0.1724  0.2451
27202W        W44726  12.575  12.608   0.404  0.1009 -0.1813  0.3744
27203W        W44727   5.504   0.567  13.766  0.1108  0.2283  0.0166
27204W        W44728  16.784   1.431   4.404  0.1915  0.2735 -0.1541
27205W        W44729  14.156  13.322   3.348 -0.3384  0.3702 -0.1168
27206W        W44730   4.200   7.138  13.535  0.0735 -0.2383  0.0599
27207W        W44731  15.367   6.178  11.843  0.2368 -0.1029 -0.4001
27208W        W44732   1.435  14.998  11.920  0.1875  0.1527  0.1271
27209W        W44733   9.933   0.376  15.735  0.0559 -0.2579 -0.1382
27210W        W44734   7.935   6.673   1.580  0.2469 -0.2365  0.0412
27211W        W44735  12.272  11.742  13.154  0.1638 -0.0539  0.1431
27212W        W44736   7.979  17.650   3.606 -0.3145 -0.3505 -0.1006
27213W        W44737   1.458   0.304  16.319 -0.0023  0.2523 -0.1634
27214W        W44738  17.067   2.436  15.175  0.3562  0.1141  0.1891
27215W        W44739  12.891  14.134  13.529  0.1077  0.1952  0.0188
27216W        W44740  10.234   5.889   1.044 -0.2717 -0.1429  0.1877
27217W        W44741   4.083   3.670   0.697  0.0907 -0.0263 -0.0275
27218W        W44742   5.165  11.727  14.960  0.1370  0.1875 -0.1379
27219W        W44743   4.087  11.467   2.435 -0.0454  0.1065 -0.0682
27220W        W44744  12.247   5.169  11.492  0.0143  0.2374  0.2003
27221W        W44745  12.596   9.440   0.921 -0.0877 -0.2650 -0.1538
27222W        W44746   8.046   0.801  12.857  0.2109  0.0440 -0.1144
27223W        W44747   6.897   4.923  12.156  0.3573 -0.0048 -0.2061
27224W        W44748  11.682  11.076  16.148  0.0418  0.0731 -0.1135
27225W        W44749   3.294   0.146   5.801 -0.1856 -0.2604 -0.1154
27226W        W44750  11.274  15.010   3.245 -0.0356  0.1856 -0.0274
27227W        W44751  14.075  10.614   0.014  0.1181  0.0092  0.1253
27228W        W44752   3.946  12.728   2.348 -0.1969 -0.3025  0.2393
27229W        W44753   7.491   8.588   1.608 -0.1046 -0.0243 -0.1956
27230W        W44754  17.372  12.357  12.426  0.0948 -0.0401 -0.0751
27231W        W44755   0.116   3.889   0.163  0.0675 -0.0684 -0.1169
27232W        W44756  15.400  12.420   3.416  0.1317 -0.2038  0.4134
27233W        W44757   5.509   7.208  13.276 -0.2160 -0.0212 -0.1367
27234W        W44758  12.803   3.524   2.763  0.4778  0.3392  0.0433
27235W        W44759   2.256   1.201   6.038  0.0549  0.3499 -0.0151
27236W        W44760   9.949   5.688   2.053 -0.0574 -0.0014  0.0098
27237W        W44761   3.491   9.917  13.625 -0.1694  0.0500  0.0413
27238W        W44762   5.645  17.766   1.229  0.0625 -0.3056 -0.2545
27239W        W44763  16.497   9.013   3.695 -0.0560 -0.0876 -0.0543
27240W        W44764  10.910   9.326   0.705 -0.2400  0.3433  0.1504
27241W        W44765   6.334   0.433  12.144  0.2074  0.1598  0.1011
27242W        W44766   6.644   1.922  13.299 -0.2816  0.1615 -0.0115
27243W        W44767  14.436  15.129   2.932  0.1305 -0.1538 -0.2142
27244W        W44768   7.500   9.978  16.196 -0.2307 -0.0007 -0.3940
27245W        W44769  14.601  15.884  15.845  0.3587  0.0244 -0.2430
27246W        W44770  10.526  12.925  12.890 -0.2244  0.3984 -0.0125
27247W        W44771   6.196   5.794  12.694  0.4639  0.0719  0.0941
27248W        W44772   7.703   8.992   2.650  0.1846 -0.1261 -0.2174
27249W        W44773   6.841  13.405   2.825 -0.1582 -0.0493  0.0032
27250W        W44774   7.524   7.183  16.331 -0.2489  0.3121  0.1735
27251W        W44775  16.513   7.268   4.350  0.0679 -0.2281 -0.2020
27252W        W44776   9.059  14.306   2.604 -0.6270 -0.0826 -0.1578
27253W        W44777   5.188   2.980   1.569  0.2184 -0.5113  0.2304
27254W        W44778   6.257   0.721  12.750 -0.0354 -0.1623 -0.0307
27255W        W44779  11.228   7.222   3.713 -0.1943  0.0991 -0.1322
27256W        W44780   7.798   1.189  12.713 -0.2918  0.2004 -0.0400
27257W        W44781   0.438  16.764  13.712  0.2709 -0.0846 -0.3376
27258W        W44782   3.296  15.235  12.052 -0.0965 -0.1918 -0.3917
27259W        W44783  14.940  15.212  13.239 -0.0278  0.0870 -0.0188
27260W        W44784  17.269  10.468  15.732  0.0134  0.1401 -0.0223
27261W        W44785   6.299  12.143  14.884 -0.4656  0.0423  0.0258
27262W        W44786  13.716  13.636  12.848  0.1501  0.1222  0.0773
27263W        W44787   2.182  17.418  13.861  0.0232  0.2376  0.1311
27264W        W44788   1.329   4.750  11.698 -0.2030  0.2018  0.0356
27265W        W44789   1.145  13.823  14.206 -0.2772 -0.0326 -0.0079
27266W        W44790   3.245   6.230  11.669 -0.4364  0.1841 -0.3118
27267W        W44791  13.094   0.336   3.763  0.2991  0.1639 -0.1929
27268W        W44792  12.266  10.823  12.263 -0.1534  0.0330 -0.0979
27269W        W44793  15.660  13.454  11.971 -0.2338 -0.2176 -0.2564
27270W        W44794  10.773  13.206  13.222  0.2075 -0.4335  0.1325
27271W        W44795   0.938  10.378  15.774 -0.1408 -0.0436  0.1767
27272W        W44796  13.350   8.431  13.885  0.4742  0.0618  0.0392
27273W        W44797  13.104   3.905   4.862 -0.0716 -0.1402 -0.0490
27274W        W44798  17.336   4.695  15.636  0.3449 -0.0867  0.0755
27275W        W44799   2.114  15.370  16.273 -0.0106  0.1034 -0.0784
27276W        W44800   0.053   3.179   1.634 -0.0898  0.0353  0.1586
27277W        W44801  13.572   6.837  15.885 -0.0524  0.0684  0.2148
27278W        W44802   5.361   0.071  15.685 -0.0662  0.3413 -0.3507
27279W        W44803   1.218  17.665  15.283 -0.0216  0.0216  0.0045
27280W        W44804  12.591  10.042   3.317  0.2120 -0.0919  0.2431
27281W        W44805  17.959   1.273   2.547 -0.2334 -0.1222 -0.0685
27282W        W44806  12.310  14.321   0.809 -0.0489  0.0100  0.0401
27283W        W44807  17.216  13.053   3.323  0.1036 -0.0528 -0.2064
27284W        W44808   3.650  12.221   2.104  0.0127 -0.1780 -0.1583
27285W        W44809   0.599  10.639   3.766  0.2609 -0.0964 -0.0416
27286W        W44810  12.675   6.270   3.584 -0.3507  0.2296  0.3587
27287W        W44811   6.544  15.743  15.492 -0.0490 -0.0967  0.2070
27288W        W44812   6.193  12.634  15.028  0.0897  0.1818 -0.0209
27289W        W44813  17.478   0.537   0.807 -0.2163  0.1712  0.0969
27290W        W44814   9.030   7.154  11.378  0.1538 -0.1001  0.1483
27291W        W44815  16.054   1.099  14.314  0.0130  0.0097  0.1662
27292W        W44816   1.811   1.120   5.119  0.1491  0.1027 -0.1634
27293W        W44817  16.383   3.794   0.261 -0.2064  0.0326 -0.1139
27294W        W44818  13.988   7.001   0.474 -0.0831  0.0901 -0.0891
27295W        W44819   8.367  17.896   2.849 -0.1229 -0.0107 -0.0404
27296W        W44820   5.832   1.612   0.409  0.0987  0.2367  0.0623
27297W        W44821   8.113  17.027  16.367 -0.1335 -0.0193 -0.0250
27298W        W44822  16.044   1.279  12.721  0.0994  0.0615  0.0178
27299W        W44823   4.308  12.913   2.639 -0.2254 -0.2648 -0.1501
27300W        W44824   1.999  14.880   4.338  0.2261 -0.2513  0.1078
27301W        W44825  11.522   7.046   4.257  0.0406 -0.1135 -0.0717
27302W        W44826   9.250  12.039   3.245  0.0015  0.1857  0.0443
27303W        W44827   0.781   7.569   0.556  0.1178  0.1532  0.2713
27304W        W44828  17.354  13.835   4.504  0.2625  0.0928 -0.2382
27305W        W44829  17.380   5.611  11.443 -0.0238 -0.1801  0.1028
27306W        W44830   6.805   4.791  13.458  0.1504 -0.1852  0.0757
27307W        W44831  10.459  16.303  13.086  0.0410 -0.1867 -0.1347
27308W        W44832  13.902   2.659  16.031  0.0398  0.2100 -0.3302
27309W        W44833   1.581   1.978   0.730  0.1994 -0.2011 -0.0448
27310W        W44834   0.655  10.243  13.542 -0.0145  0.2720  0.0462
27311W        W44835  13.940  16.719  14.801  0.0868 -0.1385  0.2331
27312W        W44836   0.347   9.248  16.062  0.4176  0.0669  0.0399
27313W        W44837   9.801  11.092  11.496 -0.0262 -0.2358  0.0923
27314W        W44838  15.265   0.700   4.331  0.0813 -0.2691 -0.0927
27315W        W44839  12.942  10.597  11.821 -0.0526 -0.0626 -0.4183
27316W        W44840   4.529   4.836   0.685  0.0833  0.0406 -0.1890
27317W        W44841   5.612  16.231  16.047 -0.0216  0.1428  0.4134
27318W        W44842   8.746  15.961   1.459 -0.2704  0.1349  0.2211
27319W        W44843   7.931   2.466   0.388 -0.0874  0.0383 -0.1173
27320W        W44844  15.580  10.449  12.205 -0.0597  0.1972 -0.1602
27321W        W44845  14.869   9.425  14.795  0.2742 -0.1293 -0.3342
27322W        W44846   3.324   1.426  12.615  0.1638  0.1164  0.0426
27323W        W44847   9.722   1.190   4.179 -0.0677  0.2426  0.1456
27324W        W44848   5.731   6.828   0.679 -0.1056  0.2684 -0.1100
27325W        W44849   7.994   0.234   1.222  0.0530 -0.2587  0.1681
27326W        W44850  16.644   7.275   3.119 -0.1430 -0.1958 -0.0194
27327W        W44851   0.688   7.926   3.506 -0.5110 -0.1517 -0.0666
27328W        W44852   5.094   1.356   1.418  0.3698 -0.0402  0.1104
27329W        W44853  16.161   8.920  14.315  0.0785 -0.1679  0.0639
27330W        W44854   0.311   1.847   1.742  0.0822 -0.1117 -0.3786
27331W        W44855  10.857  13.320  16.232  0.0043  0.4613  0.1159
27332W        W44856   9.581  15.917  16.386 -0.1773 -0.1269  0.0304
27333W        W44857  10.886   7.647   3.731  0.0491 -0.2254  0.0126
27334W        W44858  16.590  17.739   5.164 -0.1125  0.2434 -0.3111
27335W        W44859  15.338   1.134  16.329 -0.3105  0.3085 -0.0423
27336W        W44860  13.093  16.451   1.607 -0.1821  0.2338 -0.0525
27337W        W44861   5.401   7.389  15.055 -0.2396  0.1173 -0.2892
27338W        W44862   1.262  17.357   0.902  0.1300  0.3288  0.3150
27339W        W44863  13.554   5.383   4.090 -0.0428 -0.1305 -0.4622
27340W        W44864  17.139  16.627   4.937 -0.0847 -0.1133  0.0436
27341W        W44865  17.004   6.550  14.184 -0.2486  0.2221  0.0647
27342W        W44866   7.901   9.292   3.770 -0.1161  0.2638 -0.2539
27343W        W44867   1.071   7.008   0.894  0.1081  0.0933 -0.1688
27344W        W44868  14.919   0.767   1.745 -0.1660 -0.0043  0.3380
27345W        W44869   9.437  14.034  15.783  0.0283 -0.1546  0.0337
27346W        W44870  17.963   1.565  16.395 -0.0412  0.2447  0.1997
27347W        W44871   6.265  11.117   3.593 -0.1315 -0.0357 -0.0862
27348W        W44872  13.815   7.299   0.824 -0.0496 -0.0973 -0.0335
27349W        W44873  14.268  12.156  14.938 -0.2617 -0.1458  0.0208
27350W        W44874   8.312  12.071   3.253 -0.0332 -0.3351 -0.0819
27351W        W44875  15.056   3.871  11.901  0.0101 -0.0790 -0.0333
27352W        W44876   4.195  12.237   1.943  0.2435 -0.2433 -0.1165
27353W        W44877  11.847  14.107   3.327  0.0191 -0.0012 -0.0269
27354W        W44878   2.503  13.780   0.082 -0.2578  0.0345  0.1709
27355W        W44879   9.970   2.532   1.446 -0.0904 -0.1037  0.1216
27356W        W44880   8.581   9.643   2.359 -0.1093 -0.1121 -0.3918
27357W        W44881   7.332  13.393   3.944 -0.0013  0.0625 -0.1639
27358W        W44882   1.411   1.245   4.467 -0.0179  0.2040 -0.2367
27359W        W44883  15.250   4.857   0.662  0.0899 -0.1010  0.1335
27360W        W44884  15.548   9.911  12.228 -0.1111  0.2452 -0.0142
27361W        W44885  10.615  12.828   1.658  0.1300  0.0001 -0.1458
27362W        W44886   4.640  15.005  12.535  0.0222 -0.1876 -0.0209
27363W        W44887  17.422   9.943  11.938 -0.1701 -0.3585  0.1660
27364W        W44888   6.359   9.212   4.307 -0.0980  0.5144 -0.1732
27365W        W44889  12.650  15.046   0.362  0.2411 -0.1274 -0.0987
27366W        W44890  14.278   3.970  14.489  0.2704 -0.1485 -0.0018
27367W        W44891   6.899  12.528   2.240 -0.0378 -0.1417 -0.0943
27368W        W44892  16.484   4.017  14.396  0.1475 -0.0708 -0.1243
27369W        W44893   4.436   9.229  13.335 -0.1938  0.1519 -0.0151
27370W        W44894  14.952   6.261   1.292  0.0122 -0.1772  0.0998
27371W        W44895  17.772   3.133   0.507 -0.0159 -0.0488  0.2118
27372W        W44896   5.213  10.010  12.185  0.1521 -0.0391  0.2045
27373W        W44897  15.077   3.036   0.309 -0.3211 -0.1494 -0.4848
27374W        W44898  16.145   5.141  12.587 -0.1266  0.0789  0.1218
27375W        W44899  17.416   2.943  13.112  0.2140  0.1286  0.1852
27376W        W44900   0.635   0.983   0.078  0.1642 -0.0149 -0.2234
27377W        W44901   5.536   4.627   0.032  0.2018 -0.2052 -0.0598
27378W        W44902  17.282  11.547   3.048  0.0623  0.0921  0.1527
27379W        W44903  17.895   2.135   1.541  0.0562  0.2017 -0.1738
27380W        W44904   2.988   3.156  13.850  0.1924 -0.0043 -0.0902
27381W        W44905   1.493  13.437   3.039  0.1626 -0.3830 -0.0601
27382W        W44906  16.142  10.785  15.128 -0.0541 -0.1156 -0.2246
27383W        W44907  10.594   8.131  11.862 -0.2641  0.1107 -0.0027
27384W        W44908  10.914  10.196  12.091 -0.2282  0.0084  0.1295
27385W        W44909  15.649  14.294   4.282  0.1488  0.0764 -0.0989
27386W        W44910  10.195   0.723  10.387  0.4508  0.2859  0.3516
27387W        W44911   5.574   8.127  16.416  0.1002 -0.3320  0.3531
27388W        W44912   5.438   9.317   1.888 -0.2586  0.2382  0.0175
27389W        W44913  17.282  10.732  12.109 -0.4775  0.0755 -0.1164
27390W        W44914  17.886  11.841   3.678 -0.0244 -0.2627 -0.0766
27391W        W44915  10.014  11.742  15.009 -0.0310 -0.0887 -0.1415
27392W        W44916   3.355  13.113  13.630 -0.1223 -0.2763  0.0752
27393W        W44917   5.176   2.118   0.401 -0.1859 -0.0036 -0.0076
27394W        W44918   2.705   8.786   0.236 -0.0541  0.1780  0.0863
27395W        W44919   4.585   8.967   2.135  0.2477  0.1629 -0.2547
27396W        W44920   6.630   2.558   6.295 -0.1462 -0.1981 -0.0418
27397W        W44921  10.475  14.488   3.015 -0.1862 -0.2931  0.1493
27398W        W44922   8.695   6.772  11.206 -0.1054 -0.0227  0.2246
27399W        W44923   2.493  14.725   0.244  0.0432  0.3030  0.2715
27400W        W44924   2.270  17.625  12.573  0.1442 -0.3080 -0.2349
27401W        W44925   9.385   5.603   5.829 -0.0652  0.0477  0.1744
27402W        W44926  13.127  13.805  12.252  0.0448 -0.3244 -0.0072
27403W        W44927   5.271  16.960  12.726 -0.2039  0.1341  0.1700
27404W        W44928  13.422   8.087   4.679  0.1487  0.2055  0.6917
27405W        W44929  14.659  10.166  11.924  0.0674 -0.1757 -0.2125
27406W        W44930  11.194  14.266  12.378  0.2015 -0.1291 -0.2167
27407W        W44931  16.195   5.717  12.108 -0.0631 -0.0133  0.0606
27408W        W44932  14.006  17.572   5.716 -0.2383 -0.1216  0.0714
27409W        W44933  15.517   5.744  11.015  0.0237  0.2563 -0.0266
27410W        W44934   5.492   0.740   3.093 -0.1325  0.0977 -0.2009
27411W        W44935  14.565  17.126  15.054  0.2057  0.1428  0.3265
27412W        W44936   5.901  14.680  14.236 -0.0059 -0.3232  0.0489
27413W        W44937   7.890  12.804   2.126  0.0116  0.0969 -0.4194
27414W        W44938  15.808  17.201   5.133  0.1363  0.1442  0.1743
27415W        W44939   3.954   6.022  12.381 -0.1561 -0.0545  0.2820
27416W        W44940   3.183  15.362  14.922  0.0511  0.2908 -0.1010
27417W        W44941   0.749  12.468  14.718 -0.3462  0.1404  0.2819
27418W        W44942  10.145   9.003  13.166  0.1153 -0.0412  0.0110
27419W        W44943   3.568  12.396  14.886 -0.1392  0.0258 -0.3400
27420W        W44944  12.505   9.484  12.707  0.0798  0.3331 -0.1001
27421W        W44945  10.980  10.187   4.039  0.0123 -0.0957  0.2097
27422W        W44946  13.378   3.691   0.799 -0.0517  0.2644 -0.0749
27423W        W44947  12.967   5.409  13.224  0.1841 -0.2710  0.1205
27424W        W44948  17.766   6.175   3.285 -0.2645  0.0615  0.1275
27425W        W44949  11.445   4.384   4.460 -0.1901 -0.1116  0.2081
27426W        W44950  16.418  14.528   1.373  0.1062  0.1613  0.2905
27427W        W44951   1.519   0.137   0.553  0.0207 -0.3278  0.2916
27428W        W44952   2.883  10.777  14.945 -0.1593  0.2004 -0.1698
27429W        W44953   3.843   1.679   1.873 -0.0043  0.1767 -0.2841
27430W        W44954   7.549  13.003   4.414  0.1640  0.0583 -0.0823
27431W        W44955   2.828  14.948   0.953  0.0128 -0.1439  0.1564
27432W        W44956  13.917   5.834   4.601 -0.0551 -0.0099  0.0715
27433W        W44957  10.723   2.183   2.310  0.0663 -0.2120  0.0277
27434W        W44958   8.978   5.271  14.710  0.0984 -0.0729  0.2162
27435W        W44959  14.600   2.358  15.932  0.0938 -0.6448 -0.5240
27436W        W44960  12.179  13.714   4.516 -0.0104  0.2648  0.1206
27437W        W44961  14.009   5.744  15.502 -0.1658 -0.1729 -0.3860
27438W        W44962  17.227  10.492   3.045 -0.0539 -0.1870 -0.1847
27439W        W44963   4.261   3.760  15.882 -0.1688  0.1902 -0.0781
27440W        W44964  17.029   8.716   2.241  0.1008  0.0140 -0.3964
27441W        W44965  14.781   2.670  11.101 -0.2697 -0.0882 -0.0063
27442W        W44966   4.044   8.664  14.923  0.1647  0.1010  0.1813
27443W        W44967  11.399  13.540  16.353 -0.1733 -0.0861 -0.0368
27444W        W44968   5.861   6.250   2.892  0.2562  0.0012  0.1074
27445W        W44969   3.095   6.321  12.531 -0.3788  0.0752 -0.3517
27446W        W44970  15.041  17.345   1.210  0.0143 -0.1720  0.0786
27447W        W44971   1.164   6.137   4.209  0.0645  0.0294  0.0278
27448W        W44972   0.910  17.574   0.484 -0.0912  0.1627 -0.1694
27449W        W44973   5.757   4.734  12.766 -0.2673 -0.0939 -0.0495
27450W        W44974   1.533  13.533  12.910  0.1662  0.1068 -0.3008
27451W        W44975  16.697   7.732  12.144  0.0410  0.2054  0.2949
27452W        W44976   4.662   0.572   0.625  0.1209 -0.1945 -0.2373
27453W        W44977  17.482  10.556  14.292  0.5976 -0.3247 -0.0909
27454W        W44978   0.822   6.254   0.201  0.1747  0.0485  0.0844
27455W        W44979  11.815   8.067   4.530 -0.1964 -0.0121 -0.1212
27456W        W44980   5.883   8.313   5.398 -0.2299 -0.0379  0.2082
27457W        W44981   3.486   3.011   1.950 -0.0740  0.3098 -0.2562
27458W        W44982   6.216   9.255  16.040 -0.2522  0.2243 -0.0377
27459W        W44983   5.151  12.002   1.787 -0.0195 -0.2051 -0.3518
27460W        W44984   2.683   3.475  11.561  0.1888  0.0553 -0.0947
27461W        W44985   3.958   6.414   0.052 -0.1517 -0.0319  0.2878
27462W        W44986   7.036   8.400   1.350  0.4200 -0.1598  0.0667
27463W        W44987  12.162  17.453   2.273  0.2923  0.0259  0.3750
27464W        W44988   7.913  14.562  14.015  0.2173  0.1781  0.0430
27465W        W44989   3.347  14.119  12.538 -0.0299  0.1108 -0.2119
27466W        W44990   0.777  13.113   1.232  0.0203  0.0641  0.1165
27467W        W44991  13.645  15.226  14.305  0.0905  0.0786 -0.1862
27468W        W44992   0.289  12.688  15.859  0.2655  0.0757  0.0549
27469W        W44993   6.952   0.038  14.647 -0.1937  0.2232  0.1088
27470W        W44994  14.725   9.853   0.889 -0.1523 -0.1750 -0.2333
27471W        W44995   0.577   7.148   0.774  0.2102  0.1083 -0.1240
27472W        W44996   1.665  10.703   4.657  0.0564  0.2662  0.3244
27473W        W44997  15.946   3.663  15.007 -0.2150 -0.3305 -0.2627
27474W        W44998  13.201  15.779  12.954  0.2013 -0.0629  0.1334
27475W        W44999  13.280   9.330  13.852  0.4462  0.2962  0.0872
27476W        W45000   4.843   8.548  14.258 -0.3098 -0.1492 -0.3964
27477W        W45001  10.396  15.613   4.870  0.0853  0.1816 -0.1575
27478W        W45002   6.136  10.571   2.837 -0.0411 -0.1879  0.0098
27479W        W45003   4.252  14.126   6.144 -0.0797 -0.3192 -0.2996
27480W        W45004  17.902  14.896  12.540 -0.0513  0.0942 -0.1297
27481W        W45005  15.545  17.219   3.842  0.0510 -0.0131 -0.1535
27482W        W45006  14.631  14.653   3.154 -0.2058 -0.1059  0.1606
27483W        W45007  10.809   4.111   4.908 -0.0809  0.0138 -0.0769
27484W        W45008  16.585  15.094   2.865  0.0927  0.1301 -0.1816
27485W        W45009   6.281  11.684  11.526  0.0881  0.1319 -0.3929
27486W        W45010   4.873   5.005  15.311 -0.3831 -0.0119  0.3039
27487W        W45011  12.016   2.411  11.384  0.0269 -0.1791  0.3357
27488W        W45012   2.490  11.574  12.338  0.1057 -0.4156 -0.0759
27489W        W45013  10.585   4.353   1.306  0.0901 -0.2630 -0.1162
27490W        W45014   5.228  13.778  12.415 -0.0830 -0.0213  0.2193
27491W        W45015  14.346   0.718  14.668 -0.1832  0.2521 -0.1290
27492W        W45016   1.083   0.998   0.344  0.0056 -0.1048 -0.1594
27493W        W45017  14.978   7.341   1.318 -0.0386 -0.2175  0.2549
27494W        W45018   5.189  10.115   2.570 -0.1532 -0.1098  0.3363
27495W        W45019   2.338  11.871   0.663 -0.3391  0.0630  0.0026
27496W        W45020   7.413   8.411  15.447 -0.0453  0.3077 -0.0428
27497W        W45021  11.429   6.189   2.675 -0.1136 -0.2509  0.2976
27498W        W45022  14.374  17.229  12.333 -0.2401  0.0321  0.2664
27499W        W45023  15.336   2.459   1.913  0.1639  0.1492  0.2912
27500W        W45024  15.924  12.554   1.665 -0.0828 -0.1750  0.0604
27501W        W45025  11.679  17.162  15.150  0.0925 -0.3488 -0.0779
27502W        W45026   2.677   9.183   0.722 -0.4177  0.0541  0.0885
27503W        W45027   8.802  11.419   3.429 -0.0066  0.2826 -0.1486
27504W        W45028   6.132   7.961   0.140 -0.2297  0.1744  0.3017
27505W        W45029  11.878  10.180  14.869  0.3346  0.0793 -0.2383
27506W        W45030  16.868   5.610  11.331 -0.0246 -0.0790  0.2411
27507W        W45031   3.789  16.453  15.759  0.0946  0.2400 -0.1117
27508W        W45032   6.750  14.419   1.918  0.0081 -0.3130 -0.0191
27509W        W45033   8.629  13.845  14.826 -0.1703  0.1256  0.1268
27510W        W45034   8.381  11.537  16.426  0.0153 -0.0966 -0.0870
27511W        W45035   2.807   7.282  16.012 -0.3100 -0.3007 -0.4141
27512W        W45036  10.758  13.704   2.801 -0.1101  0.0365 -0.0408
27513W        W45037   2.033   9.126  16.401 -0.4905  0.4284 -0.3358
27514W        W45038   7.985   6.919   3.405 -0.0466 -0.3376 -0.1186
27515W        W45039  14.425   7.987   0.616 -0.0771  0.4018  0.1465
27516W        W45040  14.869  11.076   2.830  0.1705  0.1324  0.0789
27517W        W45041   2.220   1.246  13.360  0.2733 -0.1255 -0.0515
27518W        W45042   9.063   1.910  11.365 -0.0192 -0.1578 -0.1851
27519W        W45043  15.737   5.492   4.897  0.3021  0.1103  0.2873
27520W        W45044  11.565  12.835   0.324  0.0323 -0.1356 -0.1090
27521W        W45045   3.850  11.830   4.565  0.1791 -0.1635 -0.1814
27522W        W45046   0.425  13.613   4.342 -0.0943 -0.0397 -0.0203
27523W        W45047  15.102  16.525   0.083 -0.3196  0.1282  0.0925
27524W        W45048  17.201   3.489  12.826 -0.0991 -0.2395  0.2486
27525W        W45049  13.327   2.970   3.542  0.0649  0.0043 -0.2158
27526W        W45050   1.698   1.996  16.166 -0.0216 -0.0890 -0.0537
27527W        W45051   4.678   3.191  13.056 -0.3490  0.0373 -0.0595
27528W        W45052  13.786  17.208   2.155 -0.3559  0.1235 -0.0308
27529W        W45053  11.986  13.822   2.875  0.2809 -0.0099 -0.0084
27530W        W45054   0.262   1.379   1.476 -0.2381 -0.0356 -0.0138
27531W        W45055  13.691   7.240   2.496 -0.0492 -0.2046 -0.0994
27532W        W45056   2.099   0.809  15.311 -0.2831  0.0666 -0.1274
27533W        W45057   7.114   4.633   3.504  0.1521 -0.0851  0.0832
27534W        W45058  14.560  14.914   1.031 -0.1284  0.0533  0.0928
27535W        W45059   0.103   8.943  16.318  0.1094  0.1135 -0.0503
27536W        W45060  13.355   4.364  14.915 -0.1331 -0.0677 -0.0545
27537W        W45061   0.784   8.141  10.308 -0.2322 -0.1968  0.0284
27538W        W45062   7.520   6.809   3.840 -0.1507 -0.3088 -0.2455
27539W        W45063   8.359   9.540   2.904 -0.0634 -0.1808 -0.2616
27540W        W45064   0.763  16.672   3.163 -0.0815  0.1687 -0.0721
27541W        W45065  12.795   7.465  11.868  0.0271  0.2205  0.2557
27542W        W45066  17.189  15.811   3.962 -0.2999  0.0555  0.0610
27543W        W45067   8.421  17.804   3.337  0.0186  0.2802 -0.0502
27544W        W45068  12.236   1.810   0.349  0.3005 -0.4513  0.0480
27545W        W45069  11.656   7.510  15.192 -0.3055  0.0195 -0.0311
27546W        W45070  16.335   3.157  14.227  0.1229  0.2318  0.2268
27547W        W45071  16.279   4.789   0.620 -0.3091 -0.2992  0.1073
27548W        W45072   3.193   0.703  14.272 -0.4076 -0.2801 -0.0700
27549W        W45073   7.580   0.119   3.221  0.2817 -0.0850  0.0187
27550W        W45074  10.025   8.511  13.546  0.0610  0.2700  0.0769
27551W        W45075   3.730   6.356  13.631  0.1783  0.0293  0.0236
27552W        W45076   1.829  15.374   4.078  0.0831  0.2430  0.0061
27553W        W45077   2.524  16.036  15.687 -0.0711  0.4205  0.1280
27554W        W45078  13.444   3.481   1.540 -0.1458  0.1463 -0.0944
27555W        W45079   4.199  14.557   1.345  0.4725 -0.1058 -0.0560
27556W        W45080   0.118   8.300   1.659  0.1660 -0.0066 -0.4756
27557W        W45081  15.061   6.269   3.805  0.2054 -0.0204 -0.3538
27558W        W45082   8.982  13.029   4.127  0.0190  0.0557 -0.3200
27559W        W45083  15.882   8.561  11.261 -0.1583  0.0874  0.0976
27560W        W45084  11.508   1.133  16.049  0.1740  0.2038  0.0070
27561W        W45085  14.897   7.130   0.580 -0.2059 -0.1080  0.0997
27562W        W45086   1.755   8.636   2.821  0.1088  0.0283  0.3404
27563W        W45087   0.063  13.515  13.802 -0.0730  0.0623  0.0191
27564W        W45088   8.993   4.126   1.057 -0.1903 -0.0099  0.1496
27565W        W45089  12.900   6.161   0.838 -0.3806 -0.0232 -0.0318
27566W        W45090   8.647  11.978  11.947 -0.1516 -0.1330 -0.1372
27567W        W45091  11.286   7.974  14.930 -0.1553  0.1585  0.2313
27568W        W45092   6.177  16.561  14.283  0.0847  0.1626 -0.1779
27569W        W45093   4.392  13.604   0.789  0.1617 -0.5095 -0.0912
27570W        W45094   8.976   3.214  11.157 -0.0001  0.1221  0.2671
27571W        W45095   9.262   0.473  14.151  0.2034  0.0572 -0.2342
27572W        W45096   6.842   6.418   4.023 -0.0043  0.3283 -0.0480
27573W        W45097   8.572   8.571  15.696 -0.0187  0.0319  0.1203
27574W        W45098  13.869   2.004   3.752  0.2058 -0.2941  0.2130
27575W        W45099   4.468   6.584   1.109 -0.0117 -0.3991 -0.0002
27576W        W45100   9.085   4.255  11.108  0.0145  0.0085 -0.1858
27577W        W45101   8.128  13.958   6.278 -0.0193 -0.1130  0.0275
27578W        W45102  14.112  14.432  12.711  0.0928 -0.1994  0.2354
27579W        W45103   9.163  16.164  14.729  0.1695  0.0882  0.0596
27580W        W45104   6.176  10.464  16.328  0.1778  0.0468  0.1193
27581W        W45105  11.821  15.307  16.121 -0.1949  0.1765 -0.1799
27582W        W45106  17.437   4.721  11.436 -0.0373 -0.0029 -0.0126
27583W        W45107   5.128  10.894  13.841  0.2306 -0.2268 -0.2109
27584W        W45108  13.950  12.504   0.090  0.0525 -0.1078  0.0629
27585W        W45109   1.890  10.173  15.492 -0.0614  0.0160  0.1481
27586W        W45110   5.311  14.642  13.312  0.0725  0.1897 -0.0581
27587W        W45111   5.410  17.353  13.623  0.0760  0.1497 -0.0415
27588W        W45112  15.533   5.622  15.139  0.3166 -0.1508 -0.4051
27589W        W45113  14.076  10.714  11.488 -0.1857  0.1902 -0.1939
27590W        W45114   1.119   7.637  11.425 -0.0637 -0.0872  0.0082
27591W        W45115   9.341   3.820   0.230 -0.1165  0.1195  0.3048
27592W        W45116  13.657  13.102  12.677 -0.0504  0.2000  0.3049
27593W        W45117   2.118   2.675  11.342 -0.1357  0.5019 -0.0300
27594W        W45118   9.952   0.998  15.937  0.3299  0.0248 -0.0296
27595W        W45119   2.286   3.419  12.374 -0.0147 -0.2317 -0.0307
27596W        W45120  15.579  13.963  12.791  0.0156 -0.0130 -0.4313
27597W        W45121  14.081  14.333   1.569 -0.0060 -0.5037  0.4649
27598W        W45122  17.946  15.106   2.140  0.0785  0.0028 -0.2247
27599W        W45123  16.699  14.290  13.267  0.3615 -0.1340 -0.1463
27600W        W45124  16.380  14.349  13.675  0.0730  0.1907 -0.0801
27601W        W45125   9.382  11.616   2.910 -0.1146 -0.1995 -0.2424
27602W        W45126  12.694  15.525   0.203 -0.2195  0.1286  0.1164
27603W        W45127   1.650  15.572   5.469  0.0355  0.1622 -0.0760
27604W        W45128   4.369  16.439  12.527  0.0201 -0.1850 -0.0689
27605W        W45129   4.204   6.064  14.533  0.2516 -0.0694  0.0831
27606W        W45130   4.072  11.887   2.871 -0.0500 -0.2640  0.0437
27607W        W45131   4.468   1.359   0.727 -0.1936 -0.0636 -0.2296
27608W        W45132  12.788  14.276  14.298 -0.3358 -0.0894  0.4947
27609W        W45133  13.086  12.598  11.986  0.0363  0.0467  0.1221
27610W        W45134  14.059  15.261  15.627  0.0834 -0.1809 -0.3060
27611W        W45135   8.807  14.677  14.337  0.2336 -0.1140  0.3953
27612W        W45136   0.278   4.802   4.967 -0.0040  0.0969 -0.1219
27613W        W45137   3.645  11.063   1.313  0.0951  0.0812  0.2078
27614W        W45138  13.409  11.390   0.610 -0.2011  0.0674  0.2655
27615W        W45139  15.656  13.248  13.582  0.0829  0.2454  0.1425
27616W        W45140   9.294  15.681  14.559 -0.2215 -0.0315 -0.2212
27617W        W45141   8.102  17.552  10.565 -0.0809 -0.0578  0.2933
27618W        W45142   6.328   3.162  13.028 -0.1297 -0.0105  0.0439
27619W        W45143   0.827  16.205   1.352  0.1670 -0.2042 -0.2660
27620W        W45144  16.602   7.917  11.131  0.0328 -0.1124  0.1464
27621W        W45145  10.180  11.415   4.298 -0.2716  0.1186 -0.4010
27622W        W45146  11.459  10.420   3.991 -0.2783 -0.1683 -0.0888
27623W        W45147  13.101  16.501  14.176  0.1913  0.2950 -0.0928
27624W        W45148   3.199   8.764  13.164  0.2741 -0.1502  0.2795
27625W        W45149  16.080  15.343  12.501  0.0425  0.1083  0.0471
27626W        W45150   5.279  13.853   1.480  0.2193  0.1513  0.2490
27627W        W45151   6.698   5.003   3.861 -0.3071 -0.0092  0.3431
27628W        W45152  17.798   2.232  14.584 -0.0242 -0.0606 -0.0818
27629W        W45153   3.225  12.361  16.003  0.0591  0.0711  0.1969
27630W        W45154  17.464  12.000   4.343 -0.0198  0.1440  0.1561
27631W        W45155  17.551   3.392   5.445  0.0870 -0.1633 -0.2376
27632W        W45156  16.145  13.421   0.367  0.2487 -0.3709  0.2775
27633W        W45157   1.121  15.392  16.301  0.1034 -0.1158 -0.0040
27634W        W45158  10.352  11.835   4.010  0.1650 -0.0483  0.2577
27635W        W45159   4.432   3.460  13.359  0.1033  0.0650  0.0179
27636W        W45160  16.023  14.481  15.212  0.3602  0.0815 -0.4252
27637W        W45161   4.603   1.225   2.467 -0.2829  0.0498 -0.0339
27638W        W45162  14.225   8.908   4.039 -0.1149  0.1673 -0.0441
27639W        W45163  15.811   7.678   0.535  0.2075  0.1022  0.0421
27640W        W45164  10.124   4.033   0.329  0.1766 -0.2444 -0.2074
27641W        W45165   0.252   6.038   1.656  0.1053  0.1709  0.1091
27642W        W45166  14.673   3.988  14.166 -0.1619 -0.1239 -0.2058
27643W        W45167   0.494   1.588   5.489 -0.0747 -0.1396  0.0246
27644W        W45168  17.428  16.172   1.211 -0.0363 -0.0502 -0.1695
27645W        W45169   5.907  16.830   2.629 -0.3322 -0.2766  0.0056
27646W        W45170  16.312   9.182   0.450  0.1658  0.0914  0.0190
27647W        W45171   7.689   4.703  15.274 -0.0945  0.0157  0.0711
27648W        W45172  12.331   0.569  14.586 -0.0185 -0.0247 -0.2022
27649W        W45173  16.038  16.119   4.972 -0.0951  0.3912  0.0276
27650W        W45174  10.476  17.037   3.434  0.5143 -0.1097  0.1748
27651W        W45175   9.984  11.826  12.682  0.1433 -0.1103 -0.1505
27652W        W45176   5.858   3.356  15.799 -0.2613  0.0408 -0.3176
27653W        W45177   9.039  12.405   2.262 -0.1424 -0.1770  0.2310
27654W        W45178   1.923   3.315   3.154 -0.1555 -0.0050 -0.2647
27655W        W45179  10.353   8.859  15.794  0.0190  0.0302 -0.1208
27656W        W45180   5.603   2.950   5.235  0.1898 -0.0392  0.1415
27657W        W45181  16.842   8.155   2.332  0.0245 -0.2492 -0.1100
27658W        W45182   3.946  14.752   3.480 -0.0447 -0.1363  0.1346
27659W        W45183   7.894   2.654  15.547 -0.0260 -0.4057 -0.0050
27660W        W45184   1.020   2.779   1.033 -0.1362  0.3469  0.0196
27661W        W45185   8.219   0.024  14.756 -0.2987  0.1022  0.1543
27662W        W45186  13.160   3.701  16.274 -0.0691 -0.1253  0.0122
27663W        W45187   8.571  17.459   2.787  0.2616  0.1818 -0.0749
27664W        W45188   7.996  10.577   2.957  0.0700 -0.2321  0.0537
27665W        W45189  15.353  12.265  11.763  0.2036 -0.0666 -0.0804
27666W        W45190  17.027  17.503   5.177  0.3175 -0.3061  0.2534
27667W        W45191  15.435   6.637  11.613  0.0835 -0.0870 -0.0845
27668W        W45192  11.363   9.534   2.744 -0.2056 -0.0396  0.3843
27669W        W45193  17.374  17.736   4.620  0.0821  0.3043  0.1969
27670W        W45194   5.924  16.006   2.003 -0.1091  0.2148  0.0609
27671W        W45195  17.176  15.945  14.014  0.1966  0.2467 -0.1809
27672W        W45196   9.970   9.872   2.990  0.1006  0.0873 -0.2633
27673W        W45197   9.219   4.839  15.700  0.2412 -0.4643  0.1545
27674W        W45198   7.694   2.009   1.115  0.0933  0.3835  0.1143
27675W        W45199  14.053  17.191   4.495  0.2065 -0.1739  0.1450
27676W        W45200   6.075   2.538   0.425 -0.2124 -0.4047 -0.0037
27677W        W45201  10.344  15.065   2.969  0.2668 -0.3035 -0.1810
27678W        W45202  10.502   6.915   2.069 -0.0254 -0.5111 -0.3988
27679W        W45203   7.268  13.813  13.100 -0.0781 -0.1556  0.1028
27680W        W45204   6.582   8.428  13.183 -0.3045 -0.1917 -0.0064
27681W        W45205  17.878   2.352   2.908  0.0031 -0.2008 -0.0013
27682W        W45206   8.331   3.092   5.205 -0.2092 -0.0023 -0.0861
27683W        W45207   1.288   8.717  13.634  0.1083 -0.0638 -0.0613
27684W        W45208   0.997   4.668   4.465 -0.1904  0.1594  0.0368
27685W        W45209   7.059  13.988  12.469 -0.4117 -0.2350  0.3409
27686W        W45210  12.811   5.942   4.878  0.2977  0.2130  0.0766
27687W        W45211  10.054   6.837  14.802  0.0797 -0.0443  0.0157
27688W        W45212  11.634   3.105  15.280  0.1230 -0.0112 -0.1176
27689W        W45213   9.805   6.462   5.508 -0.0362  0.2609  0.0634
27690W        W45214  13.000   2.837  13.802 -0.2377  0.0074 -0.0583
27691W        W45215   8.420  16.231  14.198 -0.0117 -0.0014  0.1469
27692W        W45216  10.987  10.972   2.781  0.0957 -0.4928  0.0428
27693W        W45217   6.974   3.617  12.012 -0.1373 -0.3535 -0.2606
27694W        W45218   4.902  12.784   0.585 -0.0550  0.1431 -0.1006
27695W        W45219  15.348   3.464   3.661 -0.0829 -0.0348 -0.1843
27696W        W45220   6.594   5.280  15.251  0.2449  0.0019  0.1153
27697W        W45221  10.482   5.074   2.393  0.0617 -0.3076 -0.0239
27698W        W45222   9.477  14.673  14.096  0.0516 -0.0751 -0.1985
27699W        W45223   1.223   1.897  14.162 -0.2045  0.0909 -0.1697
27700W        W45224  10.018   9.021   0.212 -0.1870 -0.0753  0.3051
27701W        W45225   7.894   9.037   2.125 -0.1604 -0.0130 -0.2385
27702W        W45226   1.575   8.414  13.264  0.1581  0.0276 -0.0187
27703W        W45227  11.388   9.891  13.791  0.1649  0.0829 -0.2135
27704W        W45228   5.332   7.768  15.427 -0.0271 -0.2068  0.0768
27705W        W45229  13.017  17.150  15.531  0.1784  0.1149 -0.2201
27706W        W45230  14.844   0.494   4.177 -0.0574 -0.0741 -0.1475
27707W        W45231  16.950   8.073   0.794  0.0063 -0.3499  0.3953
27708W        W45232  10.014  12.050   3.121 -0.1992 -0.0842  0.2851
27709W        W45233   7.012  16.306  13.434 -0.1243 -0.2529 -0.4871
27710W        W45234  17.106  11.300   4.141  0.0552 -0.3221  0.2626
27711W        W45235   8.801   5.961  14.660  0.0319  0.2420 -0.2251
27712W        W45236  16.149   0.512  13.658  0.1433  0.0957  0.1122
27713W        W45237  12.571   8.029  13.285  0.5483 -0.1828  0.0140
27714W        W45238   2.151   4.519  14.974  0.1014  0.0157  0.1844
27715W        W45239   9.504   7.991  11.836  0.0046 -0.1156  0.1103
27716W        W45240   0.226  13.555   0.994 -0.0510  0.0856 -0.0584
27717W        W45241  17.119  11.973  15.697 -0.2614  0.0375 -0.1864
27718W        W45242  13.675  12.313  15.009  0.2964  0.0760  0.0222
27719W        W45243  16.716   5.084  12.676 -0.0810  0.2093  0.0030
27720W        W45244   6.242   0.328  13.374  0.1439  0.0624 -0.3454
27721W        W45245  12.565  15.739   4.748  0.0239 -0.0624 -0.1485
27722W        W45246   5.829   7.554  14.699 -0.1381  0.2039  0.1355
27723W        W45247   6.832  11.013   0.866 -0.1678 -0.3787  0.4452
27724W        W45248   1.684  13.208  11.401 -0.1809 -0.3029 -0.1326
27725W        W45249   0.085   3.666   6.243  0.2987 -0.2494 -0.1355
27726W        W45250  15.031   7.517  13.330 -0.2618 -0.1546  0.1418
27727W        W45251  15.144  13.819   4.823  0.1163 -0.0793  0.0103
27728W        W45252   6.396   1.508   3.007  0.4765 -0.0348 -0.1119
27729W        W45253  13.981   4.938   0.724 -0.2472  0.0562 -0.1610
27730W        W45254  11.411  13.835  12.549  0.3798 -0.2477 -0.1278
27731W        W45255   9.386  13.166   5.041 -0.1031  0.0436  0.1260
27732W        W45256  12.498  10.184   3.807 -0.0513 -0.1359  0.5069
27733W        W45257  11.248   2.852  15.065 -0.1961  0.2923  0.2409
27734W        W45258   7.092   8.155   2.521  0.1202 -0.1192 -0.0203
27735W        W45259   6.002  14.937   5.299  0.2595  0.3375 -0.2874
27736W        W45260   5.781   7.667   0.830  0.0583 -0.1076 -0.1355
27737W        W45261   9.503   3.349   4.953  0.2594  0.1633 -0.0094
27738W        W45262  14.641  14.124  14.187 -0.1636  0.0206  0.1040
27739W        W45263  13.137   9.910   2.793 -0.0354  0.0289  0.2413
27740W        W45264   6.716  14.756  16.106 -0.3204 -0.2000 -0.1434
27741W        W45265   2.307   0.450  14.003 -0.1129 -0.0892  0.0563
27742W        W45266  11.184  16.355  11.569 -0.0198 -0.1974 -0.3041
27743W        W45267   6.947  11.564  14.927 -0.3621  0.0338 -0.1056
27744W        W45268  10.032   0.125   0.862  0.0663  0.0073 -0.0101
27745W        W45269   8.366   5.917  11.143  0.1435 -0.0827  0.1297
27746W        W45270  13.371  10.419  11.927  0.3746 -0.0573  0.1188
27747W        W45271   4.451   6.786   2.087 -0.1788  0.1535  0.1922
27748W        W45272  13.432  16.586  12.962 -0.0479 -0.2318  0.0202
27749W        W45273   3.471   0.780  16.238  0.1625 -0.0541  0.0511
27750W        W45274   8.328  15.830   1.717 -0.0508 -0.1226  0.1822
27751W        W45275   0.987  11.990  13.670 -0.1504  0.0193 -0.1053
27752W        W45276   0.848   5.610  14.349 -0.1862  0.0764  0.0565
27753W        W45277  12.361   1.493   4.453  0.1251  0.1194  0.1784
27754W        W45278  15.187  10.837   2.520  0.2067  0.2075 -0.2292
27755W        W45279  11.866   8.789  12.003  0.4054  0.1941 -0.0657
27756W        W45280  14.852   4.842   0.949 -0.4268 -0.0958  0.2896
27757W        W45281   1.705   3.314  15.892  0.1514 -0.1078 -0.0647
27758W        W45282   9.975   9.641  15.478  0.0585  0.2829  0.0364
27759W        W45283  11.600   5.907   2.207  0.1056  0.0480 -0.0579
27760W        W45284   9.354   8.721  12.034 -0.0306  0.0641 -0.2631
27761W        W45285  10.233  17.677   2.230  0.1917 -0.1455 -0.0107
27762W        W45286   4.243   5.349   4.111 -0.1789 -0.0136 -0.1230
27763W        W45287   8.571  13.730  15.669  0.4416  0.0515 -0.4573
27764W        W45288   3.864   0.772  14.487  0.0834  0.3310 -0.0603
27765W        W45289   7.093   0.414   1.036 -0.2659 -0.0337  0.0968
27766W        W45290   0.748   7.330   3.604  0.0830 -0.2785  0.3224
27767W        W45291  16.500   9.128  12.276 -0.0367 -0.0730 -0.1636
27768W        W45292   3.993  17.646  10.890 -0.0430  0.1753 -0.2331
27769W        W45293  10.688  13.901  14.124 -0.4008 -0.2024 -0.2711
27770W        W45294   1.711  12.616  15.244  0.0569  0.0004 -0.0372
27771W        W45295   5.408  13.946  12.040 -0.3182  0.2719 -0.3142
27772W        W45296   9.212   2.005  14.053  0.0076 -0.0701  0.1303
27773W        W45297  10.825  14.468   3.812 -0.4144 -0.2256 -0.2128
27774W        W45298  14.087  17.588  12.059 -0.0183  0.0813  0.1093
27775W        W45299   0.187   2.480  16.038 -0.0974  0.1338  0.1310
27776W        W45300  14.632   0.543  13.504  0.3402 -0.0040 -0.1506
27777W        W45301   6.671  14.648  11.740 -0.1755 -0.0954  0.1042
27778W        W45302   0.429  17.084   1.685 -0.2294  0.0765  0.0147
27779W        W45303   8.245   6.537  16.464  0.0237 -0.0193  0.2182
27780W        W45304   6.704   4.916  12.644 -0.1076  0.0268  0.0463
27781W        W45305  10.905   7.044  15.109  0.2571 -0.1389 -0.1467
27782W        W45306   9.202  15.568   1.505  0.1468 -0.0468  0.1410
27783W        W45307  10.079  14.730  14.188 -0.2088  0.1751 -0.1989
27784W        W45308   2.405  16.037   1.633 -0.0785 -0.3604  0.0906
27785W        W45309   9.144  12.057  12.116  0.2756 -0.0399 -0.1602
27786W        W45310   3.950  17.797  15.998 -0.0505  0.3880 -0.0188
27787W        W45311   3.815   1.618  12.730 -0.1103 -0.1133 -0.3163
27788W        W45312  14.552   2.609  12.458  0.0815 -0.0312  0.2096
27789W        W45313   0.057  12.180  11.396 -0.0846  0.0795  0.3986
27790W        W45314  10.733  17.808  16.161 -0.2150 -0.1487  0.1182
27791W        W45315  15.126   8.845  15.565  0.1239  0.0438 -0.0872
27792W        W45316   6.351  16.476  14.726  0.1819  0.2003  0.0516
27793W        W45317  11.350   3.834   3.572  0.0080 -0.1645 -0.1273
27794W        W45318   3.975   2.280   3.699 -0.1106  0.2585  0.0304
27795W        W45319  13.845  11.738   1.287 -0.2468 -0.1260 -0.0432
27796W        W45320  13.120   9.178  14.375 -0.0704 -0.0896 -0.2134
27797W        W45321   7.613   0.363   2.794  0.1961 -0.1534  0.1226
27798W        W45322   9.967   0.428  13.149  0.0015  0.0328 -0.2085
27799W        W45323   6.995  10.624   3.184 -0.2094  0.2084  0.2874
27800W        W45324   1.911   4.487  10.963 -0.1195 -0.1302 -0.2220
27801W        W45325  13.286   7.390  11.993  0.1707 -0.0195 -0.0482
27802W        W45326   8.079  10.115  13.779  0.2850  0.0077 -0.1026
27803W        W45327  16.013   8.187   4.953  0.0770 -0.0496  0.1947
27804W        W45328   9.977  11.975  16.356  0.3143  0.0598  0.1447
27805W        W45329  16.828   8.122  13.126  0.1060 -0.0051  0.1362
27806W        W45330   7.304  17.438  13.599  0.1201 -0.0450 -0.2212
27807W        W45331   1.795   6.784   1.926 -0.3259 -0.2197  0.0780
27808W        W45332  14.675   5.401   5.563 -0.0626 -0.0498  0.0068
27809W        W45333   5.345  13.740   3.423 -0.3184  0.3967  0.1118
27810W        W45334  17.972   0.496   0.777 -0.0386  0.3042 -0.1210
27811W        W45335   9.319   6.929  12.715 -0.2418 -0.0314  0.1321
27812W        W45336  12.557   2.543   4.152 -0.2162  0.0765  0.0174
27813W        W45337  14.130  10.124   2.126  0.0093 -0.2494 -0.3952
27814W        W45338   3.027   7.421  12.835 -0.1013 -0.1913  0.0273
27815W        W45339   1.409  14.788  12.991  0.0044  0.1638 -0.1399
27816W        W45340  16.533  12.005   0.547  0.0377  0.1090  0.1052
27817W        W45341   2.095  10.175   0.858 -0.2474  0.1919 -0.1928
27818W        W45342  10.296   6.508   1.931 -0.1443  0.2153  0.1270
27819W        W45343   3.161  10.388   1.793 -0.0262 -0.1221 -0.1092
27820W        W45344   8.658  15.529   5.051  0.1343  0.2991  0.1054
27821W        W45345   3.539   8.925  15.677 -0.0191  0.0797  0.1863
27822W        W45346  14.948   4.315  13.335  0.2095 -0.1787  0.3114
27823W        W45347   0.289   9.993   2.570 -0.2542  0.0475 -0.0071
27824W        W45348   0.678   6.123  16.038  0.2179 -0.0007 -0.1485
27825W        W45349   8.515   4.896   5.975 -0.2131  0.0794 -0.1964
27826W        W45350  11.741  15.479  13.312 -0.2168  0.1018 -0.1602
27827W        W45351  17.462  15.295   3.284  0.1544  0.0140 -0.0245
27828W        W45352  16.405   9.750  11.224  0.1590 -0.1590  0.3046
27829W        W45353  14.095   8.590  11.691  0.0266 -0.0886 -0.2678
27830W        W45354   4.488   3.352  11.750  0.3285 -0.2276  0.2465
27831W        W45355  13.913   6.786  12.516 -0.1352  0.1507 -0.0699
27832W        W45356   6.962   1.702   3.709  0.3119  0.0623  0.0994
27833W        W45357  15.975   8.277  12.788 -0.0770  0.0269 -0.0852
27834W        W45358  13.009   8.362  15.453 -0.2440 -0.1028  0.0523
27835W        W45359   5.795   9.227   0.434 -0.2567  0.0996  0.0588
27836W        W45360  11.028   7.085   2.635 -0.3650  0.2552 -0.1618
27837W        W45361  14.199  17.270   1.722 -0.1786  0.0318 -0.2327
27838W        W45362   5.233   8.800  14.418  0.0438 -0.0641 -0.1038
27839W        W45363  14.396  11.431   3.404 -0.0404  0.1110 -0.0462
27840W        W45364  17.106   1.741   4.137 -0.1185 -0.0903 -0.0056
27841W        W45365  13.789  14.390   1.051  0.0165 -0.1937 -0.0847
27842W        W45366   5.110   8.652  13.407  0.2124 -0.0774  0.0752
27843W        W45367   7.708   7.538   4.299 -0.2287 -0.2872 -0.1142
27844W        W45368   1.958   4.006   0.495 -0.0676 -0.2138  0.3528
27845W        W45369  10.397  15.699  14.998 -0.0557 -0.1603  0.2220
27846W        W45370  12.739   1.979   0.519  0.0079 -0.1543  0.1322
27847W        W45371   6.122  15.225   3.002  0.1381 -0.3261  0.2601
27848W        W45372  15.813   8.317   3.741  0.0223 -0.0269 -0.1090
27849W        W45373  13.480   6.861   2.170 -0.0947 -0.0447  0.3641
27850W        W45374   1.772   2.478  15.945  0.3154  0.0763 -0.0812
27851W        W45375   9.246   1.131  12.942  0.0854  0.1436 -0.0223
27852W        W45376  15.223   7.784  15.979 -0.1236  0.0338  0.0156
27853W        W45377   8.187   0.862  15.439  0.1560 -0.0093  0.0892
27854W        W45378   3.111  15.691   3.899  0.1063 -0.2016  0.0698
27855W        W45379   5.191   1.567   0.188  0.2314 -0.1436  0.0316
27856W        W45380   0.075   4.060  13.091  0.1839  0.0411 -0.1038
27857W        W45381   9.811   5.967   3.912 -0.1663 -0.2094  0.1850
27858W        W45382   2.456   7.215   2.426  0.0931 -0.6108  0.1789
27859W        W45383  10.198   3.049   3.930  0.1179 -0.1448 -0.1237
27860W        W45384   2.297  12.208   3.567 -0.0478 -0.2278  0.1829
27861W        W45385  10.444   2.120   0.569  0.4533  0.0451  0.3890
27862W        W45386  14.399   2.123  11.799  0.0416  0.0664 -0.0909
27863W        W45387   2.833   3.255  14.722 -0.0811  0.1882 -0.1120
27864W        W45388   4.787  16.133   2.067  0.0784 -0.2656 -0.0034
27865W        W45389   0.679  11.590  13.444 -0.2895 -0.3473 -0.0434
27866W        W45390  15.040   7.755   4.200 -0.1090  0.1415  0.3751
27867W        W45391   9.284   6.738   2.752  0.1269 -0.0387  0.2275
27868W        W45392  12.793  13.538  15.333  0.1306 -0.1486 -0.3684
27869W        W45393  13.636   5.525  12.597 -0.0981 -0.3318  0.2492
27870W        W45394   7.463  10.076   4.259 -0.2479  0.3008 -0.0948
27871W        W45395   4.273   9.105  14.814  0.0068 -0.0440 -0.3333
27872W        W45396  11.594   2.999   2.979 -0.3037  0.2961 -0.1861
27873W        W45397   0.838  15.851  14.273 -0.0066 -0.1134 -0.1362
27874W        W45398   4.906  17.082  12.106  0.1976 -0.0396 -0.3786
27875W        W45399  14.801  11.240  11.816  0.0217  0.0510 -0.0156
27876W        W45400   6.240   4.852  15.200 -0.1901  0.0145 -0.0894
27877W        W45401   4.382  13.340  13.550 -0.0367  0.3777  0.1803
27878W        W45402   2.058   2.309  13.256 -0.0635 -0.0574  0.0997
27879W        W45403   9.465  10.584  14.179  0.0863  0.0395 -0.1134
27880W        W45404   9.081   8.237  15.530 -0.0072 -0.1104 -0.1610
27881W        W45405  17.531   4.428  11.866  0.2686 -0.1084  0.0068
27882W        W45406   9.073  16.876  11.471 -0.1836  0.0574 -0.6687
27883W        W45407   5.037   3.877   1.642 -0.1750  0.2055  0.1110
27884W        W45408   1.568   9.311  16.439  0.0136  0.2040  0.0715
27885W        W45409   5.282   3.284  14.690  0.1615  0.1879 -0.0553
27886W        W45410  17.244  11.327  14.757  0.1432 -0.0191  0.0231
27887W        W45411  15.737  11.860   2.940  0.2670 -0.2135 -0.1546
27888W        W45412   5.757  10.519   4.210 -0.0868  0.0277 -0.1822
27889W        W45413  16.192   2.011   0.335  0.1194 -0.0135 -0.0140
27890W        W45414  15.501  11.977   0.722  0.0783 -0.2742  0.2558
27891W        W45415   1.483  16.037  15.414  0.2769 -0.4661  0.0600
27892W        W45416  17.426  14.327  15.139  0.1523 -0.2380  0.3839
27893W        W45417   2.473   0.557  14.876 -0.0597 -0.2030  0.2037
27894W        W45418   9.942   0.868   5.156 -0.1381 -0.1065  0.0719
27895W        W45419   5.284   9.090  16.154  0.0140  0.0938 -0.1987
27896W        W45420   7.276  17.518   3.941  0.0864 -0.0501  0.0320
27897W        W45421   0.810  15.441   4.930 -0.0288  0.2311  0.3041
27898W        W45422   6.173   9.765  13.383 -0.0094  0.3861  0.0862
27899W        W45423   6.424  12.398   4.802  0.1218  0.0766  0.0057
27900W        W45424   3.048   2.802  14.491 -0.0137 -0.3916 -0.1508
27901W        W45425  17.611  10.829  11.771 -0.1212  0.0155 -0.0183
27902W        W45426   6.774   4.296   4.360 -0.0415  0.3238 -0.2338
27903W        W45427  17.391  13.892  14.496  0.0591 -0.0219 -0.3750
27904W        W45428  14.418   1.238  14.794  0.0321 -0.1194 -0.1731
27905W        W45429   0.167  17.933  15.450  0.1591 -0.0065 -0.0269
27906W        W45430   0.026   6.200  11.960 -0.1549  0.0454  0.1130
27907W        W45431  14.647   8.084   5.019 -0.2304 -0.1365  0.2193
27908W        W45432  17.036  12.549  13.587 -0.0052 -0.0655 -0.3816
27909W        W45433   8.633   1.350   4.707  0.2944  0.1453  0.4145
27910W        W45434   9.368   6.434  15.664  0.0744  0.1208 -0.0174
27911W        W45435   9.848   8.748   5.959  0.1740  0.0393 -0.0730
27912W        W45436   1.238   2.930   0.010  0.4146  0.0314  0.0091
27913W        W45437  16.783   9.978  11.485  0.0900  0.1631 -0.1595
27914W        W45438  14.360   6.874   2.562  0.1366  0.0502  0.1212
27915W        W45439  15.196   4.733   1.374 -0.1406  0.0667  0.2627
27916W        W45440  11.096  11.064   0.116  0.1504 -0.2322  0.2111
27917W        W45441   0.732   0.260  10.795 -0.1351 -0.0189  0.1359
27918W        W45442   8.388  12.547   3.068  0.2773  0.0110  0.0418
27919W        W45443  14.851  14.879  11.863 -0.3383  0.1345 -0.0845
27920W        W45444  10.038  11.466   3.593  0.1660 -0.0286  0.3100
27921W        W45445   1.090   0.401   0.683  0.4176  0.0526 -0.0420
27922W        W45446  12.587   6.369   3.080  0.0082  0.1748  0.1246
27923W        W45447   1.053   0.480   4.851  0.0213  0.1121  0.0200
27924W        W45448   5.088   1.393   2.010 -0.2344 -0.0640 -0.1057
27925W        W45449   0.600  13.093   4.211  0.1286  0.0711  0.0898
27926W        W45450   4.372   7.050   4.466 -0.2135  0.4022 -0.1555
27927W        W45451   5.405  14.229   4.855  0.2586 -0.2313 -0.1541
27928W        W45452   6.828   7.067   1.693  0.3047 -0.1280  0.0259
27929W        W45453  10.192   2.597   0.608  0.2049 -0.0084  0.0498
27930W        W45454   6.041   6.699  15.693 -0.1323  0.2613 -0.0849
27931W        W45455   9.380  13.584  14.444 -0.1398  0.2012 -0.1608
27932W        W45456   3.145  15.405  13.871  0.0438  0.1560 -0.0997
27933W        W45457   7.771  17.183   3.194  0.4362  0.1547  0.0327
27934W        W45458  17.871  14.621   2.617  0.1113  0.1477  0.0062
27935W        W45459   9.391   7.249   2.809 -0.2313  0.4366  0.0620
27936W        W45460  12.958  16.413   4.940  0.1116  0.0801 -0.1977
27937W        W45461   7.517   6.143   3.223  0.0841 -0.1468  0.0164
27938W        W45462   8.367  10.720  11.126 -0.2055  0.1367 -0.1292
27939W        W45463   5.359   6.705  16.322 -0.0318 -0.2137  0.1683
27940W        W45464  13.417  10.405  15.047 -0.3320 -0.0142  0.0557
27941W        W45465  16.958  12.751   4.204  0.1125  0.1471 -0.2381
27942W        W45466   7.720  14.354  11.889  0.0525  0.0696 -0.3367
27943W        W45467  14.972   3.330   5.122  0.2335 -0.3619 -0.1599
27944W        W45468   8.730  17.222  14.426 -0.2076 -0.2744 -0.0081
27945W        W45469   6.154   0.057   3.856  0.3045 -0.0206 -0.1233
27946W        W45470   9.677   2.606  15.097  0.1533 -0.2710  0.1637
27947W        W45471  12.379   4.625  16.202 -0.1220 -0.0038 -0.1500
27948W        W45472   9.800   2.927   2.461  0.1785  0.0362  0.1775
27949W        W45473   3.279  12.051  11.425  0.6003 -0.1603 -0.0421
27950W        W45474  10.369  12.740   3.964 -0.1011 -0.1037 -0.1064
27951W        W45475  17.624  11.515   4.543  0.2655 -0.0962 -0.0352
27952W        W45476  11.013   2.621  14.556  0.0281  0.0233  0.4172
27953W        W45477   3.356   5.115   3.469  0.1192  0.0895  0.0762
27954W        W45478  16.485   3.755  14.957  0.2945 -0.0015 -0.3709
27955W        W45479  14.465   5.480  12.955  0.2553 -0.0847 -0.0938
27956W        W45480  17.646   4.079   0.885 -0.0452 -0.1251  0.1823
27957W        W45481   3.403   2.307   3.588 -0.0856  0.0155 -0.0591
27958W        W45482  17.431   8.731  11.804  0.0905 -0.0931  0.0709
27959W        W45483  12.696   8.386   1.560  0.1038  0.0046 -0.1031
27960W        W45484  16.448   6.947  13.551 -0.2067 -0.0144 -0.0427
27961W        W45485   8.063   7.559  15.807  0.1010  0.0341 -0.0718
27962W        W45486  11.307  16.030   0.631 -0.0116  0.0637 -0.1032
27963W        W45487  15.686   7.437  13.790  0.1632  0.1299 -0.1656
27964W        W45488   3.145   3.314   4.749 -0.1062  0.1583 -0.1837
27965W        W45489   1.945  17.603   2.208  0.0426 -0.0019 -0.0867
27966W        W45490   4.872  12.001   0.784  0.1197 -0.2556  0.1111
27967W        W45491  16.381   8.871   3.218  0.1037 -0.0655  0.1430
27968W        W45492  14.937   2.735  12.733  0.1874  0.3857  0.1357
27969W        W45493  17.414   5.435   3.859  0.1628 -0.1460 -0.0335
27970W        W45494   0.347  12.537   0.049 -0.0389 -0.2535  0.1883
27971W        W45495  10.249  10.306   1.716  0.1073 -0.3147 -0.0135
27972W        W45496   3.706   4.017   1.096  0.1566 -0.2655  0.2369
27973W        W45497  13.988  11.921  13.802  0.0962  0.1774 -0.1379
27974W        W45498  15.923   9.883   0.014 -0.1233  0.1304  0.0100
27975W        W45499   3.158  10.364   4.628  0.0783  0.0085 -0.1638
27976W        W45500  15.390  16.446   4.185  0.2012 -0.1957 -0.0129
27977W        W45501  14.759   5.072  10.917 -0.1405 -0.1141  0.1235
27978W        W45502   6.677   9.242   3.036  0.1361  0.0163  0.2511
27979W        W45503   1.412   1.370   3.579 -0.1762 -0.1619 -0.2200
27980W        W45504  11.445   9.371  10.573  0.0428  0.0014 -0.2111
27981W        W45505   7.005   6.804  13.543  0.2466 -0.1036  0.1911
27982W        W45506   0.801   7.711   4.361 -0.0293  0.1089 -0.2042
27983W        W45507   5.286  17.937  13.070  0.0214  0.2554 -0.0621
27984W        W45508   5.648   7.598  12.350 -0.1276  0.4905 -0.2004
27985W        W45509   7.122   9.671   4.171  0.0738 -0.0663 -0.2562
27986W        W45510   0.449  11.489  10.794 -0.1103  0.0401 -0.0971
27987W        W45511  14.052   1.344  13.119  0.2118  0.1442 -0.1359
27988W        W45512   0.524   1.500   2.516  0.0139  0.1897 -0.1712
27989W        W45513  11.579   6.083  14.994  0.0376  0.0372  0.2673
27990W        W45514  17.377   0.112   3.556  0.1085 -0.4000  0.1318
27991W        W45515   7.008   0.928  14.505 -0.2101 -0.0442  0.0538
27992W        W45516  13.435   2.900  16.228  0.0196 -0.2724  0.3321
27993W        W45517   2.074  15.005  15.776  0.0368 -0.0499  0.2755
27994W        W45518  16.625   4.983   1.522 -0.0627  0.0271  0.0271
27995W        W45519   3.458  16.577  14.350  0.1000  0.1039 -0.0853
27996W        W45520  13.225   0.203   0.921  0.0683 -0.0733 -0.1132
27997W        W45521   0.346   0.047   1.533 -0.3567 -0.1014  0.0414
27998W        W45522  16.240  13.293   2.431 -0.1563  0.1116  0.0541
27999W        W45523   5.595  17.899  11.810 -0.2553  0.1396 -0.4140
28000W        W45524   7.191  11.392  12.911  0.2349 -0.1162 -0.0347
28001W        W45525   3.054   5.983   3.721  0.0533  0.0830  0.0726
28002W        W45526   2.183   3.062  12.070 -0.1463  0.0417  0.0349
28003W        W45527  13.315   5.495  16.090 -0.1321 -0.0060 -0.2471
28004W        W45528   4.702  11.766  14.752 -0.3098  0.2339  0.4086
28005W        W45529   8.417   8.897  12.036  0.1576 -0.1866 -0.3381
28006W        W45530   0.049  16.416   6.051 -0.2895 -0.1055 -0.2328
28007W        W45531   2.420   5.360  15.911 -0.3307 -0.0757  0.4615
28008W        W45532  15.954   8.378   1.830 -0.1433  0.3439 -0.1041
28009W        W45533   8.832  14.593   0.419 -0.1048 -0.1181 -0.3942
28010W        W45534  11.271  14.192   3.847  0.0922 -0.1717 -0.2459
28011W        W45535  17.492  17.447   5.374  0.0311  0.1768  0.2087
28012W        W45536  11.297  13.713   3.993  0.0401 -0.2101 -0.3987
28013W        W45537   3.890   8.104  13.670  0.1847 -0.2019  0.0446
28014W        W45538  15.221   8.591  16.085  0.0167 -0.2795 -0.0985
28015W        W45539   3.159  16.916   0.201  0.1271 -0.2076 -0.3756
28016W        W45540   6.763   7.929   0.719  0.0232  0.2119 -0.0412
28017W        W45541  13.692   8.683  13.047 -0.0560  0.0900  0.4251
28018W        W45542  13.310   0.039   0.412 -0.1754  0.2452 -0.0460
28019W        W45543   2.220  16.533   1.603 -0.0731 -0.2195  0.1602
28020W        W45544   9.352   5.773   0.957  0.0157 -0.2280  0.0549
28021W        W45545  15.979   9.738  11.972  0.1609  0.1531 -0.1093
28022W        W45546  11.679   9.374  15.969  0.2539 -0.1939 -0.1499
28023W        W45547   9.341   6.903   4.707  0.0721  0.1941  0.1045
28024W        W45548   8.411   2.492  11.548  0.4318 -0.3460  0.1830
28025W        W45549  14.564   2.930   1.267 -0.0487  0.1053 -0.0485
28026W        W45550  12.386   6.690  15.170 -0.1533  0.1081 -0.0652
28027W        W45551   9.484  14.107   3.119  0.1452  0.1361  0.2512
28028W        W45552  16.981  16.066   1.703  0.0636 -0.0999 -0.1922
28029W        W45553   1.265   0.942  14.281  0.0110 -0.1149  0.2901
28030W        W45554   7.422   4.230   3.647 -0.1029 -0.0296 -0.0704
28031W        W45555   7.689  15.684   2.902  0.1307 -0.3068 -0.0323
28032W        W45556   4.396   1.228   5.447  0.0472 -0.3559  0.1065
28033W        W45557   8.901  15.243   2.971  0.0141 -0.0901  0.1963
28034W        W45558  16.281   6.526   0.747  0.0886 -0.0762  0.0782
28035W        W45559   5.598  13.176   0.603  0.0438  0.1562 -0.0081
28036W        W45560  11.568   9.175   0.751 -0.0527  0.1121  0.0475
28037W        W45561  14.342   5.367  11.696  0.2328  0.0281 -0.5222
28038W        W45562   3.776   5.264   4.281 -0.0412 -0.3231  0.2381
28039W        W45563  13.600   0.608  13.968  0.1340 -0.1569 -0.0436
28040W        W45564   2.342   8.070   4.215 -0.0287  0.0770  0.1357
28041W        W45565   8.213  11.730   5.396  0.1990 -0.1411  0.3420
28042W        W45566  15.243  13.900  11.929  0.0268  0.0137  0.5293
28043W        W45567   4.724   9.955  12.830 -0.2462 -0.1243  0.2010
28044W        W45568   1.861   8.662   1.706  0.0560  0.1331  0.0049
28045W        W45569  12.328   1.538  11.460  0.2410 -0.1988  0.1333
28046W        W45570   8.238   4.529   2.144  0.0066 -0.2262  0.2615
28047W        W45571   7.503   5.705   0.736  0.1539  0.0341 -0.1270
28048W        W45572  16.468  15.234   4.183 -0.0783  0.1785 -0.0621
28049W        W45573   0.387  10.088   0.072 -0.0906  0.4517  0.1380
28050W        W45574   4.669  12.809  14.487  0.1960  0.0715 -0.0890
28051W        W45575  17.448  14.883  15.171  0.0708 -0.2639 -0.1804
28052W        W45576   7.707   1.618  12.374 -0.3936 -0.0719 -0.0759
28053W        W45577  14.848  11.653   4.481  0.0224 -0.0877 -0.1362
28054W        W45578   3.883  10.094   2.966 -0.1755 -0.0222  0.1075
28055W        W45579  14.400  17.760   1.734  0.3948  0.1177 -0.1514
28056W        W45580   2.979   6.921  16.324 -0.2852 -0.2627  0.1565
28057W        W45581   7.025   4.641  14.077  0.1837 -0.0834 -0.3956
28058W        W45582   6.846   1.653  14.005  0.1383  0.2631  0.0355
28059W        W45583  17.078  15.176  13.495  0.3621 -0.2051  0.1877
28060W        W45584  10.683   4.895   1.226  0.1255  0.1993 -0.0077
28061W        W45585  15.666  16.453  14.890 -0.0494 -0.0838 -0.2078
28062W        W45586   3.935   7.700   2.621 -0.2889 -0.1853  0.1182
28063W        W45587  10.563   9.926  12.316 -0.1239  0.0604  0.0403
28064W        W45588   9.939   4.766  11.284  0.3461  0.1090  0.2653
28065W        W45589  14.338   2.926  15.938 -0.2947 -0.0590  0.2232
28066W        W45590   2.355   8.700  11.802 -0.2307  0.0632  0.2043
28067W        W45591   4.758   2.431  13.624  0.1900  0.0337  0.0401
28068W        W45592  10.098  17.372   3.301  0.0196  0.0523 -0.1396
28069W        W45593  16.018  15.834   2.276  0.0478  0.2165 -0.0494
28070W        W45594   6.470  17.647   3.712  0.0395  0.5085  0.4500
28071W        W45595   4.897   2.695  14.399 -0.1300  0.0056 -0.3346
28072W        W45596  14.543  12.508  15.090 -0.1699  0.0439 -0.1832
28073W        W45597  12.793   0.678   4.731 -0.3184  0.3747  0.1059
28074W        W45598   4.638   6.028   3.340 -0.2050 -0.0793  0.2165
28075W        W45599   4.611   5.642   4.282 -0.1677 -0.1744 -0.1270
28076W        W45600   6.154  13.567   4.550  0.2577 -0.0268 -0.0632
28077W        W45601   2.976   4.183   0.406  0.2816 -0.1131  0.3010
28078W        W45602  11.696  13.062  15.978  0.1025  0.0126  0.0814
28079W        W45603  15.421   3.708   2.211  0.1119 -0.0521  0.0458
28080W        W45604   6.849   9.570  12.341  0.1822 -0.3166 -0.0488
28081W        W45605  15.264  11.937  14.585  0.0408  0.0554  0.2245
28082W        W45606  13.713   0.077  13.769 -0.0347  0.0548 -0.2121
28083W        W45607   3.296   6.354  14.602  0.2783 -0.1119 -0.4285
28084W        W45608  14.862  13.367  13.073  0.1006  0.1538  0.0880
28085W        W45609   1.623   3.527  13.675  0.1455 -0.1472  0.0049
28086W        W45610   4.742  14.272  15.677 -0.2968 -0.1561 -0.3892
28087W        W45611   0.692  16.714   1.193  0.0730 -0.3695 -0.3539
28088W        W45612   3.418   4.619   2.415 -0.1938 -0.2560 -0.1636
28089W        W45613  10.233   4.711   3.350  0.0703  0.2765  0.2963
28090W        W45614   7.350  14.961   1.309  0.0666  0.1191  0.3984
28091W        W45615   6.363   7.532  13.888 -0.1801 -0.3236  0.2620
28092W        W45616   9.276  11.915   2.437  0.3633  0.1641  0.2615
28093W        W45617   5.132  14.382  16.157 -0.0061 -0.3897  0.2536
28094W        W45618   1.659   6.200  11.122 -0.1063  0.2580 -0.0244
28095W        W45619   2.456  17.391  16.436  0.1753 -0.2184  0.0148
28096W        W45620   7.855  10.996  13.894  0.1258 -0.1492  0.0149
28097W        W45621  15.927   6.548   2.623 -0.4103 -0.2414  0.0921
28098W        W45622  11.048  10.464   1.336 -0.1512  0.0676  0.4844
28099W        W45623  13.935   7.588   2.116 -0.0611 -0.0375  0.0979
28100W        W45624  17.947  11.387  16.178 -0.2446 -0.1170 -0.2574
28101W        W45625  15.862   6.207   4.142 -0.1572 -0.1984  0.1905
28102W        W45626  14.616   6.162   5.094  0.2417  0.3015  0.2208
28103W        W45627   7.952  14.213   1.368 -0.3222  0.1137  0.1048
28104W        W45628   3.713  17.419   1.632  0.0519  0.0357  0.0702
28105W        W45629   3.779   9.679   2.672 -0.2520  0.0030  0.0811
28106W        W45630  16.619   9.498   0.713 -0.2121 -0.3813  0.0662
28107W        W45631  13.904  12.943   5.005  0.3607 -0.0212  0.1465
28108W        W45632  12.556   7.064  11.600 -0.2098  0.0574  0.2120
28109W        W45633   9.372   4.350  14.077  0.0646  0.2799  0.0615
28110W        W45634   3.483  11.098  15.285 -0.1316 -0.2360  0.0594
28111W        W45635   1.407   3.404   4.488  0.0112  0.1071 -0.0151
28112W        W45636   9.695   1.463  16.021 -0.0573  0.3970  0.0583
28113W        W45637   3.759   6.541   4.082  0.1568  0.1620 -0.0370
28114W        W45638  12.616   9.793  15.167  0.1844  0.0167 -0.1381
28115W        W45639   1.791  16.331  15.127  0.3026 -0.2552  0.5866
28116W        W45640   9.573   1.422   2.651  0.1869  0.2417  0.0463
28117W        W45641   1.482   5.168  11.391  0.1857 -0.0843 -0.1212
28118W        W45642  12.679  17.704  11.012 -0.1055  0.2236 -0.0356
28119W        W45643   3.579   0.418  15.968 -0.0130 -0.0595 -0.1027
28120W        W45644  10.536  13.020  16.397  0.1069  0.2738 -0.1267
28121W        W45645  12.404   8.249   1.920  0.0694 -0.1678  0.2913
28122W        W45646   3.313  11.440  11.445 -0.1804 -0.0416 -0.1020
28123W        W45647   8.462   6.612   3.372 -0.2375 -0.0915 -0.2520
28124W        W45648   0.842   9.004  13.695 -0.4120 -0.0995  0.1199
28125W        W45649  10.068  17.747   2.918  0.0074 -0.0055  0.2481
28126W        W45650  13.692   7.206   4.673  0.0296  0.3377  0.2215
28127W        W45651   0.419   0.630  11.953 -0.0486  0.0665 -0.1161
28128W        W45652  17.392  14.471   3.862 -0.1797  0.0364  0.1578
28129W        W45653  17.360  10.776  13.158  0.0484  0.0537 -0.1654
28130W        W45654   3.207   1.958   3.143 -0.0166 -0.0182  0.1288
28131W        W45655   3.142   9.274  12.998  0.1152 -0.0467  0.1413
28132W        W45656  13.988  14.527  15.006  0.0321 -0.0098  0.0578
28133W        W45657   1.578  14.598   5.773  0.1252 -0.0939  0.0641
28134W        W45658  12.008   7.146  11.745 -0.0147 -0.1107  0.2388
28135W        W45659  16.802   0.785   2.730 -0.1740  0.1980 -0.0225
28136W        W45660   3.401   2.472  13.167 -0.2586 -0.0265  0.0747
28137W        W45661   2.702  16.547  13.953  0.1635  0.0204  0.0203
28138W        W45662  14.697  10.585   1.093  0.2467  0.0986  0.3557
28139W        W45663   1.613  14.421  12.055 -0.0084 -0.0021 -0.1171
28140W        W45664   2.656   5.442  13.870 -0.0009  0.0861 -0.1608
28141W        W45665   9.732   1.471  13.797  0.0230 -0.0534  0.1342
28142W        W45666   6.667  14.269  14.555 -0.1891 -0.1859  0.0167
28143W        W45667  17.481   0.133  13.437  0.0723  0.4013 -0.1291
28144W        W45668   2.787   8.392  15.113 -0.1297 -0.0376  0.3699
28145W        W45669  16.624  11.034  11.636 -0.3348 -0.1618 -0.3387
28146W        W45670  10.319   1.346  11.029 -0.3012 -0.2924 -0.1157
28147W        W45671   0.576   2.337   0.118  0.1901  0.0134  0.0516
28148W        W45672  10.552   8.296   1.682 -0.1757 -0.0877  0.1625
28149W        W45673   3.116   8.449   4.698  0.1208 -0.1938 -0.3679
28150W        W45674  11.683   5.633   0.537  0.0651  0.0788 -0.1575
28151W        W45675   4.459  15.548   4.404 -0.1335  0.0914 -0.3768
28152W        W45676  13.857  11.164   5.115  0.2258 -0.2799 -0.1203
28153W        W45677   6.867   0.657   2.547  0.1441  0.0258  0.1839
28154W        W45678   4.404  17.560   1.579 -0.0436  0.1699  0.3269
28155W        W45679  16.699  12.015  14.323  0.1486 -0.1186 -0.3126
28156W        W45680   6.552   0.500  13.903  0.0247  0.2441  0.2262
28157W        W45681   5.053  13.283   3.339  0.1763 -0.0971  0.1557
28158W        W45682   3.176  10.913  15.765  0.0477 -0.1526  0.0854
28159W        W45683  15.761  17.287  15.027  0.0679  0.1301 -0.2516
28160W        W45684  14.412   6.068  15.587  0.2411  0.2560  0.0549
28161W        W45685  11.851   4.655  12.867 -0.1458 -0.0133 -0.1374
28162W        W45686  11.323  14.462  16.035  0.2301  0.0018 -0.0704
28163W        W45687   6.307   8.060  12.906 -0.2561  0.0835  0.3188
28164W        W45688   5.407   5.529  15.896  0.1773  0.2648 -0.1434
28165W        W45689  15.637   8.466  11.707 -0.2597  0.0423 -0.0345
28166W        W45690   5.763   0.105   2.872  0.0131 -0.1478 -0.0207
28167W        W45691  16.136  16.353   5.394 -0.2118 -0.3520 -0.1048
28168W        W45692   8.824  17.226   1.163 -0.1392  0.0651 -0.0029
28169W        W45693   0.661  14.928   2.769  0.1037  0.4387 -0.0553
28170W        W45694  17.740   3.163  13.652  0.2662  0.1020  0.1234
28171W        W45695  11.167   3.247   2.918  0.3201 -0.1880 -0.1420
28172W        W45696  15.986   9.583   3.233 -0.1288  0.2353  0.3443
28173W        W45697   3.494  12.254   1.539 -0.4791 -0.1301 -0.3174
28174W        W45698   5.812  15.543   0.283  0.0296 -0.0079 -0.0669
28175W        W45699  13.080   1.818  13.474 -0.0157 -0.0615  0.1707
28176W        W45700   3.249  16.378  15.259 -0.3121  0.0746  0.0158
28177W        W45701  13.741   8.265   2.386 -0.4429  0.0834 -0.1386
28178W        W45702  15.196   8.442  10.539 -0.0486  0.1057  0.1275
28179W        W45703   4.998   0.731  14.109 -0.1135  0.1720  0.1952
28180W        W45704  15.465   5.546  15.732 -0.2346  0.2109 -0.1788
28181W        W45705   5.171  16.100   4.482  0.0296 -0.0347 -0.1732
28182W        W45706   3.797   4.712  14.003 -0.0102  0.3461  0.0899
28183W        W45707   9.318  14.405  13.669  0.1008 -0.5141 -0.0387
28184W        W45708  15.090   0.616  16.253  0.0145  0.0618  0.0738
28185W        W45709   2.298  12.785  11.605 -0.0618 -0.0531  0.1020
28186W        W45710   8.358   4.992   2.424  0.0415  0.2029  0.3003
28187W        W45711   0.985  10.518   4.826 -0.0362 -0.2493  0.0959
28188W        W45712   9.831   7.314  12.063 -0.0097 -0.2906  0.2805
28189W        W45713   6.360   9.836   3.640 -0.1729  0.1912  0.2328
28190W        W45714  17.252  15.707  13.377 -0.0074  0.3128  0.1770
28191W        W45715   4.579  11.935   3.170  0.0109 -0.0944  0.2050
28192W        W45716  13.205   1.893  15.199 -0.0552 -0.1992  0.0613
28193W        W45717   0.701  12.926   3.713  0.1308 -0.1216  0.1463
28194W        W45718  11.840  15.979  13.319  0.1099  0.0098  0.0426
28195W        W45719  14.414   3.378  14.719 -0.0324 -0.0212 -0.2327
28196W        W45720   1.432   3.884   4.267  0.2409 -0.0910  0.0426
28197W        W45721   5.371  15.377  12.038 -0.4329 -0.2918 -0.0086
28198W        W45722  14.597   6.291   4.140  0.0523  0.1104  0.3392
28199W        W45723   8.972   6.534   4.892 -0.0580 -0.0632 -0.0399
28200W        W45724   1.736   0.896  15.750  0.3619  0.3361  0.2832
28201W        W45725  13.540   1.026  13.706  0.1867  0.1509  0.1492
28202W        W45726   9.070  17.338  15.381 -0.0881 -0.0723  0.0733
28203W        W45727   9.260  15.147  11.694 -0.1466 -0.0508  0.1257
28204W        W45728   3.896  17.645   5.519 -0.2587 -0.0804 -0.0054
28205W        W45729  15.361   5.463  12.684 -0.1825  0.2855 -0.0475
28206W        W45730   6.836  11.549   1.000 -0.1343  0.2510 -0.0012
28207W        W45731  16.964  13.637  14.541  0.2157  0.1359  0.0664
28208W        W45732  12.832   3.680  13.345 -0.3298 -0.0721 -0.0531
28209W        W45733   6.345   4.574   4.057 -0.0228 -0.1860 -0.0462
28210W        W45734   9.664  16.427   3.493  0.1297  0.0414  0.1495
28211W        W45735   1.493   4.893   4.106  0.0065 -0.1030  0.2972
28212W        W45736  15.954  13.949   1.370  0.1690 -0.0723 -0.0428
28213W        W45737  13.948  16.840   0.572 -0.3664 -0.0076 -0.1430
28214W        W45738  12.785  14.302  15.235  0.0109 -0.0882  0.1897
28215W        W45739   1.747   7.840   2.226  0.0430 -0.0938 -0.1677
28216W        W45740   1.719   9.331   2.257 -0.3992  0.1010  0.1171
28217W        W45741  16.132   7.520  13.125  0.0279  0.1414 -0.0543
28218W        W45742  15.759  16.944   3.059  0.0122 -0.0688  0.1485
28219W        W45743  15.157  10.051  13.024 -0.1359  0.1156  0.1539
28220W        W45744  10.025   1.686  15.730 -0.0619  0.0690  0.0599
28221W        W45745  15.765  12.888  13.918  0.1603 -0.1940  0.0514
28222W        W45746   7.153   3.624   2.017 -0.1855  0.0991 -0.1160
28223W        W45747   8.346   4.128  13.938 -0.1054 -0.1673  0.1624
28224W        W45748   4.007   6.895  11.600 -0.0627 -0.0321 -0.1140
28225W        W45749  12.486   5.857   3.066  0.2525 -0.0064 -0.1222
28226W        W45750   7.490   8.071   3.603 -0.0214 -0.4563  0.0718
28227W        W45751   1.021   8.229   2.518 -0.1320  0.1827  0.0207
28228W        W45752   2.138   6.349  12.504 -0.0004 -0.1148 -0.2918
28229W        W45753   5.391   5.422   3.818  0.0580 -0.0062  0.0567
28230W        W45754   5.199  13.352   4.737  0.1338  0.3956 -0.0914
28231W        W45755  14.839   6.659  16.278 -0.0245  0.0207  0.3508
28232W        W45756  15.589  16.527  13.095  0.1305 -0.1985  0.2131
28233W        W45757   0.427   7.561   2.289  0.0393  0.0196  0.3135
28234W        W45758   1.520   2.999  13.716 -0.0253  0.0823 -0.2418
28235W        W45759  16.117   3.441   2.391  0.2087 -0.2209 -0.1355
28236W        W45760   8.662   1.085   4.258  0.1714  0.3190 -0.0106
28237W        W45761   3.957   2.212  11.881 -0.2398  0.0052 -0.1581
28238W        W45762   6.211   3.108  14.544 -0.0900  0.1728 -0.1314
28239W        W45763   2.486  14.005   4.230  0.2873 -0.1072  0.0350
28240W        W45764  12.261  10.193   0.447 -0.0237 -0.0571  0.1368
28241W        W45765   5.865   5.043  13.191  0.1707  0.0479 -0.3511
28242W        W45766   5.910  16.427   2.875  0.0556 -0.2328  0.0568
28243W        W45767   8.092   1.172   1.229 -0.2000 -0.0208  0.0345
28244W        W45768  14.961  16.911   5.498  0.4108  0.1448 -0.0621
28245W        W45769   7.864  17.687  15.712 -0.0642  0.1263 -0.3039
28246W        W45770  10.169  14.406   3.994 -0.1148  0.3984 -0.1028
28247W        W45771  10.186  12.673   6.118 -0.2601  0.0998 -0.0877
28248W        W45772   0.234   1.368   0.981 -0.2287  0.0312 -0.0691
28249W        W45773  13.341   6.309  15.870 -0.2833  0.3118  0.1802
28250W        W45774   4.880  11.700  15.786 -0.0656 -0.0024 -0.0760
28251W        W45775  17.838   9.477  13.085  0.0415  0.0100 -0.1080
28252W        W45776   1.188   0.210  12.480 -0.2463 -0.3325 -0.1941
28253W        W45777  13.523  15.370   2.798 -0.3095  0.3293 -0.1447
28254W        W45778  13.019   6.985  14.463 -0.0648  0.1692  0.1291
28255W        W45779  11.413   3.691   1.754 -0.1156  0.2243  0.0296
28256W        W45780   5.527  12.730  16.024 -0.1755  0.0560  0.0172
28257W        W45781  15.765   4.886   4.019 -0.0203  0.1400 -0.0153
28258W        W45782   7.267   8.693  16.026  0.0478  0.1860  0.2521
28259W        W45783  15.496  16.842   3.521 -0.0466  0.1176  0.0193
28260W        W45784   5.871   6.201   0.102  0.2184 -0.2043 -0.1133
28261W        W45785   5.693   7.293   4.267  0.1232  0.0622 -0.3049
28262W        W45786   7.715   4.308  13.544  0.2252  0.0181  0.0330
28263W        W45787   2.120  16.619  11.520  0.2037 -0.2223  0.2748
28264W        W45788   5.911  12.934  16.247 -0.1298 -0.0696  0.2602
28265W        W45789   9.784  10.721   1.460 -0.0739  0.0690  0.1793
28266W        W45790   1.981   0.485   2.569 -0.0763  0.0200  0.0162
28267W        W45791   2.736  11.781  15.540  0.1569 -0.1842 -0.1649
28268W        W45792   8.155  15.678   0.031  0.0153 -0.3939  0.0411
28269W        W45793   4.256  16.128   1.909 -0.2290  0.1046 -0.2827
28270W        W45794  14.423  11.786  15.834 -0.1188  0.2955 -0.5139
28271W        W45795   8.514   6.097  14.196  0.0771 -0.0757  0.1658
28272W        W45796   4.217  16.746  16.422 -0.1141  0.0973 -0.2791
28273W        W45797  13.273  10.281   4.088 -0.2293 -0.1399 -0.1317
28274W        W45798  16.549  13.400  13.332 -0.0720  0.0126 -0.0650
28275W        W45799  15.963   9.732  14.195  0.1650  0.2591 -0.1197
28276W        W45800  10.160   1.248  11.997 -0.0338 -0.0773  0.1149
28277W        W45801   1.676  16.509  11.978 -0.0549  0.2041 -0.3222
28278W        W45802  10.962  17.062   3.199  0.0009  0.1075 -0.2762
28279W        W45803   5.751   0.989  12.637 -0.1032  0.1834 -0.1644
28280W        W45804  14.113  15.954   0.331 -0.1526 -0.1806  0.0217
28281W        W45805   7.583   5.561  11.903  0.1674 -0.1635 -0.1755
28282W        W45806  11.722  11.657   2.423  0.3486 -0.2851 -0.2534
28283W        W45807   6.175   3.424  12.589  0.3894 -0.0161 -0.0848
28284W        W45808   6.144  15.103  14.106  0.0485 -0.0687 -0.0068
28285W        W45809  11.272  15.680  16.142 -0.1199  0.0678 -0.0007
28286W        W45810   1.350   2.980   1.382  0.0762 -0.2516 -0.0181
28287W        W45811  14.554   8.894   0.563 -0.2619  0.2881 -0.1351
28288W        W45812   5.188   9.434  13.988  0.1353 -0.5264  0.0310
28289W        W45813   1.781   7.492  15.514  0.0220 -0.1425  0.1368
28290W        W45814   0.886   8.361  16.185  0.3484 -0.0720 -0.0885
28291W        W45815   7.067   2.951  15.564 -0.0499 -0.0474  0.1606
28292W        W45816  12.412   7.658   0.344  0.1629 -0.0802  0.1912
28293W        W45817   4.955  16.303  14.702  0.1082 -0.2700 -0.3806
28294W        W45818  14.066  10.075  14.101  0.1247  0.0334 -0.0744
28295W        W45819   2.117  11.920   3.965  0.0947  0.2102 -0.2053
28296W        W45820  12.877  15.777   1.285  0.2326  0.3412  0.0466
28297W        W45821  12.990  12.895   4.219 -0.0825 -0.1980 -0.1590
28298W        W45822  15.124   3.748  14.364 -0.2927  0.1098 -0.0348
28299W        W45823  11.225   5.988  15.904 -0.0160  0.0631  0.3373
28300W        W45824  13.219  12.151  11.783 -0.2924 -0.0672 -0.0043
28301W        W45825  12.043   4.245   2.386 -0.1638  0.2053  0.0800
28302W        W45826  12.524   7.056   0.899  0.0489 -0.1686 -0.2469
28303W        W45827   1.678   5.747   2.132 -0.2703 -0.0414 -0.1766
28304W        W45828   1.182   0.513   1.871 -0.1334  0.0095  0.2563
28305W        W45829  14.094  11.969   2.523  0.0976  0.1571 -0.0272
28306W        W45830  10.586  17.841   0.163  0.0261  0.1756  0.0895
28307W        W45831  17.836  17.848   2.749  0.2445 -0.4531  0.2694
28308W        W45832   4.974  13.021   5.119 -0.0921  0.0442 -0.1280
28309W        W45833   6.293   5.514   2.683  0.0079 -0.0030  0.3681
28310W        W45834  15.867  13.151  13.113  0.0732  0.2792  0.3410
28311W        W45835   4.396  13.734   5.632  0.0600 -0.1262  0.1480
28312W        W45836  11.733   1.092   4.070 -0.1303 -0.0145  0.0781
28313W        W45837  10.861  10.464   0.808 -0.0764  0.0122  0.0443
28314W        W45838   0.612   1.875   3.392 -0.0289  0.2515  0.3729
28315W        W45839  12.700  13.406   5.529 -0.0235 -0.0717  0.1695
28316W        W45840  14.248  16.623   5.585 -0.1036  0.0793 -0.1495
28317W        W45841   5.003  12.041   1.272 -0.2357  0.1401  0.1319
28318W        W45842   9.613   3.220  16.204  0.2058 -0.2403 -0.0150
28319W        W45843   5.270   8.001   4.421 -0.1402 -0.0061 -0.1238
28320W        W45844   8.882   0.679   3.997  0.0708  0.1853 -0.0383
28321W        W45845   4.483   9.785  13.177  0.0425  0.2391 -0.0531
28322W        W45846  12.227  10.694   5.522 -0.1511 -0.0249 -0.0040
28323W        W45847  14.746   3.811  14.741 -0.1037 -0.1667 -0.0097
28324W        W45848  16.970  16.370   2.703 -0.0911 -0.2448  0.2589
28325W        W45849  12.857  12.120   2.381  0.0593  0.2723 -0.2247
28326W        W45850   6.869  17.606  12.713 -0.4091 -0.2574 -0.0705
28327W        W45851  12.233   0.767  13.607  0.0581 -0.2077  0.1609
28328W        W45852  10.502   2.965   0.257  0.1190  0.2256 -0.0727
28329W        W45853  11.499   0.095  11.842  0.1728  0.0843  0.1662
28330W        W45854  16.255   2.227  13.066 -0.0635 -0.0916 -0.0924
28331W        W45855   1.750  16.144  15.919 -0.0246  0.0807 -0.0588
28332W        W45856   2.452  13.314  12.881 -0.0916 -0.0544 -0.0367
28333W        W45857   9.946   7.591  12.474 -0.4007 -0.3884 -0.1856
28334W        W45858   7.129  17.604  12.274 -0.2553 -0.0686  0.0739
28335W        W45859  13.588  12.867   4.526  0.1649  0.2255 -0.1895
28336W        W45860   7.065  10.082  12.287 -0.0440 -0.4341  0.2622
28337W        W45861   4.068   8.203  14.135  0.0691 -0.2025  0.1759
28338W        W45862   2.735   3.438  15.963  0.1559  0.0102  0.0988
28339W        W45863   5.859   5.590  12.347 -0.1596  0.2723  0.4582
28340W        W45864  10.023  13.870  12.101 -0.2338  0.1455 -0.1597
28341W        W45865   6.959   2.539  15.196  0.1197 -0.2556  0.1873
28342W        W45866   2.165  16.663  12.053 -0.0331  0.0581 -0.1843
28343W        W45867  13.769  11.686   4.279 -0.3919  0.3320  0.1941
28344W        W45868  13.694   7.721   3.688  0.1920  0.2445  0.1067
28345W        W45869   5.438   7.502  15.943 -0.2074  0.1180  0.2165
28346W        W45870   2.668   6.945  12.956  0.0235 -0.5214  0.0908
28347W        W45871   4.604   8.078   2.485 -0.0605 -0.1662 -0.0636
28348W        W45872   5.017   0.559  13.585  0.2164  0.4613 -0.2195
28349W        W45873   6.089   8.809   4.528 -0.0956 -0.2960  0.1262
28350W        W45874   0.313   0.467  15.408  0.0497  0.0098  0.1048
28351W        W45875   2.113   8.335   2.855 -0.1340  0.1919  0.0329
28352W        W45876   8.299  13.384  11.772 -0.3048  0.0059 -0.3038
28353W        W45877   7.218   3.471  14.814 -0.0384 -0.2113  0.0047
28354W        W45878   2.381   3.964  11.673  0.1306 -0.1589  0.1757
28355W        W45879  11.407  14.299  10.837  0.0468  0.1269  0.0157
28356W        W45880   4.451  15.992   0.914 -0.2972  0.1214  0.0845
28357W        W45881   6.183   5.994   0.434  0.1922 -0.1849 -0.0808
28358W        W45882  16.552  12.038   1.769  0.1461  0.1795 -0.1117
28359W        W45883   4.275   7.361   3.073  0.1331 -0.0678 -0.0019
28360W        W45884   3.759  13.168   1.882  0.0411  0.0413 -0.0764
28361W        W45885   3.048   7.284   3.871  0.2525 -0.1921  0.0242
28362W        W45886   5.308   9.135  14.945  0.1328  0.1369  0.0685
28363W        W45887  17.322  10.260  13.237 -0.1959  0.2804  0.0369
28364W        W45888  17.264  10.365  15.167  0.1368  0.0539  0.4272
28365W        W45889   4.453  11.761   2.566 -0.3855 -0.3079 -0.0064
28366W        W45890  12.549   9.784  13.516 -0.0501  0.1277  0.0468
28367W        W45891  17.203   3.046  12.497 -0.0688  0.1481  0.1106
28368W        W45892   0.080   3.237  12.303  0.1416 -0.0117 -0.1122
28369W        W45893  11.861   4.487   0.602  0.2095  0.2145  0.1197
28370W        W45894  14.322   8.925   0.986 -0.1502  0.2088 -0.0874
28371W        W45895  16.028  16.647   2.345  0.2823  0.0566 -0.2196
28372W        W45896   3.394   1.099  15.802 -0.0280  0.0825 -0.2190
28373W        W45897   3.886   2.966  12.541  0.0150  0.0328  0.2240
28374W        W45898  13.057   0.525  15.641 -0.0682 -0.2551  0.0759
28375W        W45899   4.767  10.092  10.824  0.1387 -0.1083 -0.2626
28376W        W45900  14.813  13.210  15.344 -0.2432 -0.0897  0.2947
28377W        W45901  13.779   9.532   4.098  0.2105  0.2553  0.0868
28378W        W45902   9.264   5.119  13.804 -0.0929  0.1752 -0.0221
28379W        W45903   4.421   7.995   1.783  0.2882  0.1314  0.1472
28380W        W45904   5.621  14.554  12.770  0.2901  0.2481  0.2144
28381W        W45905  17.052   7.326   0.306  0.1769 -0.1372  0.0306
28382W        W45906  12.586  13.059  15.144 -0.2157 -0.1424  0.1446
28383W        W45907  11.018  16.177   3.722  0.0943 -0.0228 -0.0838
28384W        W45908   4.313  15.404  12.467 -0.0245 -0.2594  0.1865
28385W        W45909  15.447   3.839   3.062 -0.1532  0.1218 -0.0879
28386W        W45910   2.457  10.698  12.542  0.1092  0.1487  0.1526
28387W        W45911   0.731   9.433   3.731  0.1879 -0.1227  0.1373
28388W        W45912   0.708   0.284  15.686 -0.4485  0.2007  0.1698
28389W        W45913  12.877   2.773   1.791 -0.0243 -0.2154 -0.1885
28390W        W45914  11.515  10.556  11.847 -0.0136 -0.4204  0.1444
28391W        W45915  16.203   8.172  15.217  0.0246  0.0094 -0.3489
28392W        W45916   0.218   0.761  16.290  0.0859 -0.0802  0.1454
28393W        W45917   1.180  11.278   3.273 -0.0442  0.1974 -0.1426
28394W        W45918   7.975  14.243  13.194  0.0202  0.3157  0.2027
28395W        W45919   8.616  11.045  13.699 -0.0808  0.0604  0.2200
28396W        W45920  17.375   0.733  15.632  0.3554 -0.1816 -0.0326
28397W        W45921  12.573  11.114  12.649 -0.1102  0.0316 -0.0952
28398W        W45922   6.485   5.553   2.106  0.0725 -0.1340  0.1218
28399W        W45923   5.034   7.525   1.280 -0.2850 -0.0332  0.1059
28400W        W45924   0.483   1.925   0.376 -0.0924 -0.4701  0.0154
28401W        W45925   0.089   0.253   2.452  0.0955 -0.3607  0.0686
28402W        W45926  17.675   4.034  12.605 -0.2497  0.1560  0.0812
28403W        W45927   3.261  12.300   3.466  0.2291  0.0815 -0.1401
28404W        W45928   4.806   1.941   2.590  0.0647 -0.1901  0.2331
28405W        W45929  17.520   7.620   1.005 -0.4113  0.0838  0.0403
28406W        W45930   6.176   5.968  13.501  0.2255 -0.0881 -0.1336
28407W        W45931  12.282   2.431  15.896 -0.2978 -0.3265 -0.1073
28408W        W45932   2.179  11.055  14.006  0.1608  0.0594  0.1187
28409W        W45933   4.565   6.460   4.680 -0.2289  0.0427 -0.1382
28410W        W45934   7.693   7.936  14.777  0.0754  0.0125 -0.0074
28411W        W45935   3.338  13.623  16.404  0.0915 -0.0837  0.2778
28412W        W45936  15.943  10.593   2.859 -0.0640 -0.0086  0.1886
28413W        W45937   1.344   3.842  12.695  0.1936  0.0449 -0.0551
28414W        W45938  15.634   3.975  16.202 -0.5374  0.1315  0.0340
28415W        W45939  12.194  17.924  16.367  0.1181  0.0016  0.2417
28416W        W45940  13.231  13.936   3.396 -0.1709 -0.0569  0.0119
28417W        W45941   0.755   0.247  12.803  0.0708  0.1141  0.1478
28418W        W45942   6.946   0.606  12.347 -0.1715 -0.1426  0.1221
28419W        W45943   4.099   1.651   5.460  0.1160 -0.1600  0.1476
28420W        W45944   2.053  11.891   0.224  0.0124  0.0316 -0.2014
28421W        W45945  11.034   2.969  13.376  0.0058 -0.1039  0.0377
28422W        W45946  10.416   1.885   4.624 -0.0346  0.0157  0.1595
28423W        W45947   4.147  13.713  12.283  0.1515 -0.1446 -0.2155
28424W        W45948  11.267  13.788  11.155  0.2065  0.1016  0.0332
28425W        W45949  12.812  12.179  13.480 -0.0572 -0.1025 -0.2201
28426W        W45950   3.027  14.427   0.232  0.1833  0.4037  0.3365
28427W        W45951   7.045  16.921   0.466 -0.0103  0.0117  0.0990
28428W        W45952  15.172   8.427   0.276  0.1616  0.0745 -0.1028
28429W        W45953   8.110  14.013  12.702 -0.0260  0.0544 -0.0448
28430W        W45954  14.058   7.173  11.473 -0.3658 -0.1217  0.2369
28431W        W45955   2.162   3.547   2.743  0.0529  0.0632 -0.1992
28432W        W45956  14.250  14.660  13.585 -0.0771 -0.0205 -0.0490
28433W        W45957   6.727  14.914   4.753  0.2322 -0.0498 -0.2019
28434W        W45958  14.029  11.831  16.235 -0.1674 -0.0627 -0.0087
28435W        W45959  16.146  13.109   0.732 -0.1538  0.0468  0.1485
28436W        W45960  13.709  15.287   4.189  0.3047 -0.1176 -0.2900
28437W        W45961  10.852   5.217  10.814  0.1316  0.0889  0.0372
28438W        W45962   9.006  14.415  11.868  0.1721  0.4142 -0.1650
28439W        W45963   7.316   6.221   5.102  0.0310  0.0523  0.0357
28440W        W45964   9.593   2.590   3.971  0.1032 -0.3832  0.0014
28441W        W45965   0.274   1.297   4.538 -0.4328  0.1656 -0.0599
28442W        W45966   7.706   7.780  11.936 -0.0516 -0.0890 -0.1542
28443W        W45967  14.145   7.699   4.261 -0.0708 -0.3652  0.0938
28444W        W45968   7.281   3.764   4.278  0.0777  0.1130 -0.0850
28445W        W45969  11.924  15.796   1.423  0.0925 -0.4753  0.0484
28446W        W45970   0.745   7.918   0.117 -0.2967 -0.0961 -0.1160
28447W        W45971   7.543  10.997   5.442 -0.0053 -0.1381  0.2045
28448W        W45972  12.169  11.416  14.393 -0.0892 -0.1307 -0.0929
28449W        W45973  13.810  14.780   1.648 -0.0176 -0.0357 -0.1244
28450W        W45974   3.459   4.064   2.151 -0.3257 -0.2263  0.0178
28451W        W45975  15.722   5.938  12.044  0.2135  0.1856  0.1027
28452W        W45976   7.452   4.970   0.424  0.0857 -0.0243  0.0550
28453W        W45977   6.527  12.563   0.757  0.0725  0.2364  0.3285
28454W        W45978   3.574   6.569   1.284  0.1196 -0.1105  0.0916
28455W        W45979   5.557   2.989  12.630  0.1548  0.2506  0.2158
28456W        W45980   2.062  10.239  14.146  0.3321 -0.0376  0.0359
28457W        W45981   0.649  13.972  14.477 -0.1318  0.3826  0.0961
28458W        W45982   2.949  16.367  15.762 -0.2110  0.1246  0.3334
28459W        W45983   9.813   5.384   3.987 -0.0606 -0.0045  0.3216
28460W        W45984  10.609   1.951   0.152  0.1038 -0.2677  0.0810
28461W        W45985   0.954   7.154   0.378  0.0740 -0.1007 -0.0591
28462W        W45986   0.558  10.534   0.737  0.0692  0.3785 -0.0785
28463W        W45987  15.930  16.099  12.175  0.1119  0.1122  0.1785
28464W        W45988  17.065   5.705  12.929 -0.4793 -0.4002  0.0469
28465W        W45989  16.369   4.306   0.119 -0.1568  0.0847 -0.0232
28466W        W45990  15.657   1.098  11.783  0.0535  0.2254  0.1205
28467W        W45991   1.763  17.653  15.220 -0.1377 -0.0937  0.1373
28468W        W45992   8.442  17.470  12.859 -0.1468 -0.0698 -0.0383
28469W        W45993  13.640  13.644   0.491 -0.0076 -0.0437  0.0913
28470W        W45994  11.885   7.704  13.059 -0.1736  0.1015 -0.2522
28471W        W45995   9.139   7.233   1.764  0.0022  0.0888 -0.1076
28472W        W45996  13.567   2.379   3.955  0.1972  0.0159  0.0333
28473W        W45997  13.064  17.384   4.836 -0.2951 -0.0640  0.1204
28474W        W45998   6.502  15.566   1.286 -0.1220 -0.0447 -0.0995
28475W        W45999   9.004  10.391   5.304 -0.0716  0.0497 -0.1270
28476W        W46000   2.982   2.182   4.847 -0.3490 -0.0956 -0.2117
28477W        W46001   9.094  15.597   4.935 -0.2358  0.2982  0.2371
28478W        W46002   0.256   3.247   0.280 -0.0499  0.0262  0.0184
28479W        W46003   2.168   7.619  12.276  0.0357  0.4040  0.1048
28480W        W46004  12.861  16.669   0.303  0.1302  0.1497 -0.0801
28481W        W46005   0.901  16.990   2.726  0.0691  0.0240 -0.1186
28482W        W46006   3.587   4.803  12.191 -0.0079  0.1475  0.3396
28483W        W46007   6.820   2.002   1.643 -0.0406  0.2092 -0.2607
28484W        W46008  16.845  17.588   4.685  0.1321 -0.5237 -0.0973
28485W        W46009  12.893  13.789   5.153 -0.1690  0.0265  0.0303
28486W        W46010   7.006  14.592  12.688 -0.0093 -0.1045  0.1245
28487W        W46011   3.537   8.147   1.401 -0.2231  0.1792 -0.1740
28488W        W46012   4.097   8.160  11.640 -0.0303 -0.1070  0.2104
28489W        W46013  16.352   6.119   4.138 -0.0162  0.0285  0.1434
28490W        W46014  10.217  13.055   1.915 -0.0936  0.0691 -0.0866
28491W        W46015  14.368   6.090  14.609  0.2631  0.1087 -0.1573
28492W        W46016   1.751  12.270   4.250 -0.3130 -0.2846  0.1943
28493W        W46017   9.139  13.089  13.240  0.1303  0.1550  0.1942
28494W        W46018   4.847  10.319   0.421  0.0619  0.2509 -0.0042
28495W        W46019  11.799   1.250   2.286  0.1637  0.4155 -0.2074
28496W        W46020  17.272  13.913   1.001  0.1933  0.2371 -0.0217
28497W        W46021   5.257  13.538   0.641 -0.0536  0.1380  0.0002
28498W        W46022   8.584   5.485   2.400 -0.0084  0.0472 -0.0111
28499W        W46023   6.499  13.085  12.467  0.0958  0.2995  0.1577
28500W        W46024   6.494   8.530   4.759  0.1070 -0.3348  0.1217
28501W        W46025  15.462   0.607   0.243 -0.0184 -0.0548 -0.2494
28502W        W46026   3.325   4.305  15.515  0.0753  0.0946 -0.1947
28503W        W46027  15.657  16.063   2.969  0.0918 -0.3102 -0.0484
28504W        W46028  17.718   4.937   1.951  0.2014  0.2530  0.1285
28505W        W46029  10.344   9.937  15.695 -0.1034 -0.0813 -0.0917
28506W        W46030  11.365   1.773  13.252 -0.0184 -0.0204 -0.0039
28507W        W46031  11.807  13.470   3.911  0.1173  0.0757  0.1429
28508W        W46032  11.740   0.932  14.924  0.0732  0.4101 -0.0253
28509W        W46033   5.832   5.492   1.764 -0.2677  0.0662 -0.3260
28510W        W46034   5.637   5.720   4.389 -0.0677 -0.0620 -0.0390
28511W        W46035   1.118  12.890  15.181  0.2586 -0.3305 -0.1320
28512W        W46036   3.510  16.868  13.940 -0.0379 -0.0877 -0.0769
28513W        W46037   7.021   1.542  13.185  0.1428  0.0325  0.2738
28514W        W46038   2.559  14.695   3.613 -0.1875 -0.1604  0.2841
28515W        W46039   8.585  14.930   0.081  0.5968  0.0695  0.1706
28516W        W46040  13.375   5.821  14.867 -0.0576 -0.2127 -0.2674
28517W        W46041  13.596  13.363   4.386  0.2055  0.1927 -0.2819
28518W        W46042   1.658  13.403  12.481 -0.3017 -0.0333  0.4300
28519W        W46043  17.353  11.747  11.797 -0.1069  0.0221  0.2930
28520W        W46044   1.422  10.035  12.765  0.2491 -0.2268 -0.3168
28521W        W46045   5.056   9.778  11.767 -0.0542  0.0685 -0.0163
28522W        W46046  14.999   0.002   2.569  0.1453  0.2536  0.1094
28523W        W46047   9.199  12.758  15.274  0.0363  0.1446 -0.0174
28524W        W46048  12.206  12.944   3.183 -0.1654  0.2622  0.5086
28525W        W46049   5.150  16.565  14.313  0.2701  0.2798 -0.0165
28526W        W46050  14.221   6.562  15.500 -0.1362 -0.0504 -0.0389
28527W        W46051  14.361  13.900  14.597 -0.1747 -0.1716 -0.0121
28528W        W46052   3.309  11.526  14.468  0.1229  0.1163  0.0703
28529W        W46053   5.800   5.037  15.361  0.0869  0.1439 -0.2857
28530W        W46054   3.472   6.510   5.566 -0.2806 -0.0632  0.3612
28531W        W46055   0.939  12.710   4.432 -0.2232 -0.0815  0.2720
28532W        W46056   8.371   7.939   0.034 -0.0421  0.1992 -0.1888
28533W        W46057  16.541   8.677   1.934 -0.1586 -0.2993 -0.0941
28534W        W46058  12.554  14.391   1.912 -0.0001  0.2647 -0.3502
28535W        W46059  13.020   6.226  13.539  0.0742 -0.0598 -0.0981
28536W        W46060  11.109  11.425  11.968 -0.1051  0.4058  0.0042
28537W        W46061  16.198   0.147  12.514 -0.1672  0.2624 -0.0860
28538W        W46062   0.418  15.508  12.557 -0.0921  0.1380 -0.1473
28539W        W46063  10.456  10.932  12.723 -0.2192  0.0551  0.0034
28540W        W46064   5.005   9.720  11.077  0.0099  0.0288  0.0080
28541W        W46065  10.882   8.469  11.549  0.0719  0.3192 -0.1458
28542W        W46066  10.692   2.832  13.011 -0.2392  0.1943 -0.1291
28543W        W46067  13.792   4.558   3.438  0.1159 -0.2084 -0.1298
28544W        W46068   6.255   5.367   1.497  0.3126 -0.0457  0.2257
28545W        W46069   2.642  17.688  12.886  0.0480  0.1427 -0.1264
28546W        W46070  16.206  15.929  14.106  0.0854 -0.0513  0.1411
28547W        W46071  17.791   8.671  15.283  0.4817 -0.1353 -0.0690
28548W        W46072   7.798   0.408   2.300 -0.2033 -0.4478 -0.1454
28549W        W46073   3.852  17.370   0.573 -0.0326 -0.0050 -0.0579
28550W        W46074   6.532   6.167   1.305 -0.3160  0.4393  0.1496
28551W        W46075   2.169   7.154   1.937  0.4771 -0.1413 -0.0378
28552W        W46076  10.833  16.443   1.369  0.1596 -0.0175  0.2263
28553W        W46077  15.009   3.860   3.541  0.0879  0.0842  0.0865
28554W        W46078   3.472  15.069  14.164 -0.1098 -0.0046  0.1424
28555W        W46079   9.647   1.852  12.569 -0.2050  0.2124  0.1417
28556W        W46080  16.293   5.740   1.966 -0.1059 -0.0539  0.1375
28557W        W46081   4.016   1.904   3.318  0.4226 -0.0712 -0.0673
28558W        W46082   4.820   6.828  14.715 -0.0903 -0.2742  0.1311
28559W        W46083   8.868   2.702  11.196 -0.1301  0.0912  0.1722
28560W        W46084   5.218  15.148  11.600 -0.4168 -0.1387 -0.4396
28561W        W46085  17.116   5.189  11.534 -0.6083  0.1315 -0.0472
28562W        W46086  17.198  10.809  11.045 -0.2963 -0.1283 -0.1685
28563W        W46087   4.779   6.256  14.764 -0.1100 -0.4534  0.0423
28564W        W46088   5.080   0.408  14.611  0.1262 -0.3424  0.1545
28565W        W46089  10.920   1.488  10.972 -0.2203  0.0687 -0.0069
28566W        W46090   0.537  15.005   2.273 -0.1076  0.0010  0.0317
28567W        W46091   8.116  15.972   2.850  0.0516 -0.0463  0.1072
28568W        W46092  15.442  14.583  12.600 -0.1904 -0.0169 -0.3826
28569W        W46093   1.646  15.107   2.513  0.0208 -0.1622  0.0411
28570W        W46094  14.781   0.336  15.389 -0.1239 -0.2265 -0.3153
28571W        W46095   8.131  12.824  13.471 -0.0336 -0.0403  0.0467
28572W        W46096   2.764  10.541   2.381  0.2037  0.0840  0.0925
28573W        W46097   5.739   7.858   5.517 -0.2567  0.0418 -0.0747
28574W        W46098   0.408   7.983   2.539  0.0762 -0.0572 -0.1710
28575W        W46099  12.134  12.779   1.842 -0.1805 -0.0566 -0.2145
28576W        W46100   7.358  17.090  12.347 -0.0748  0.0998  0.0767
28577W        W46101  10.189   1.248   4.408 -0.1006 -0.3443 -0.0368
28578W        W46102   2.991  16.810  15.291 -0.0952  0.0039  0.2106
28579W        W46103  12.843   2.182  12.897  0.3264  0.1171  0.0533
28580W        W46104   7.305   5.839   1.782 -0.0983  0.1859 -0.2143
28581W        W46105  10.437  14.833   5.277 -0.3011  0.3980  0.1884
28582W        W46106   2.429   8.459  12.788  0.0781 -0.1005 -0.3869
28583W        W46107  14.188   8.265  15.616  0.0572  0.1483  0.1876
28584W        W46108  16.543   5.810   4.454 -0.2202 -0.0006 -0.2395
28585W        W46109   3.541   4.822   1.357  0.1185  0.0850 -0.1147
28586W        W46110   3.934   5.591   0.562 -0.3630 -0.0860  0.0569
28587W        W46111   7.550   9.206  12.121 -0.1210 -0.0822  0.3881
28588W        W46112   1.484   2.733  15.530 -0.1675  0.3844  0.1892
28589W        W46113  16.937   3.963   1.914 -0.2050 -0.0640  0.2196
28590W        W46114   8.431  12.780  15.069 -0.1728 -0.2980  0.1996
28591W        W46115   8.079   1.677  11.777  0.4375  0.4310  0.1005
28592W        W46116  13.826   1.933  13.908 -0.2848  0.0205 -0.1855
28593W        W46117   8.625   5.209  11.776 -0.2324 -0.2729 -0.0015
28594W        W46118   6.751  17.056  11.510 -0.0132 -0.0152  0.0032
28595W        W46119   7.613   0.977  13.833  0.0427 -0.1787  0.1438
28596W        W46120  11.122   1.962  15.913 -0.1906  0.1734 -0.0529
28597W        W46121   0.203   8.757   0.500  0.2170  0.1396 -0.2919
28598W        W46122  13.805  17.920   4.904  0.0438 -0.1373  0.4203
28599W        W46123  12.437  16.528  13.663  0.1444  0.2042 -0.3869
28600W        W46124   8.648  12.539   2.611 -0.2427  0.3720  0.0804
28601W        W46125  13.902   5.432  10.822  0.3937  0.0935 -0.2931
28602W        W46126   5.239   9.384  10.171 -0.0762  0.0019 -0.0645
28603W        W46127   7.497  16.423   4.803  0.3347  0.3489  0.0087
28604W        W46128  11.807  16.351   2.821 -0.1351 -0.2263 -0.3032
28605W        W46129  13.781   3.381  11.787 -0.2206  0.0668  0.3516
28606W        W46130   1.375   0.031   4.896  0.2351 -0.2222 -0.2095
28607W        W46131   6.553   6.808   4.310 -0.2301  0.0162  0.4979
28608W        W46132  16.157  17.829   3.384  0.2644  0.1098 -0.0100
28609W        W46133  10.015  10.496  11.853  0.2263  0.0564 -0.0367
28610W        W46134  15.877   0.537  14.065 -0.0464  0.0598  0.0534
28611W        W46135   8.459   8.042   3.946  0.1762 -0.0021 -0.0292
28612W        W46136   0.179  16.867  11.322  0.0990  0.1052  0.0997
28613W        W46137  16.986   7.615  11.287 -0.0367  0.2531  0.1336
28614W        W46138   0.416   7.286   0.335 -0.0823  0.0818 -0.1126
28615W        W46139  15.611   2.485   2.754  0.0532 -0.3654 -0.3537
28616W        W46140  15.426   5.387   4.412  0.4033 -0.2480  0.0475
28617W        W46141   7.667   0.002   3.736  0.0491  0.0583 -0.0119
28618W        W46142  15.300  17.750  13.612 -0.2371 -0.0184  0.2009
28619W        W46143  14.065   1.833   3.151 -0.1918  0.1279 -0.0830
28620W        W46144   7.705   7.271   3.756  0.3795  0.2340 -0.1670
28621W        W46145   0.591  14.524   1.450  0.2668 -0.0113  0.2500
28622W        W46146   0.963   8.690   4.365 -0.2529 -0.2551  0.2473
28623W        W46147  16.088   6.177  15.183  0.2106  0.0769  0.5267
28624W        W46148  12.675  11.555  11.014 -0.0177 -0.2524  0.4153
28625W        W46149  15.242  13.439   0.952  0.3746  0.2882  0.1761
28626W        W46150   5.772   6.315  12.657 -0.0817 -0.1919 -0.1507
28627W        W46151   9.857   4.580  16.195  0.0964 -0.3046 -0.1446
28628W        W46152   0.097   4.948   2.675  0.4481  0.1840 -0.3063
28629W        W46153   7.985   2.120   1.652 -0.2665  0.0229  0.0925
28630W        W46154  17.190  13.072  13.665 -0.1483 -0.1607 -0.1457
28631W        W46155  12.693  10.020  12.581  0.1875 -0.3036  0.1076
28632W        W46156  13.222   0.452   3.297 -0.1273  0.2101 -0.0412
28633W        W46157   0.295  11.888  15.356 -0.1151  0.1509 -0.1639
28634W        W46158   5.606   7.843  13.572  0.1625  0.1511 -0.0757
28635W        W46159   9.275  11.744   3.653  0.0493 -0.0028 -0.0782
28636W        W46160   1.234  13.979  16.027 -0.0915  0.0893 -0.2748
28637W        W46161  12.306  15.317   0.626  0.1271  0.0552 -0.4098
28638W        W46162  11.299  12.241  11.731 -0.4830  0.3256 -0.0470
28639W        W46163   3.384  17.623   3.232  0.1122 -0.1277 -0.4524
28640W        W46164  16.468  17.622   3.705  0.1252  0.1403 -0.1296
28641W        W46165   7.463   0.846   3.958  0.1959 -0.1286 -0.1184
28642W        W46166  13.783   7.392   4.183 -0.3246  0.1992  0.3726
28643W        W46167  14.413   5.548  14.572  0.0304  0.3399  0.0091
28644W        W46168   5.372   6.676  11.732  0.1449 -0.1190 -0.0038
28645W        W46169   7.965   0.843   3.701  0.0408 -0.1255 -0.1063
28646W        W46170  14.769   0.397   2.805  0.1066 -0.1190 -0.1582
28647W        W46171  12.340  17.112  12.954  0.0606  0.0904  0.2024
28648W        W46172  17.033   5.881  11.904  0.2815 -0.0595 -0.0625
28649W        W46173  13.908   2.966   0.884  0.0762  0.1847  0.1490
28650W        W46174   2.193   4.437   0.719 -0.0481 -0.2047  0.2335
28651W        W46175   4.980   3.240   3.859 -0.2733 -0.0267  0.0042
28652W        W46176  14.365  16.646  15.066  0.0676  0.2333  0.0174
28653W        W46177   8.014   6.736  13.327  0.1523  0.0114  0.0479
28654W        W46178   5.176  14.478   0.268  0.1442 -0.0658  0.0561
28655W        W46179  17.674   3.867   3.290  0.0639  0.0349 -0.1646
28656W        W46180  12.510   4.825   1.052  0.1063  0.0048 -0.1827
28657W        W46181  14.765   7.440   2.015 -0.0826 -0.2506 -0.0633
28658W        W46182  16.787  11.128  15.770  0.1039  0.1627  0.2745
28659W        W46183  11.277   1.143  11.736  0.1873  0.3217  0.2662
28660W        W46184  12.544   1.603   2.460 -0.2681  0.0142 -0.1412
28661W        W46185   8.068   3.687  16.409  0.4202 -0.0449  0.1662
28662W        W46186  15.830   2.274  13.416  0.0254  0.3056  0.0425
28663W        W46187  13.537   6.737  14.230  0.2811 -0.1542  0.2238
28664W        W46188  10.977  15.225   2.263  0.0153 -0.2571  0.0999
28665W        W46189  14.262   9.861   1.144  0.1852 -0.1313  0.1901
28666W        W46190   8.239   2.010  13.671  0.0589  0.4353  0.0426
28667W        W46191   3.796  14.274   3.018 -0.3952 -0.1235 -0.3072
28668W        W46192  14.388   3.384  16.223 -0.0422 -0.1266 -0.1891
28669W        W46193   1.216  13.048  16.424  0.0980  0.2997 -0.2482
28670W        W46194   7.482   2.855  15.264  0.1539 -0.2178  0.1361
28671W        W46195   1.833   5.758  12.618 -0.1839  0.1554  0.1970
28672W        W46196  15.359   4.893   4.338  0.4502  0.0089  0.1389
28673W        W46197   2.497  17.789   3.242 -0.0071 -0.1292  0.2361
28674W        W46198   7.740   7.164  13.479 -0.0752 -0.1413  0.0251
28675W        W46199   3.440  15.847  15.144 -0.0183  0.0016  0.0235
28676W        W46200   3.837  13.695   2.157  0.2860 -0.0920  0.2118
28677W        W46201  13.496   3.768  11.706  0.0321 -0.1083  0.3498
28678W        W46202  13.595   9.126   4.934 -0.0971 -0.0776  0.0131
28679W        W46203  14.491   3.527  11.377  0.1449  0.2779 -0.0128
28680W        W46204   7.333   2.389  15.534 -0.0244  0.2471  0.3852
28681W        W46205   4.904   9.198  11.651 -0.2738 -0.0277 -0.0962
28682W        W46206   7.611   8.928   1.236 -0.1564  0.0508  0.1016
28683W        W46207  10.897  14.556  14.547 -0.0810  0.4135 -0.0390
28684W        W46208  17.388   8.236   0.966 -0.2414  0.0356 -0.3425
28685W        W46209  13.313   7.480  14.891 -0.4490 -0.2286  0.1369
28686W        W46210  10.825   4.557  11.758 -0.1846  0.0969 -0.0320
28687W        W46211   1.178  14.478  16.099 -0.1476  0.1153  0.2754
28688W        W46212   9.035   4.793   0.622  0.0260  0.1613  0.1140
28689W        W46213   9.454  15.038   4.974 -0.1976  0.3281 -0.0695
28690W        W46214  14.064  15.690  15.917  0.2134  0.2643  0.1171
28691W        W46215  11.994   0.993  14.077  0.2033 -0.2590  0.0320
28692W        W46216   8.843  13.291  15.640  0.1526  0.2102  0.0316
28693W        W46217   0.940   2.364   3.393  0.0870 -0.0660  0.2466
28694W        W46218   7.406   0.887   1.667 -0.0521  0.2235  0.0088
28695W        W46219  13.675  16.149   5.090  0.2085 -0.0493  0.0260
28696W        W46220  14.893   0.803  13.083 -0.0224  0.0553  0.0284
28697W        W46221  13.777   2.377  13.319  0.5563 -0.0720  0.0420
28698W        W46222  10.814   8.919  13.903 -0.0357  0.2514  0.1141
28699W        W46223  17.864  12.715   4.189 -0.1883 -0.3204 -0.0153
28700W        W46224   1.318   9.182  13.881 -0.3372 -0.3715 -0.0370
28701W        W46225  12.666   8.750   4.656 -0.0327  0.0248 -0.0461
28702W        W46226   9.937   8.650   2.096  0.1713 -0.1748 -0.2938
28703W        W46227   6.270   1.628  11.707 -0.1609  0.2039 -0.0706
28704W        W46228  12.371  13.275   4.115  0.1125 -0.0142 -0.0119
28705W        W46229   7.191   6.647   3.518 -0.1735 -0.1132  0.0478
28706W        W46230   6.714  11.877   2.875  0.3475 -0.0988  0.0635
28707W        W46231   3.010  13.238  14.081 -0.1504  0.0018 -0.1914
28708W        W46232   3.547   2.886  14.501  0.1321 -0.1136  0.0618
28709W        W46233  15.844  12.704   5.354  0.0290 -0.0840  0.2395
28710W        W46234   5.899   4.946  16.272 -0.0200  0.0204  0.2685
28711W        W46235   0.921   9.214  11.714  0.1992 -0.4579  0.3456
28712W        W46236  13.698  11.343   1.041 -0.3187  0.1365  0.0949
28713W        W46237   7.699   8.055   2.619  0.0503  0.1621  0.0167
28714W        W46238   1.341  12.582   0.180  0.3104  0.0913 -0.1271
28715W        W46239   1.959   9.075   2.587  0.0723 -0.2421  0.1258
28716W        W46240   8.679   8.051   1.453  0.1015  0.0552  0.0928
28717W        W46241   0.264  16.759  10.853  0.1819  0.1133  0.3462
28718W        W46242  16.858  12.252  10.370  0.2031  0.3231 -0.2695
28719W        W46243   1.690   7.423  13.166  0.0780  0.0349 -0.3860
28720W        W46244   1.495   1.039  14.785  0.0698  0.0530 -0.4644
28721W        W46245  14.869   0.974   4.580 -0.0258 -0.1537  0.3716
28722W        W46246   1.885   9.723  16.397 -0.0242  0.0048  0.2175
28723W        W46247  17.894   6.800  14.166  0.1356  0.1697  0.1054
28724W        W46248   2.777   0.885  12.044 -0.0845  0.2491  0.2450
28725W        W46249  14.722   3.766   4.866 -0.0945 -0.0572  0.0843
28726W        W46250  12.026  12.117   3.526 -0.1220  0.1229  0.3556
28727W        W46251  17.348   3.944  13.028  0.0683  0.0708 -0.0085
28728W        W46252  10.957   4.531  15.546  0.0043  0.3584  0.0943
28729W        W46253   7.511   8.736  16.435  0.0170 -0.0389 -0.0440
28730W        W46254  14.364  17.915   0.159 -0.0002  0.2745  0.2226
28731W        W46255  13.497   5.636   3.587 -0.1847 -0.2255 -0.1871
28732W        W46256   7.036   5.951   4.109 -0.1545 -0.3994 -0.0042
28733W        W46257   9.849   2.656  11.401  0.0125  0.1342 -0.1669
28734W        W46258  14.324   2.333  13.241 -0.2335  0.2401 -0.2107
28735W        W46259  16.032   3.840  15.892 -0.3951  0.2172 -0.0454
28736W        W46260   7.671   5.843   3.584  0.1009 -0.0989  0.2011
28737W        W46261   9.130   6.694  14.677  0.0211  0.0706 -0.5134
28738W        W46262   4.439  17.749  16.133 -0.1889  0.1300 -0.0713
28739W        W46263   6.763   7.985   1.556  0.0473 -0.0346 -0.0644
28740W        W46264   3.905   4.573   5.300  0.2264 -0.2914 -0.1294
28741W        W46265  11.062  13.789  13.796 -0.0975 -0.0303 -0.0450
28742W        W46266   9.302  14.624  15.919  0.1035  0.0192  0.0482
28743W        W46267  13.128  12.151  12.299  0.1627 -0.3804 -0.2587
28744W        W46268  15.192   0.990  12.131  0.0372  0.0874  0.1332
28745W        W46269   0.058   4.953  13.268  0.2274 -0.2908  0.1017
28746W        W46270   6.185   8.214  15.111  0.0274  0.0189 -0.3635
28747W        W46271  17.395   7.985  13.822 -0.0953  0.0172 -0.1997
28748W        W46272   8.275   6.491   2.674  0.1097  0.1349  0.3888
28749W        W46273   4.913   2.543   1.821  0.0821  0.1021 -0.0606
28750W        W46274   0.160   9.411  14.973 -0.0079 -0.1767 -0.2227
28751W        W46275   7.331   9.236  14.488 -0.0270  0.1947  0.0176
28752W        W46276   9.262  10.263  14.890 -0.1622 -0.2992 -0.3726
28753W        W46277  14.264  11.701   1.675  0.2011  0.1270  0.6851
28754W        W46278  13.005   7.836  13.196 -0.1891  0.0019 -0.1043
28755W        W46279  13.832   5.849   0.923 -0.0816  0.2478 -0.0572
28756W        W46280   4.916   7.394   3.901  0.1423 -0.1196 -0.0428
28757W        W46281  13.266   1.011  16.387 -0.1261 -0.0581  0.1722
28758W        W46282  15.484   6.397   4.806 -0.2471 -0.1609  0.2967
28759W        W46283   7.754  17.215   1.661  0.0207 -0.1323 -0.1416
28760W        W46284   9.677   9.987  15.454  0.2824  0.0333 -0.0791
28761W        W46285  17.387  17.840   5.089  0.1903 -0.2388 -0.1536
28762W        W46286   8.843   9.066   3.482  0.0983  0.0354 -0.1386
28763W        W46287   4.249  10.076   4.707  0.1741  0.0684  0.1414
28764W        W46288  12.746   7.290   1.307 -0.2163  0.0595 -0.0490
28765W        W46289  11.994  11.545   3.379  0.1500  0.2279  0.1891
28766W        W46290  14.071  10.962  14.139 -0.2460  0.2274 -0.0645
28767W        W46291   7.607   6.611   3.165  0.4009 -0.1732  0.1113
28768W        W46292   5.920  13.425  13.110 -0.1569  0.2178 -0.1778
28769W        W46293   0.563  10.842   5.092  0.0970  0.1207  0.1033
28770W        W46294  17.006   0.913   3.610  0.0335  0.0112 -0.3709
28771W        W46295  17.032   5.885   4.768  0.0988  0.0486  0.0127
28772W        W46296  10.638  14.487   4.990  0.3922 -0.0995  0.2218
28773W        W46297   0.170  16.718   0.979 -0.0643  0.1390 -0.0432
28774W        W46298   3.591   7.185   5.092 -0.3582 -0.0768  0.1093
28775W        W46299   0.504  12.046  13.265 -0.0214 -0.3373  0.1006
28776W        W46300   6.926  15.733   1.016 -0.1459 -0.0052 -0.0033
28777W        W46301  13.027  15.480   3.011 -0.0141 -0.2179  0.0918
28778W        W46302   4.355  13.143  16.357 -0.1361  0.2007 -0.1173
28779W        W46303   7.318  14.608  15.238 -0.1725 -0.0619 -0.3081
28780W        W46304   3.114  16.124   5.065  0.1246 -0.0132  0.2150
28781W        W46305   0.697  16.814  14.618 -0.0573 -0.1879  0.1265
28782W        W46306   8.989  11.426  15.878  0.0438  0.0438 -0.1347
28783W        W46307   0.737   6.343   2.058 -0.0076  0.2782 -0.3614
28784W        W46308   3.595  15.150   3.411  0.0920 -0.2093 -0.0103
28785W        W46309   7.339   2.022   4.940  0.0071 -0.1017  0.1444
28786W        W46310   3.158  16.285   4.549 -0.2061  0.0117 -0.2304
28787W        W46311  10.531  17.640   5.332 -0.0369 -0.0600  0.1119
28788W        W46312  15.716   1.437  14.453 -0.1803 -0.0706 -0.3560
28789W        W46313  17.886   0.353   3.516  0.2177 -0.2319  0.0027
28790W        W46314   9.223  16.932   1.059  0.4578  0.1404  0.0133
28791W        W46315   0.150   6.681  12.136  0.3746  0.4650  0.2197
28792W        W46316   8.465   6.722  10.769  0.2941  0.0450 -0.1632
28793W        W46317   6.603   1.634   4.922 -0.1945 -0.1432 -0.0842
28794W        W46318   8.435   3.602   2.720 -0.0817 -0.0670 -0.1901
28795W        W46319  15.077   8.241   1.669  0.4364  0.1391 -0.1935
28796W        W46320  10.000  13.549  13.729  0.0045 -0.0827 -0.2254
28797W        W46321   7.514   6.237  14.650 -0.0906  0.3573  0.0538
28798W        W46322  12.658  14.611   4.469 -0.1742 -0.1983  0.0277
28799W        W46323   7.560   4.458   1.323 -0.2256  0.0891  0.0531
28800W        W46324   8.784   0.239   4.533  0.0099  0.1901 -0.0450
28801W        W46325   2.761  15.433  13.168  0.0494  0.3505  0.0003
28802W        W46326   2.200  10.371  15.123 -0.3532  0.0277 -0.0158
28803W        W46327  11.342  15.395  14.681  0.1341 -0.0299  0.1533
28804W        W46328   7.455  15.174   2.000 -0.0405  0.2360 -0.1724
28805W        W46329  15.166   9.845  13.520 -0.0609 -0.0138 -0.3499
28806W        W46330   7.411  17.414  12.729  0.1758 -0.3188 -0.0751
28807W        W46331   6.412   6.787  16.117  0.3120 -0.0685  0.1174
28808W        W46332   0.905  16.638  11.598  0.0478  0.2403 -0.2260
28809W        W46333   6.386  16.286   2.503  0.0531  0.3552  0.1360
28810W        W46334  17.218   7.249  11.530  0.0417 -0.1246  0.0220
28811W        W46335  17.031   5.221   3.478  0.0871 -0.0316  0.0463
28812W        W46336   1.298   2.353   0.652 -0.2075 -0.1182  0.1958
28813W        W46337   7.176  17.262   1.840  0.0696 -0.1894 -0.1442
28814W        W46338  11.535  16.718   0.377 -0.1670 -0.3265  0.3465
28815W        W46339   4.844  12.386  15.456 -0.1784 -0.2176 -0.0764
28816W        W46340   9.986   2.261  12.371 -0.4379 -0.1406 -0.3059
28817W        W46341  14.872   4.825  12.415  0.0689  0.0545  0.0975
28818W        W46342  13.006  15.071   1.577 -0.0086  0.1272 -0.1590
28819W        W46343   1.101  11.538  15.095  0.1273 -0.0862 -0.2318
28820W        W46344   3.995   3.545  12.533  0.2530  0.0227 -0.0691
28821W        W46345  12.856   8.769   5.161  0.1342  0.2053  0.2783
28822W        W46346   4.940  12.000  11.013  0.0123  0.1066 -0.0800
28823W        W46347   2.676  11.668  11.872  0.0102 -0.0111  0.0582
28824W        W46348  17.398  14.061  13.972 -0.2975 -0.0604  0.0127
28825W        W46349  13.494  13.900   1.932 -0.0013  0.0221 -0.0561
28826W        W46350   1.064   0.733  16.390  0.0448 -0.1928  0.0359
28827W        W46351  14.809   2.611   1.585  0.1329  0.0273  0.0490
28828W        W46352   8.221   1.329   3.510 -0.0548  0.0644 -0.0028
28829W        W46353  17.719  16.895   4.025 -0.0744  0.4556 -0.0535
28830W        W46354   8.085  13.410  14.507  0.4365 -0.0027 -0.2885
28831W        W46355   7.601  10.792   1.189  0.3418 -0.0877 -0.0787
28832W        W46356  15.913   2.221   3.625  0.2746 -0.1471  0.0061
28833W        W46357   0.263   0.491   0.253 -0.0491 -0.0484  0.3907
28834W        W46358  12.823  16.385   5.424  0.0707  0.3506 -0.1616
28835W        W46359   2.296   0.151  15.153 -0.0765 -0.0767 -0.0766
28836W        W46360   2.993   8.524  14.477 -0.2279 -0.1118  0.5144
28837W        W46361  14.590  16.561  15.804 -0.0193  0.0971  0.1074
28838W        W46362   7.916   1.161   2.943  0.1057  0.4502  0.1052
28839W        W46363  10.669  10.355  15.946  0.0217  0.0731 -0.0527
28840W        W46364   4.104   4.367  13.679 -0.0550  0.1927  0.0290
28841W        W46365   1.034  10.833   0.569  0.1979 -0.4417 -0.0081
28842W        W46366   7.542   8.159   1.205 -0.0540 -0.0159 -0.1111
28843W        W46367  10.138  11.159   5.261  0.1318 -0.2825  0.0811
28844W        W46368   5.096   0.947  11.807 -0.1591  0.0520  0.0132
28845W        W46369  17.867   5.893  14.586 -0.2768  0.0870  0.2181
28846W        W46370   9.146  12.312   3.652  0.3148  0.0431  0.1014
28847W        W46371   4.687   6.650   5.189 -0.0993 -0.0344 -0.0922
28848W        W46372  17.717   5.816  16.166  0.0456 -0.1879 -0.0472
28849W        W46373   5.117   8.450  16.078 -0.0279 -0.0741 -0.0493
28850W        W46374  14.243   2.421   3.351 -0.0858 -0.0609  0.1162
28851W        W46375  17.615  11.980  14.053  0.1864  0.0826  0.1374
28852W        W46376   1.605   7.647   4.747 -0.0014 -0.0947 -0.1355
28853W        W46377   9.039  16.073  11.981 -0.0544  0.1849  0.1261
28854W        W46378   6.663  15.718  14.566  0.3531 -0.2907 -0.0666
28855W        W46379  10.260   8.284   2.107  0.2594  0.1085 -0.0197
28856W        W46380  17.602   5.149  11.290 -0.0030  0.0459 -0.0973
28857W        W46381  12.965   5.984   3.213  0.2896 -0.1048 -0.4307
28858W        W46382  11.028   9.118  10.665  0.3768  0.0818 -0.0810
28859W        W46383  15.873  17.576  15.953 -0.0510 -0.0040 -0.0304
28860W        W46384  15.631   2.399   5.187 -0.1075 -0.1966  0.5834
28861W        W46385  16.559   4.676  15.738  0.1816 -0.1962  0.0983
28862W        W46386   4.773  17.760   6.042  0.0957  0.1894  0.1319
28863W        W46387   6.023  17.812  13.218 -0.1685  0.0365 -0.0109
28864W        W46388   9.151   2.638  14.315  0.1201  0.1357  0.1885
28865W        W46389  13.420   6.626  15.445  0.0439  0.0151 -0.0729
28866W        W46390  16.834  11.619   0.737  0.0690  0.2506  0.0395
28867W        W46391   8.164  15.013   2.553  0.1268  0.0416 -0.0099
28868W        W46392  14.384  13.497   5.132  0.0429  0.0363  0.2171
28869W        W46393  10.965   9.714   1.479 -0.4318  0.1585  0.1597
28870W        W46394  12.661   3.482  12.911 -0.3559 -0.0465  0.0621
28871W        W46395  12.607  10.252   0.091 -0.2892  0.2821 -0.0527
28872W        W46396   4.582   5.058   2.498  0.0151 -0.0482 -0.4171
28873W        W46397   1.953   7.573  12.751  0.0363  0.0199 -0.1280
28874W        W46398  10.921  16.689   4.296 -0.1957  0.4621 -0.2860
28875W        W46399   4.634   1.163   1.966 -0.0754  0.0017  0.0261
28876W        W46400   7.343  10.570  16.275  0.0861 -0.0162  0.1003
28877W        W46401  16.394   9.817   0.212  0.0812  0.0209  0.2053
28878W        W46402   9.319   3.998  11.454  0.0362  0.0769  0.2757
28879W        W46403  15.651  15.644  12.279  0.2240  0.0499 -0.0644
28880W        W46404  13.206   5.131   6.042 -0.1423  0.2688 -0.0126
28881W        W46405   0.281   1.424   0.370  0.0438  0.2372  0.2343
28882W        W46406   4.678   6.773  10.441 -0.0065 -0.0420  0.1013
28883W        W46407   6.580   9.558   2.323  0.1049  0.2530  0.2430
28884W        W46408   2.103  10.845   3.132 -0.1636  0.0275  0.1687
28885W        W46409   8.264   0.453  12.570 -0.0583 -0.1766 -0.3022
28886W        W46410   1.013   4.495  12.193  0.0403 -0.2467 -0.2429
28887W        W46411   2.471  13.827   3.078  0.0061 -0.3120  0.3756
28888W        W46412   7.380   2.839   5.063 -0.0686 -0.0412 -0.1244
28889W        W46413   2.319  12.817   1.966 -0.0632  0.1921  0.2532
28890W        W46414   2.274  14.637  13.041  0.3543  0.4642 -0.0625
28891W        W46415   8.578   7.442  13.705 -0.3079  0.0711  0.0569
28892W        W46416  17.837   1.659   4.721 -0.1497 -0.1027 -0.2109
28893W        W46417  14.486  13.005  15.001 -0.0231 -0.4111  0.1030
28894W        W46418  12.919   9.535  14.735 -0.1661  0.0323 -0.1934
28895W        W46419   0.055   0.841   4.540 -0.0853 -0.0825  0.0100
28896W        W46420   0.117  11.833  14.121 -0.2402 -0.1655 -0.1656
28897W        W46421  17.391   8.678  13.377 -0.0081 -0.1717  0.1952
28898W        W46422   9.623   1.836   0.363  0.2494  0.1076  0.2473
28899W        W46423  14.205   5.460   4.847  0.1775 -0.1893  0.2371
28900W        W46424  17.018  14.366   0.248 -0.0676 -0.0233  0.1940
28901W        W46425   5.674   7.791   4.291 -0.1358 -0.1128 -0.1784
28902W        W46426  16.414   9.849  11.788  0.1728  0.2518  0.1861
28903W        W46427  10.017  15.447  12.899  0.1935  0.2814  0.2066
28904W        W46428   5.511   1.065   5.553 -0.1479 -0.0325 -0.0318
28905W        W46429  17.669  13.330   4.539 -0.0122  0.0600  0.0783
28906W        W46430   5.706   3.059   1.382  0.2206 -0.0642 -0.0130
28907W        W46431   0.723  11.006   0.198  0.0135  0.2922 -0.0187
28908W        W46432   3.671   5.132   5.879  0.0313 -0.0546  0.1199
28909W        W46433   9.983   8.828   4.536 -0.3705 -0.2205 -0.1710
28910W        W46434   9.527  12.380  12.000 -0.0577  0.0536  0.1188
28911W        W46435   6.847  17.052  14.658  0.0787  0.1415 -0.2995
28912W        W46436   6.959   0.869   3.072  0.3281 -0.3206  0.0121
28913W        W46437  12.613   6.264   1.369  0.1371  0.1236 -0.0844
28914W        W46438   2.692   4.455   1.932  0.3823  0.2793 -0.2550
28915W        W46439   5.581   9.171  12.586  0.2004  0.0002 -0.1894
28916W        W46440   1.392   4.722   0.609  0.0852  0.4820 -0.2869
28917W        W46441   7.590   1.435  11.853 -0.1239 -0.0458 -0.2847
28918W        W46442   4.965   9.960  16.387  0.0147  0.2715  0.2437
28919W        W46443  14.580   8.869  10.939 -0.0584  0.1339 -0.1706
28920W        W46444  16.923   4.385  15.699 -0.1842 -0.0873  0.0808
28921W        W46445   7.796   4.411   3.354 -0.0233 -0.0709  0.0446
28922W        W46446   3.290  11.864   3.130  0.0035  0.0004  0.2317
28923W        W46447  14.985   6.508   5.122 -0.1051  0.1159  0.0226
28924W        W46448   7.820   8.642  12.017 -0.1564  0.1301 -0.1393
28925W        W46449   8.324   6.017   0.853  0.1586 -0.1699  0.3389
28926W        W46450   4.020   2.737  14.429 -0.0854 -0.0170 -0.0291
28927W        W46451   4.449  11.322   4.080 -0.0455  0.1865 -0.5091
28928W        W46452   4.443   9.929   1.104 -0.0708 -0.4498  0.1191
28929W        W46453  12.786   4.557   1.958 -0.0486 -0.1875  0.1079
28930W        W46454  10.529   5.668  15.122  0.2847  0.1146  0.2881
28931W        W46455   3.981   4.948  16.449  0.4278 -0.0334 -0.0323
28932W        W46456  16.596   5.422  15.860  0.0875  0.0445 -0.0669
28933W        W46457   9.269   3.675   1.256 -0.2066 -0.1769  0.1073
28934W        W46458  15.330   8.885   0.034  0.0795 -0.0438 -0.1241
28935W        W46459   8.974  15.951   3.953 -0.1320  0.1833  0.1374
28936W        W46460  15.127   9.464  12.138 -0.1867 -0.0918  0.1704
28937W        W46461   6.143   3.528  14.341  0.0949 -0.0194  0.1867
28938W        W46462  13.150  13.116  13.490  0.2079  0.1465  0.2607
28939W        W46463  15.357  15.360   2.431  0.0766  0.1459 -0.0909
28940W        W46464   1.719  15.574  14.668  0.2744 -0.0049  0.0805
28941W        W46465   8.126  14.275   4.342  0.4590 -0.0266  0.3748
28942W        W46466   8.776  12.873   5.013  0.2290  0.2738 -0.0924
28943W        W46467   8.140  12.665  12.515 -0.0757  0.0035 -0.0589
28944W        W46468  11.603   4.885   4.584 -0.1266  0.0762  0.0681
28945W        W46469  11.310   3.720  12.154 -0.2897  0.1123 -0.2252
28946W        W46470   5.157   7.648  12.171 -0.1581  0.1790  0.0694
28947W        W46471  12.728  12.344  10.507 -0.1643  0.1097  0.1040
28948W        W46472   7.533   2.968  12.585  0.2250 -0.2591  0.1246
28949W        W46473   5.365   7.980  14.091 -0.2252 -0.0720  0.0135
28950W        W46474   1.901  16.881  15.631  0.0292 -0.0564  0.1120
28951W        W46475   0.029   2.963  14.503  0.0170  0.2178 -0.1545
28952W        W46476   0.617  12.197   1.625  0.2189  0.0309  0.3361
28953W        W46477   6.068   8.188  14.600  0.1411  0.1617 -0.1028
28954W        W46478   6.518  14.000  15.076 -0.0218  0.1674  0.2193
28955W        W46479   7.888   4.211   4.376  0.2237  0.0861  0.1644
28956W        W46480   2.599  11.815   0.017  0.0808  0.1108 -0.0027
28957W        W46481  15.195   4.848   3.768 -0.0145  0.1431 -0.0316
28958W        W46482   6.879  11.636   6.226 -0.1228 -0.0457 -0.2125
28959W        W46483  12.265  11.870   2.910  0.0688  0.1108 -0.0539
28960W        W46484   2.980   2.254  14.778  0.1077  0.0368 -0.0685
28961W        W46485   2.285   6.235   1.947 -0.0527 -0.3320 -0.2892
28962W        W46486   6.450  14.454  15.121  0.0246  0.1451  0.1550
28963W        W46487   7.232  12.767   1.339 -0.1842  0.4380 -0.2848
28964W        W46488  10.179   5.959   2.519 -0.1381  0.0313 -0.0262
28965W        W46489   9.528  13.677   3.608 -0.1052 -0.1539  0.1365
28966W        W46490  12.967   6.826   4.969  0.2381  0.1056 -0.1952
28967W        W46491   5.424  10.240   2.126  0.1101  0.0910 -0.4654
28968W        W46492   7.263  15.965   3.240 -0.1460 -0.0083  0.0520
28969W        W46493   0.124   4.156   3.134 -0.0688 -0.3204  0.1336
28970W        W46494   9.914   7.710   2.351  0.1834 -0.0845 -0.1626
28971W        W46495   9.905  17.246   0.069 -0.2947  0.2470  0.1223
28972W        W46496   6.065  17.162   3.542 -0.4810 -0.0250  0.1068
28973W        W46497   1.537   1.333  16.069 -0.0710 -0.1387 -0.1653
28974W        W46498   4.599  12.698  16.231  0.0312  0.1406 -0.0315
28975W        W46499  16.009  13.977  14.697  0.4305 -0.3879 -0.0234
28976W        W46500   0.806   5.474   4.683  0.1097  0.1907  0.1701
28977W        W46501  14.552   9.489  15.234 -0.0344 -0.2358  0.0264
28978W        W46502   8.484   6.816  12.439  0.0909 -0.0457  0.0595
28979W        W46503  17.201   4.250   0.516 -0.1014 -0.1150  0.1340
28980W        W46504   8.016  16.277  13.405  0.1457 -0.0695  0.1292
28981W        W46505   1.428   6.548  11.653 -0.2679 -0.6085  0.0601
28982W        W46506  16.030  15.695   0.073  0.0046 -0.1729 -0.0316
28983W        W46507   2.897  14.019  11.542 -0.4423 -0.1313  0.0734
28984W        W46508   7.469   3.742  10.747 -0.0546 -0.0482  0.3251
28985W        W46509   5.454  11.254  14.025 -0.0168 -0.2719  0.0084
28986W        W46510  13.436  15.272   5.056 -0.0363 -0.3726 -0.0480
28987W        W46511   6.451  15.894  12.751 -0.2316  0.0131 -0.1171
28988W        W46512  11.746  17.584  14.760 -0.2887  0.1568 -0.2138
28989W        W46513  11.874  13.909   0.151  0.2671 -0.3329 -0.2229
28990W        W46514   1.659  15.648   0.589  0.1872 -0.3113 -0.4351
28991W        W46515   8.116  12.860   4.348  0.0668 -0.3495  0.1158
28992W        W46516   6.201  10.375  14.813 -0.0647 -0.0492 -0.2382
28993W        W46517   6.537   5.143   2.445  0.1246  0.0121  0.1491
28994W        W46518   2.030  13.555   3.041 -0.3569 -0.0968 -0.0106
28995W        W46519  11.640   0.563  16.334  0.1715 -0.0949  0.1910
28996W        W46520   2.100   8.194  14.147  0.0160 -0.2493  0.1289
28997W        W46521   8.281   7.570  11.267  0.2377 -0.1626 -0.1842
28998W        W46522   8.222  11.355  14.655  0.1731 -0.2609  0.1473
28999W        W46523   2.198   0.103   1.361  0.1053 -0.0452  0.1866
29000W        W46524   5.186   2.219   1.463  0.0557 -0.3716 -0.0595
29001W        W46525   5.932   5.338  14.045 -0.0680 -0.0483 -0.1157
29002W        W46526   5.396  14.319  15.756  0.1013 -0.1412  0.3547
29003W        W46527  13.815  13.083   3.027  0.3405 -0.2525 -0.0915
29004W        W46528  10.337   8.880   1.800  0.1254 -0.1352  0.0088
29005W        W46529  16.369   3.946  13.264  0.0525  0.2595 -0.1963
29006W        W46530   2.892  12.875  13.703  0.0756 -0.0212 -0.0165
29007W        W46531   8.933  16.162  14.297  0.3613 -0.2127  0.1078
29008W        W46532   0.712   9.313   0.669  0.0348 -0.1703 -0.2191
29009W        W46533  16.445  17.603  13.183  0.2947  0.0714 -0.4527
29010W        W46534   0.061   9.303   4.593 -0.0826  0.2381  0.3478
29011W        W46535  13.649  10.324  14.641 -0.1065 -0.2111 -0.0129
29012W        W46536   9.673   5.284  12.952 -0.0133  0.0898 -0.3118
29013W        W46537  17.342  13.540   4.936 -0.4132 -0.2149  0.0372
29014W        W46538  15.408  11.151  13.805  0.2415 -0.0931 -0.2147
29015W        W46539  13.024  10.651  15.634 -0.3864 -0.3752  0.2983
29016W        W46540   3.543   8.766  11.559  0.0371 -0.3942 -0.1771
29017W        W46541   8.196   6.491   3.860 -0.0973 -0.0674 -0.0197
29018W        W46542   4.716   3.971  13.600 -0.2966  0.0112 -0.1729
29019W        W46543   2.562  12.497  14.538  0.1818 -0.1468  0.2727
29020W        W46544   6.136   7.270   4.998 -0.1908  0.2721  0.2816
29021W        W46545   5.100  14.071  13.777  0.1978  0.1940  0.1390
29022W        W46546  16.515   4.995  16.126 -0.3114 -0.0464  0.0703
29023W        W46547   2.155   2.309   2.374  0.1904 -0.1089 -0.1817
29024W        W46548   8.020   5.147  13.104  0.2073 -0.6078 -0.1198
29025W        W46549  17.011   3.703   4.246  0.1089  0.0956 -0.0942
29026W        W46550   4.638  12.198   4.506 -0.0997 -0.1444 -0.2957
29027W        W46551   9.960   1.464   2.315 -0.1522  0.0234 -0.4193
29028W        W46552   1.972  16.134  12.099 -0.1576  0.0657 -0.0028
29029W        W46553  15.698  11.360   2.055 -0.0831  0.0000  0.0473
29030W        W46554   9.667  13.105   2.108 -0.2968  0.1483  0.0566
29031W        W46555  15.135  12.442   3.874  0.0454 -0.3247  0.2558
29032W        W46556   8.787   9.106  15.387  0.1551 -0.0980 -0.0243
29033W        W46557   9.688  16.327  12.734 -0.0027 -0.1235  0.3611
29034W        W46558   9.136   0.956   0.564 -0.1392 -0.2933  0.0216
29035W        W46559   1.633   7.062  13.581 -0.0308 -0.1668  0.2094
29036W        W46560   8.454  17.698   0.096 -0.1975  0.1073 -0.2459
29037W        W46561   2.719   8.135   4.545 -0.3114  0.2230  0.2956
29038W        W46562   4.671  16.674  12.118 -0.2367 -0.0403 -0.1629
29039W        W46563   5.969  10.803   3.226  0.1992 -0.2631 -0.0498
29040W        W46564   2.777   2.764   0.875  0.1426  0.1542  0.1257
29041W        W46565   6.726   9.843  11.448 -0.0735  0.1371  0.1238
29042W        W46566  13.890   4.067  11.686  0.1820  0.0963  0.3226
29043W        W46567   2.507   1.008  12.999 -0.0593 -0.2389 -0.3256
29044W        W46568   8.320   6.009  16.404  0.0401  0.0435 -0.1564
29045W        W46569  13.013  10.758  14.538 -0.0864  0.2859 -0.2003
29046W        W46570   0.333   7.091  15.200  0.1002 -0.1210  0.1253
29047W        W46571   2.929  17.372   0.265  0.0389  0.0544 -0.2562
29048W        W46572  15.139  11.227   4.395  0.0938  0.0610  0.0670
29049W        W46573  15.150   0.657   3.260 -0.2735  0.2924  0.1137
29050W        W46574  17.799  15.994   3.168 -0.2200 -0.2674 -0.0428
29051W        W46575   0.269  10.137  13.193 -0.1108  0.0400 -0.0346
29052W        W46576  14.019  13.011  15.176 -0.0825  0.3338  0.1589
29053W        W46577   9.352  14.084  14.077  0.1946 -0.0647  0.2044
29054W        W46578  16.902  10.109  15.960 -0.1955  0.2220 -0.0723
29055W        W46579  15.153   0.204   4.348 -0.1862 -0.0651 -0.2341
29056W        W46580   7.341   7.242   1.638 -0.1117 -0.2128 -0.0864
29057W        W46581  17.181  12.846  10.400 -0.1263  0.0033  0.1827
29058W        W46582   6.044   9.648  14.174  0.1333  0.1801  0.0205
29059W        W46583   2.814   9.027   1.897 -0.1452 -0.2473  0.1360
29060W        W46584   3.740   9.887  15.401  0.2251 -0.1216 -0.0588
29061W        W46585  11.663   7.538   3.345 -0.0969  0.0292  0.3135
29062W        W46586   4.712  13.216  11.880  0.1622  0.0080  0.0827
29063W        W46587   8.942   1.158   1.452  0.2815  0.0801 -0.0728
29064W        W46588   5.318  13.657  13.427  0.1913  0.5421  0.1822
29065W        W46589   6.481   8.967  14.680  0.1880 -0.1384  0.2243
29066W        W46590  12.419  10.984   2.226  0.0776 -0.0581 -0.1232
29067W        W46591   5.330  17.308  12.298  0.2153 -0.0148  0.1389
29068W        W46592   4.068   2.683   1.192  0.1770 -0.1192 -0.2675
29069W        W46593  10.763   6.570   1.714 -0.1399 -0.1625 -0.1381
29070W        W46594  12.742   1.212   5.383 -0.1844  0.0071  0.1350
29071W        W46595   3.217   0.694   0.556  0.0592 -0.1230 -0.4070
29072W        W46596   6.464  13.426  13.779  0.1791  0.0123 -0.0048
29073W        W46597   4.085   6.570  12.569 -0.3218  0.0330 -0.4257
29074W        W46598  17.059   1.322  11.848 -0.0244 -0.1184 -0.1504
29075W        W46599  11.418   0.826  12.226  0.1004 -0.4215 -0.1422
29076W        W46600  16.979  11.876   2.549 -0.4793 -0.1547  0.0504
29077W        W46601   7.212  12.907  16.126  0.0696 -0.2103  0.1895
29078W        W46602   9.075  12.341  11.111 -0.2341 -0.3484  0.3418
29079W        W46603  14.015   0.865  13.385  0.0811  0.2056  0.1576
29080W        W46604  11.231   1.766   4.356 -0.3279  0.0121  0.0470
29081W        W46605  12.850   2.498  12.501  0.1994  0.0788 -0.5247
29082W        W46606  11.554   7.712   2.428  0.2297  0.1049 -0.0214
29083W        W46607  16.219   2.945   1.167  0.0227 -0.1397 -0.0306
29084W        W46608  16.011   5.908   3.782  0.0537  0.2460  0.3057
29085W        W46609   9.632  14.642  13.223 -0.0358  0.0970  0.0559
29086W        W46610  16.837   6.438  11.434 -0.2570 -0.0433 -0.1896
29087W        W46611   3.262  16.767  12.427  0.0035  0.1427 -0.0986
29088W        W46612   0.204   8.447  14.942 -0.0995 -0.1468  0.0175
29089W        W46613   2.548  12.317   2.682 -0.0044  0.1314 -0.2625
29090W        W46614   7.897   0.257  14.079 -0.0253 -0.0660  0.0188
29091W        W46615   0.969   3.331   4.689  0.3284  0.2488  0.2380
29092W        W46616   6.687  16.604  16.053 -0.1852 -0.0231  0.1308
29093W        W46617  13.728   8.808  16.248  0.1871 -0.1423 -0.0541
29094W        W46618  17.768   0.862  13.010  0.1200  0.0341 -0.2622
29095W        W46619   5.711   3.976  15.194 -0.2252 -0.0080  0.0038
29096W        W46620   1.402   9.011   1.934  0.1239 -0.0096  0.1258
29097W        W46621  12.400  15.904   6.032  0.0942 -0.1324 -0.0518
29098W        W46622   6.584   0.249   2.399 -0.0143 -0.0694  0.3096
29099W        W46623   2.660   0.097   1.615 -0.0151 -0.0618 -0.0827
29100W        W46624   7.539  13.968   1.304 -0.2812 -0.2961  0.3028
29101W        W46625  17.653  11.195   1.327 -0.0891  0.0491  0.1140
29102W        W46626   4.799   4.607   0.288 -0.1139  0.0828  0.0008
29103W        W46627   9.591  16.126   0.370 -0.0533  0.0543 -0.1461
29104W        W46628  17.026   7.296  16.146  0.0702 -0.0109 -0.1401
29105W        W46629   9.963   8.192  16.020 -0.0237 -0.1040  0.1639
29106W        W46630   3.010  16.952  13.964 -0.0140  0.1033 -0.2612
29107W        W46631   1.283   2.885   2.653  0.1375  0.1689  0.2230
29108W        W46632  14.814   2.875  15.910 -0.0234  0.1369  0.2599
29109W        W46633  12.686   6.574  13.464  0.3697 -0.1189 -0.1143
29110W        W46634  10.760   5.825   1.222 -0.0822  0.1632 -0.0045
29111W        W46635  10.210  13.280   6.136  0.1401 -0.2540 -0.2614
29112W        W46636  17.904   1.891  13.703 -0.1100  0.1927  0.1353
29113W        W46637   6.002  15.597  12.689  0.0416 -0.0992  0.0300
29114W        W46638  13.326   7.530  12.981  0.0647 -0.2068  0.1596
29115W        W46639  11.298   2.140   3.952  0.1276  0.1107 -0.1569
29116W        W46640   0.165  13.840  14.263 -0.0933  0.1848  0.0031
29117W        W46641  15.846  10.563  15.483 -0.0217  0.1456  0.1727
29118W        W46642   0.359   1.979   4.639 -0.0517  0.2228 -0.2840
29119W        W46643  14.575  12.894   2.826 -0.0134  0.0522  0.3262
29120W        W46644   5.546   9.236   1.368  0.6636  0.1278  0.2066
29121W        W46645  15.168   7.038   3.684 -0.5226  0.2787  0.4222
29122W        W46646  14.727   7.851   4.550 -0.1205  0.1334 -0.1428
29123W        W46647   7.604   0.493   3.651  0.1294 -0.0978 -0.0437
29124W        W46648   6.804   3.897  14.042 -0.0017 -0.0424 -0.3573
29125W        W46649   2.985  13.978  16.436 -0.0804 -0.1711  0.1293
29126W        W46650  15.798   8.860   2.606  0.2022  0.3140 -0.3264
29127W        W46651  16.062   5.401  11.651  0.3849 -0.2503 -0.0114
29128W        W46652  16.142   2.967   2.487 -0.1384 -0.3689 -0.3945
29129W        W46653  14.798  11.382  15.185  0.0873 -0.0537 -0.1710
29130W        W46654   9.818   5.661   1.184 -0.0051 -0.3572  0.2164
29131W        W46655  12.860   1.232  15.910 -0.0353 -0.1878 -0.0258
29132W        W46656  12.745   2.269  13.458 -0.1245  0.0878  0.0018
29133W        W46657   4.165   1.387   2.165  0.0519 -0.0796 -0.0022
29134W        W46658   9.774   7.128  14.030  0.1478  0.2052  0.4808
29135W        W46659   6.269   3.488  14.888  0.0663  0.1470 -0.5089
29136W        W46660   6.395  15.853   6.180 -0.2159 -0.2338  0.0411
29137W        W46661   2.108   1.155   0.850  0.2347  0.0514  0.0347
29138W        W46662   5.572   9.918  11.746 -0.0666 -0.0857 -0.1864
29139W        W46663   3.253   3.525  15.993  0.1652 -0.2484  0.1160
29140W        W46664   8.822   3.767   2.431 -0.0437 -0.0412 -0.0227
29141W        W46665  10.132   2.703   5.129 -0.2870  0.1192 -0.0206
29142W        W46666  16.399   9.909  15.593  0.0849 -0.1392 -0.0481
29143W        W46667   6.640  10.097   2.225 -0.2324 -0.1251  0.2760
29144W        W46668   8.580  15.319  14.904 -0.0551 -0.5615 -0.2122
29145W        W46669   1.552  16.047   4.125 -0.0064  0.0421  0.2400
29146W        W46670   7.871  17.740   4.880  0.1060 -0.1474 -0.0900
29147W        W46671   4.248  17.282   4.369 -0.1443 -0.0025  0.0645
29148W        W46672   8.757  10.108   1.071 -0.1611  0.1724  0.0872
29149W        W46673  17.338   6.868  16.030 -0.1966  0.1205 -0.1884
29150W        W46674   7.249   5.795   4.886 -0.0931 -0.2341  0.3931
29151W        W46675  15.311  16.240   2.653 -0.2278 -0.0524 -0.0618
29152W        W46676  12.894   1.218   3.594  0.1592 -0.1187 -0.2628
29153W        W46677  17.176  11.679  13.433 -0.1195 -0.0019  0.1061
29154W        W46678   5.205  13.280  13.729  0.3550  0.2972  0.0611
29155W        W46679  15.133   0.350  15.037  0.0851  0.0532 -0.1510
29156W        W46680  16.136   5.190  14.996  0.1347 -0.3598 -0.2100
29157W        W46681  13.281   6.475  11.841 -0.0234 -0.2042  0.0483
29158W        W46682  14.356  13.949  15.869 -0.2937  0.2598  0.1918
29159W        W46683   2.859  12.065  12.885  0.2179 -0.0744 -0.1405
29160W        W46684  15.725   6.838   3.502  0.1107 -0.2860 -0.3289
29161W        W46685   2.528  12.054   4.306 -0.0184  0.0876 -0.2463
29162W        W46686   0.190   7.906   3.635  0.2606 -0.0051  0.0365
29163W        W46687  17.138   3.544   5.170  0.1748 -0.2782  0.0043
29164W        W46688  15.698   3.761   1.491 -0.1079 -0.1248  0.1543
29165W        W46689  17.515   1.246   2.799 -0.1186 -0.1808 -0.0560
29166W        W46690   0.366   8.784  13.723  0.0257 -0.2879 -0.2795
29167W        W46691   3.976   2.206   5.291 -0.0704 -0.1906 -0.2234
29168W        W46692   3.110   5.149   0.195  0.1160 -0.4822 -0.3036
29169W        W46693  12.606  17.174  13.643  0.1924 -0.1091 -0.0152
29170W        W46694   1.383   1.864  15.830  0.3215  0.0346  0.2146
29171W        W46695  11.725  10.709   2.664 -0.1846 -0.0567  0.0449
29172W        W46696  14.003   7.567  14.450 -0.0684 -0.0498 -0.0379
29173W        W46697   1.358   6.424  10.842  0.1877 -0.1795 -0.1367
29174W        W46698  17.949   7.403   1.977  0.0042 -0.1065 -0.0549
29175W        W46699   0.481  11.586  16.157 -0.0630  0.1116 -0.0256
29176W        W46700  11.804   4.967   1.315  0.3366  0.0628  0.0206
29177W        W46701   5.696  14.763   0.330  0.1904 -0.1121  0.4363
29178W        W46702   8.014   9.365  14.636 -0.1404 -0.0222  0.0587
29179W        W46703   4.079   8.923  13.709 -0.2366  0.0558 -0.0550
29180W        W46704  14.980  16.804  11.660 -0.0535  0.1911 -0.1649
29181W        W46705   3.389  14.258   4.549 -0.0228  0.0034  0.0033
29182W        W46706  12.131  14.406   2.189  0.2466 -0.1524  0.1190
29183W        W46707   8.390  16.552  16.461 -0.2247  0.1203  0.2018
29184W        W46708   3.327   8.638  13.660 -0.2319 -0.0057  0.1518
29185W        W46709   5.685   9.786  13.184 -0.3415 -0.0267 -0.0529
29186W        W46710   8.243  15.380   4.017 -0.0961 -0.0572  0.0262
29187W        W46711   4.837   0.918   0.087 -0.2458 -0.3317  0.0739
29188W        W46712  17.712   2.057  11.795  0.3669  0.0438 -0.1876
29189W        W46713  13.137   1.755   0.329  0.2049  0.3243  0.2561
29190W        W46714  13.249   3.793  12.290 -0.1316 -0.0618 -0.0134
29191W        W46715   9.454   7.743   0.018 -0.2542  0.1200  0.1530
29192W        W46716   0.834   2.986   2.131 -0.0043  0.0566 -0.1856
29193W        W46717  10.423   4.703  15.441 -0.0748  0.3715  0.0526
29194W        W46718  10.932   7.924   0.756 -0.0229 -0.0529  0.0809
29195W        W46719   3.483  14.160  16.393  0.0899 -0.1198 -0.0338
29196W        W46720   2.075  17.142  14.330  0.2593 -0.1338 -0.2275
29197W        W46721  17.033   1.240   2.827  0.0781  0.0369 -0.1253
29198W        W46722   5.237   1.614  12.292 -0.0438  0.1083  0.1425
29199W        W46723  13.116  14.927  12.963  0.0507  0.2710 -0.1412
29200W        W46724   9.872   5.748   4.750  0.1326  0.0672 -0.0029
29201W        W46725   0.960  15.320  11.792 -0.2196 -0.0730  0.1871
29202W        W46726  14.625   5.362   4.476  0.1553 -0.0730 -0.1310
29203W        W46727   0.185   7.089   1.657 -0.2572 -0.2410  0.0028
29204W        W46728  11.254   5.805   1.192  0.4112 -0.1746  0.0502
29205W        W46729   0.124   4.660  14.982  0.0493  0.1815  0.1278
29206W        W46730   5.148  17.514  11.262  0.0017  0.0153  0.3089
29207W        W46731  13.945  17.492   5.137 -0.1934 -0.1819  0.0652
29208W        W46732   0.620   8.004  12.257  0.1465 -0.1451 -0.5611
29209W        W46733   5.396   8.640   3.262 -0.0660  0.0403  0.1379
29210W        W46734  17.742   3.506   0.128 -0.0748  0.0712 -0.2562
29211W        W46735   6.954  11.480   0.530 -0.0877 -0.0467  0.0620
29212W        W46736  10.022  12.135   2.584  0.3147 -0.0035  0.1017
29213W        W46737   9.797  16.424   2.266  0.0113  0.2014  0.0163
29214W        W46738   9.579  12.861  10.748  0.2485  0.1675 -0.3115
29215W        W46739   7.096   5.531  15.058  0.0657 -0.1256  0.0581
29216W        W46740   8.801   8.334   0.375 -0.1610 -0.1365 -0.5008
29217W        W46741   9.955   4.333   2.412  0.0731 -0.2611 -0.0302
29218W        W46742  16.870   2.626   2.972 -0.0648 -0.1603 -0.2767
29219W        W46743   7.773  10.388   0.216  0.1878 -0.0535  0.1915
29220W        W46744  14.313  16.134  16.225 -0.0659 -0.0365  0.2439
29221W        W46745  14.761   4.710   3.174 -0.2284 -0.1619  0.1396
29222W        W46746   2.158  13.593  14.327 -0.2025 -0.0340  0.2613
29223W        W46747   2.666   8.366   3.451  0.1380 -0.0045 -0.1139
29224W        W46748  17.182  11.455  15.651  0.3493 -0.2254  0.1667
29225W        W46749  17.104   1.761   1.086  0.0717 -0.0531 -0.1464
29226W        W46750  11.169  16.721  12.508 -0.2775  0.2415 -0.2183
29227W        W46751   1.477   9.717  15.178  0.3396  0.3601 -0.2492
29228W        W46752   7.601  13.214   2.069 -0.1962 -0.0030 -0.0857
29229W        W46753   4.488   9.975  16.397  0.3059  0.1502  0.1600
29230W        W46754   9.016  15.679  14.988 -0.0936 -0.2059 -0.3157
29231W        W46755  10.420   3.060   5.294  0.1773  0.2067  0.2220
29232W        W46756   2.027   7.568   3.247 -0.3518  0.0306  0.0982
29233W        W46757  17.925  12.288  15.335 -0.0902 -0.1705  0.1602
29234W        W46758  14.482  13.049   0.400 -0.2705 -0.2924  0.1330
29235W        W46759   7.788  12.349  15.512 -0.0237  0.1050 -0.1283
29236W        W46760   5.113  13.035  14.303 -0.1467  0.3136 -0.1944
29237W        W46761  17.240   7.492   4.082  0.2014 -0.0488  0.1177
29238W        W46762  17.398   1.847   0.153 -0.0865 -0.0469 -0.0355
29239W        W46763   9.337   5.650  16.383  0.0223 -0.2787 -0.0453
29240W        W46764   4.886   8.010  15.566 -0.1917  0.1967 -0.0952
29241W        W46765  10.034   6.748   3.305 -0.2610  0.0345  0.3440
29242W        W46766   0.706   2.480  15.544  0.0153  0.0847 -0.3136
29243W        W46767  12.020  10.540  11.588 -0.0934  0.4779  0.0232
29244W        W46768   6.357   8.206  11.736 -0.0024 -0.3098  0.0817
29245W        W46769   1.485  14.821   4.543 -0.2065  0.2109  0.1357
29246W        W46770  17.758  10.713   3.903 -0.0778 -0.1062  0.1012
29247W        W46771  13.049  13.590   4.717  0.1395  0.3185 -0.0264
29248W        W46772  10.504   8.197   0.673 -0.2799  0.1693  0.4343
29249W        W46773   8.723  12.521   1.368  0.2095  0.2092  0.0569
29250W        W46774   1.589   4.467  14.172 -0.0052 -0.1424  0.0097
29251W        W46775   8.144   1.357   2.559  0.0908  0.1040  0.3312
29252W        W46776   9.266  13.368  15.298  0.0272 -0.0863  0.0015
29253W        W46777   0.986  14.733  15.045  0.2810  0.6387 -0.2044
29254W        W46778  17.533  16.962   0.941 -0.3694 -0.2986 -0.1503
29255W        W46779  15.296  10.489  12.642  0.1770  0.3651 -0.0490
29256W        W46780   6.126  13.588   1.542 -0.2510 -0.1027 -0.0677
29257W        W46781  15.107  10.868   1.011  0.0642  0.0549  0.0281
29258W        W46782  13.209   1.113   4.302  0.1635  0.0425 -0.2192
29259W        W46783  14.708  14.831  13.488  0.0650 -0.2669  0.0418
29260W        W46784   5.648  13.179  15.890 -0.2559  0.1262  0.1079
29261W        W46785   6.181  12.645  14.520 -0.0634  0.1578  0.2353
29262W        W46786   9.248   6.197  15.195 -0.1727 -0.1980 -0.3097
29263W        W46787  13.173  12.604  15.829  0.2842  0.1072 -0.1223
29264W        W46788   4.868   6.345   3.662 -0.1525 -0.1384  0.2735
29265W        W46789   5.032   5.319  11.386  0.0115  0.0482  0.1691
29266W        W46790   0.358  15.106  15.951  0.0025  0.3403 -0.0439
29267W        W46791  15.953   5.452   4.187  0.0862 -0.2024 -0.0947
29268W        W46792   3.387   2.342   1.189 -0.0692 -0.3243  0.1176
29269W        W46793   4.649  16.397   1.118 -0.1318 -0.1702 -0.0366
29270W        W46794   8.419   1.072  16.455 -0.3103  0.0308  0.0003
29271W        W46795  12.834   7.314  14.799  0.0526 -0.1547  0.1252
29272W        W46796   9.285   1.056   3.688 -0.2872  0.0148 -0.0067
29273W        W46797   2.877  16.049   4.188  0.2335 -0.0694  0.1096
29274W        W46798   3.223  16.693   3.088 -0.0737 -0.3047  0.0361
29275W        W46799  15.070  11.667  11.845  0.1557  0.2700  0.0049
29276W        W46800   0.908  10.647   4.297 -0.2776 -0.1012 -0.0626
29277W        W46801  17.853  12.955  15.577  0.1891 -0.0880  0.2501
29278W        W46802  12.219   3.733  16.091  0.2115  0.3989 -0.2684
29279W        W46803  14.259  17.265   5.441  0.2979 -0.2020  0.3566
29280W        W46804   3.647   6.377   6.060 -0.2444 -0.3896 -0.1637
29281W        W46805   9.092  11.399   0.629  0.0950 -0.2648  0.4367
29282W        W46806  12.554   9.478  16.099  0.1966  0.1161 -0.3193
29283W        W46807   3.289  10.391   3.804 -0.3368 -0.0383 -0.0793
29284W        W46808  16.852   1.659   0.644 -0.0739  0.0058  0.1183
29285W        W46809   9.991  15.512  15.258 -0.0302  0.0584 -0.0368
29286W        W46810  16.608  16.595   0.220  0.0937  0.3228 -0.2818
29287W        W46811   4.324  16.482  15.458 -0.1586  0.1673 -0.0245
29288W        W46812   1.293   9.461  11.469  0.4956  0.0595  0.0410
29289W        W46813   5.838   4.055   0.913 -0.0723 -0.0466 -0.0292
29290W        W46814   3.004  13.374   2.908 -0.0306 -0.0190 -0.3627
29291W        W46815   7.528  16.300  13.270 -0.1182 -0.3191  0.2360
29292W        W46816   4.103  17.615  13.098  0.0340 -0.1955 -0.0818
29293W        W46817  16.339  14.881  12.636  0.0948 -0.2577 -0.0679
29294W        W46818   7.324  14.207  15.900 -0.1470  0.2271  0.0494
29295W        W46819   1.229  16.251  13.812  0.0142 -0.0882 -0.4445
29296W        W46820   3.790   4.192  13.191 -0.2385  0.5308  0.1778
29297W        W46821  13.134   5.581   2.019 -0.0613 -0.1236  0.1278
29298W        W46822   1.355  15.193   0.860 -0.0266  0.0341  0.1622
29299W        W46823  16.406   6.973  12.485 -0.1165 -0.0691 -0.2056
29300W        W46824   3.030   6.828  14.850  0.1464  0.1415  0.0848
29301W        W46825   7.702  11.876  16.095  0.1802  0.0487  0.0803
29302W        W46826  16.876   6.456   0.373  0.0421 -0.1091  0.1005
29303W        W46827   6.712   3.699   5.747 -0.0322 -0.3593  0.0650
29304W        W46828   0.684   5.518  16.129 -0.4252  0.0373  0.0248
29305W        W46829   7.592   6.946   0.305 -0.0178 -0.1275  0.0223
29306W        W46830   4.665  11.444   3.393 -0.0811  0.2579  0.0736
29307W        W46831  11.741   0.505  11.972  0.2771 -0.2519 -0.3214
29308W        W46832   3.766   0.016   2.910  0.0882  0.1388 -0.1019
29309W        W46833   7.334  17.931  13.577  0.2483  0.0724  0.0169
29310W        W46834   0.084  13.162   4.186 -0.0756 -0.2515 -0.1791
29311W        W46835   0.162   2.641  12.246  0.0894 -0.2292  0.2215
29312W        W46836   7.482   2.443   4.196 -0.0722 -0.0208  0.2685
29313W        W46837  16.643  10.646  15.256  0.1028  0.1428  0.0708
29314W        W46838   1.653   5.852  13.945 -0.1082 -0.1005 -0.0817
29315W        W46839   8.717   5.197  15.798  0.0425  0.1698 -0.0092
29316W        W46840  13.120  13.905   2.791  0.0165 -0.0992 -0.3634
29317W        W46841  11.085   9.262   1.925  0.2035  0.0930  0.3303
29318W        W46842   4.766   8.196  13.316  0.0658 -0.0774  0.0971
29319W        W46843  13.443   0.041  16.348  0.1861  0.1584 -0.2707
29320W        W46844  11.232   7.827  14.465 -0.1686  0.3139  0.1528
29321W        W46845   3.419   4.076  15.963 -0.2052  0.1396  0.4427
29322W        W46846  15.946  16.710   3.785  0.1174 -0.1225  0.0723
29323W        W46847   2.543   0.988   3.793  0.2125  0.0803 -0.1596
29324W        W46848   2.002   6.650   3.345  0.0977  0.2220  0.0284
29325W        W46849   0.271  12.350  14.904  0.2654  0.0040 -0.0055
29326W        W46850  15.827  13.067   1.696 -0.0622  0.1817 -0.0189
29327W        W46851   5.163  12.783  12.492 -0.0976 -0.2522 -0.1010
29328W        W46852   0.219  17.241  14.277 -0.0054 -0.1027  0.0160
29329W        W46853  17.195   4.962   3.904  0.2609 -0.3119  0.1824
29330W        W46854   6.186  10.744  12.105 -0.0653 -0.2693 -0.1049
29331W        W46855  10.519  14.151  13.009  0.2172 -0.3535 -0.3076
29332W        W46856   8.754   0.779  12.263 -0.1637 -0.0338  0.1766
29333W        W46857   7.445   3.988  11.212  0.1390  0.0323 -0.0724
29334W        W46858   0.573  16.322   0.949  0.0184 -0.0745  0.2686
29335W        W46859   7.839  17.896  13.685  0.1324  0.3653  0.0787
29336W        W46860  10.742  14.647  15.054  0.0346  0.1344  0.1095
29337W        W46861   3.774   2.432  15.797 -0.1645 -0.3826 -0.2812
29338W        W46862   8.402   9.176   0.734  0.0677 -0.1125 -0.1157
29339W        W46863   8.266   9.729  11.707 -0.3594  0.0586  0.1567
29340W        W46864  16.804  13.803   4.665 -0.2400  0.0178  0.1770
29341W        W46865  15.588   5.713  11.600  0.1577  0.0222  0.1559
29342W        W46866   0.966   1.775   2.234 -0.1377  0.0596  0.2163
29343W        W46867   6.151   9.488   3.274  0.0356 -0.0464  0.1020
29344W        W46868   6.286   4.766  13.533  0.3724 -0.0147  0.1895
29345W        W46869  13.934   7.182  16.121 -0.1341 -0.0561  0.2527
29346W        W46870   9.129  12.699  14.761 -0.0430 -0.2189 -0.0842
29347W        W46871   3.797  10.090   0.442 -0.3202  0.0582  0.0272
29348W        W46872  13.835   4.526  11.937  0.3254  0.0310 -0.0069
29349W        W46873  10.743  16.654   3.642 -0.1485  0.1484 -0.2234
29350W        W46874  13.180   3.625   3.065  0.0605 -0.0476 -0.0942
29351W        W46875  17.644   9.619   2.038 -0.0336 -0.1287  0.1190
29352W        W46876   0.260   7.761   0.519 -0.1361  0.0839  0.0858
29353W        W46877  16.683  16.122  14.858  0.0233  0.1087  0.0382
29354W        W46878   4.235  15.642  13.933  0.2639 -0.1448 -0.1687
29355W        W46879  17.098  17.614   2.400 -0.0107  0.3424 -0.2057
29356W        W46880  12.265  14.723   5.493 -0.0661 -0.0267  0.0371
29357W        W46881  10.205  11.168  15.779 -0.1339 -0.1012 -0.1171
29358W        W46882  17.941   8.944  15.806 -0.2925  0.3817  0.0408
29359W        W46883   3.754   6.085   0.668  0.0462  0.1946  0.0894
29360W        W46884   9.707   6.094  13.087 -0.2272 -0.0125  0.1368
29361W        W46885   5.837   2.658  15.984 -0.1330  0.0614 -0.0746
29362W        W46886  11.069   2.335  13.264 -0.2217  0.0285  0.1366
29363W        W46887   5.699  16.038  13.709  0.0608  0.0914 -0.1236
29364W        W46888   0.069   5.543  11.430  0.2415  0.1816 -0.2232
29365W        W46889   5.647  11.920   1.765  0.0329  0.2297 -0.3176
29366W        W46890  10.328   2.245  14.250 -0.1004  0.0781  0.1155
29367W        W46891  17.701   1.237  14.394 -0.1833 -0.3170  0.0327
29368W        W46892  13.920  13.241  11.335  0.2402 -0.0297 -0.0637
29369W        W46893  16.543   2.526  13.294  0.0012  0.5186 -0.0159
29370W        W46894   7.285   6.482   0.169 -0.4254 -0.0635  0.3369
29371W        W46895   9.270  17.633   3.710  0.0682  0.0615  0.1020
29372W        W46896   2.030   7.030   0.196 -0.3628 -0.0362 -0.1896
29373W        W46897   1.201  13.151  12.636 -0.0802  0.2060 -0.0280
29374W        W46898   9.264   4.009  13.689  0.2145  0.0177  0.2167
29375W        W46899   4.638  12.227   3.698  0.0194 -0.1169  0.1428
29376W        W46900   4.317  10.629   1.735 -0.5485  0.0031 -0.0211
29377W        W46901   9.667   0.704   4.034 -0.0341  0.1487 -0.4884
29378W        W46902  15.331  14.257   1.022 -0.0861 -0.4104 -0.3101
29379W        W46903   3.157  12.580   0.586 -0.1243  0.0678  0.0098
29380W        W46904  16.510  12.703  11.986  0.0019 -0.1849  0.0072
29381W        W46905  14.381  13.076  13.974  0.4533 -0.1398  0.0457
29382W        W46906  15.527   4.253  12.051 -0.0136 -0.0683  0.3314
29383W        W46907  11.732  11.063   4.677  0.2838 -0.1116  0.1143
29384W        W46908  16.764   4.983   0.780 -0.0064 -0.1944 -0.0387
29385W        W46909  12.141  14.746  14.807 -0.2508 -0.0062 -0.0135
29386W        W46910  14.373   1.858  15.045  0.0660  0.1342  0.0616
29387W        W46911   3.894   2.209   1.562 -0.2098  0.1159  0.1394
29388W        W46912  11.534   8.544  12.248  0.0133  0.0531 -0.0969
29389W        W46913   4.125  13.261  12.616  0.0743  0.0445 -0.0077
29390W        W46914  15.529  16.774  11.862 -0.0332  0.1442  0.0698
29391W        W46915   0.371   6.591  14.195  0.0889  0.0077 -0.0238
29392W        W46916   8.094   2.096  11.432  0.2267 -0.0084 -0.1594
29393W        W46917  12.524   9.726   4.173 -0.0533 -0.2597 -0.0089
29394W        W46918   0.065   5.986  13.179  0.1125 -0.0538  0.1366
29395W        W46919  13.590   4.110   0.805  0.0452  0.3528 -0.0912
29396W        W46920   7.583   3.987   2.300  0.5537  0.1035 -0.1334
29397W        W46921   0.005  13.377   3.300  0.1772 -0.1914  0.1977
29398W        W46922   1.309  16.703  13.614 -0.5224  0.3937 -0.1746
29399W        W46923   8.195   5.211   1.058  0.1290 -0.0576  0.0635
29400W        W46924  12.335   5.299   1.324  0.2895  0.1089 -0.2785
29401W        W46925   9.968  15.089   0.524  0.0463  0.0842  0.2321
29402W        W46926  10.215  17.876  15.981 -0.0921  0.3190  0.2029
29403W        W46927   6.555  16.103   3.495  0.1554 -0.2080  0.4699
29404W        W46928   6.386  14.425  13.963  0.2484 -0.1603 -0.0265
29405W        W46929  15.923  17.717  12.340  0.0271  0.2003  0.0207
29406W        W46930  10.963   8.919   1.060 -0.1747 -0.0624  0.1585
29407W        W46931  12.238   3.781   1.911 -0.1015  0.0431 -0.0932
29408W        W46932  12.234   1.779   5.672  0.0663  0.1995 -0.4246
29409W        W46933   8.497   4.167   1.142 -0.0363 -0.2417  0.0321
29410W        W46934  13.478  16.444  12.144  0.1746  0.2988  0.0735
29411W        W46935   5.672   2.299  14.907  0.2326  0.0244 -0.2755
29412W        W46936   2.959  14.819  15.415  0.1481 -0.3012 -0.0882
29413W        W46937   5.571  11.018  14.550  0.3981  0.1583 -0.0923
29414W        W46938  14.811   1.444   0.243 -0.2029 -0.0106  0.1274
29415W        W46939  10.596  16.956  14.975 -0.2704  0.0621  0.0057
29416W        W46940  15.030   3.995   4.498  0.1361 -0.0034 -0.0613
29417W        W46941   7.791   8.941  13.270  0.1555 -0.3302  0.1193
29418W        W46942  12.824  14.820  12.467 -0.0540  0.0431  0.1384
29419W        W46943   3.614  13.526   1.551 -0.1988 -0.0712 -0.0744
29420W        W46944   5.304   4.129  14.254  0.2115 -0.1435  0.1005
29421W        W46945   1.956   3.885  11.444  0.2754 -0.0320 -0.0666
29422W        W46946   7.526   6.051  11.842 -0.1734  0.1724  0.1128
29423W        W46947   7.633   9.924  13.967  0.1080  0.1360  0.2407
29424W        W46948   4.384   0.998   4.024  0.3031 -0.0212 -0.3065
29425W        W46949  12.255   2.227  13.739  0.2104 -0.2566  0.0993
29426W        W46950   5.738   7.087  13.806  0.0273  0.0183  0.0415
29427W        W46951  15.152  14.664  11.520  0.0614  0.0931 -0.0377
29428W        W46952  13.055   8.836  13.771  0.2891 -0.1501  0.0159
29429W        W46953   9.002  11.318   4.297 -0.2468  0.1673  0.3691
29430W        W46954   8.410   2.585  12.811  0.4198  0.0995 -0.0574
29431W        W46955   7.756   6.586  11.082 -0.0219 -0.2143 -0.4103
29432W        W46956   0.735  16.455  12.527  0.1214 -0.1279 -0.2878
29433W        W46957   1.241  10.540   1.163  0.0933 -0.0953  0.1158
29434W        W46958   5.752   5.308  13.554 -0.1630  0.2030 -0.2152
29435W        W46959   0.451   1.950  13.653  0.4491 -0.0234 -0.0913
29436W        W46960  13.222   8.765  16.360  0.0561 -0.1586  0.1409
29437W        W46961   9.787   0.329   1.483 -0.2882 -0.1020  0.4616
29438W        W46962  14.939  12.777  15.570 -0.2515  0.0716 -0.0504
29439W        W46963   5.031  15.497  13.284 -0.0698 -0.1049  0.0386
29440W        W46964   9.333  15.694   2.842 -0.0679  0.1478  0.1829
29441W        W46965   2.364  13.165  11.227 -0.1231  0.1498 -0.0913
29442W        W46966   5.119  11.989  14.509  0.1637  0.1631  0.3018
29443W        W46967  11.401   1.650  11.440 -0.3500  0.1078 -0.0553
29444W        W46968   3.768  12.674   5.144 -0.1205  0.2107 -0.0345
29445W        W46969   7.332   9.854   2.786 -0.0384  0.2747 -0.1232
29446W        W46970   7.324  13.624   3.004  0.2555 -0.0833  0.1126
29447W        W46971   7.169  15.323   3.649 -0.2455 -0.2119 -0.0522
29448W        W46972  14.614   9.186  11.362  0.3200 -0.3582  0.0494
29449W        W46973  14.172  11.031  13.663  0.0818 -0.2098  0.1549
29450W        W46974   6.555   2.322   2.034 -0.2404 -0.2035 -0.1212
29451W        W46975   8.565   5.533   3.468  0.4436  0.0449 -0.2471
29452W        W46976  16.521   5.758  13.033 -0.3178  0.1097  0.0369
29453W        W46977   4.504   5.069  14.579  0.0452 -0.0411 -0.0029
29454W        W46978   9.893  17.933  12.976  0.0729  0.1387  0.0939
29455W        W46979  13.776  15.979  14.178  0.0741  0.1494  0.0837
29456W        W46980  12.566   5.238   2.585 -0.0408  0.1515 -0.1957
29457W        W46981   8.294  13.552   0.410  0.1207  0.0207 -0.2030
29458W        W46982  12.763   0.912  13.738 -0.1444 -0.0986  0.1443
29459W        W46983   7.747   3.335  11.778  0.1358  0.2122  0.0935
29460W        W46984  15.918  14.094  13.231 -0.1177  0.1276 -0.4256
29461W        W46985  15.348  15.382  13.612  0.1873 -0.2207 -0.1891
29462W        W46986  11.731  13.204  13.431 -0.1150  0.1480  0.1044
29463W        W46987   0.316  12.038   4.746 -0.3769 -0.4643  0.3374
29464W        W46988  11.046   4.848   3.189  0.0519 -0.1427  0.1137
29465W        W46989   6.137  14.174   2.457 -0.0843 -0.1989 -0.0933
29466W        W46990  17.906  13.796   1.643  0.2523 -0.3207 -0.0133
29467W        W46991   6.020   8.864   0.172 -0.1565  0.1475  0.4635
29468W        W46992   5.895  15.841  16.379  0.1347 -0.4368 -0.1626
29469W        W46993   3.794   3.638   0.293  0.0436  0.0881 -0.2449
29470W        W46994   0.708   0.567   2.077 -0.1556 -0.4149  0.1075
29471W        W46995  12.823   0.143   2.703 -0.0494  0.0175 -0.1473
29472W        W46996   2.545   1.463  10.584  0.0581  0.2376 -0.1646
29473W        W46997  11.374   4.165   1.764  0.1161 -0.0025  0.0618
29474W        W46998   0.598   6.420   3.676 -0.0393 -0.1077  0.1152
29475W        W46999  13.081   9.360   2.748  0.2173 -0.1330 -0.2040
29476W        W47000   1.107  12.977  14.188  0.0080 -0.3362  0.6129
29477W        W47001  13.077  12.239  16.174  0.0502  0.3301  0.1468
29478W        W47002   3.963  13.665  13.571  0.0567  0.0038 -0.2734
29479W        W47003   5.078  10.785   0.454  0.3049  0.1235 -0.1159
29480W        W47004  12.402  17.313   3.720 -0.0281  0.1953 -0.1920
29481W        W47005  11.492   7.542   1.887  0.2039  0.0256 -0.2416
29482W        W47006  17.624  16.047   0.578  0.0904  0.0593 -0.1737
29483W        W47007  12.154   2.295   4.032 -0.1303  0.0916 -0.3321
29484W        W47008  14.582   1.270   2.849  0.2416 -0.1321  0.3175
29485W        W47009  10.547   5.513   2.692  0.1869  0.1701  0.2762
29486W        W47010   5.863   7.537   2.868  0.2073 -0.1286 -0.1386
29487W        W47011  14.489   6.025  12.412  0.4764 -0.0327 -0.2043
29488W        W47012   3.191  12.601   0.035  0.1938 -0.0316  0.2248
29489W        W47013  10.917   1.797   3.730 -0.0148  0.0583  0.2699
29490W        W47014  14.417  12.220  16.242  0.2109  0.0983  0.0325
29491W        W47015  15.915  11.358  14.427  0.3265 -0.0883  0.1050
29492W        W47016  11.219   6.902  13.231  0.1991  0.3964  0.2325
29493W        W47017  11.966  11.113   1.726 -0.0183 -0.1376  0.0695
29494W        W47018   5.357   2.019   4.828 -0.1033 -0.0876 -0.0064
29495W        W47019   2.007  17.806   3.090  0.0619  0.1049 -0.1634
29496W        W47020  14.497  14.296  11.868 -0.1718  0.2718  0.2087
29497W        W47021  11.811  12.992   3.548 -0.1653 -0.3493 -0.0450
29498W        W47022  12.486   3.024  13.164  0.3502 -0.2385 -0.0354
29499W        W47023  17.463  11.764   2.606 -0.1168 -0.2881 -0.1121
29500W        W47024  16.119   1.776   3.835 -0.0233  0.0467  0.2475
29501W        W47025   9.141   7.323  16.232 -0.3112  0.1468 -0.2530
29502W        W47026  10.860  15.703  13.773 -0.2861 -0.0075  0.2081
29503W        W47027  16.007  11.521   1.719 -0.1258 -0.2421  0.2106
29504W        W47028  15.661  16.418   1.672  0.2428 -0.1994  0.1732
29505W        W47029  11.795  13.169  14.270  0.2388  0.0344 -0.2416
29506W        W47030   4.450   7.710   3.890  0.0591 -0.1697  0.1599
29507W        W47031  14.084  11.731  12.940 -0.1996  0.1027  0.0359
29508W        W47032  17.094   4.101  12.598  0.0854 -0.1778 -0.0547
29509W        W47033   6.347   4.423  15.477 -0.3338 -0.1787  0.1103
29510W        W47034   2.508   9.519   3.957  0.1492  0.3903 -0.1581
29511W        W47035   5.395  13.769   4.002 -0.2103 -0.2688 -0.2525
29512W        W47036  10.754   6.907  12.882 -0.2208  0.1421 -0.0581
29513W        W47037   2.124   7.696  13.205  0.0911  0.0621 -0.0992
29514W        W47038   2.811   0.976   2.537  0.1738  0.0509 -0.2435
29515W        W47039   7.354  13.121  15.231  0.0922  0.0302 -0.1086
29516W        W47040  17.606  11.277  15.689 -0.1861 -0.3966 -0.2103
29517W        W47041   6.345   0.356   1.705  0.3521  0.2700 -0.1330
29518W        W47042   4.037   2.813   0.190 -0.0160  0.0076  0.1985
29519W        W47043   4.534  13.754  15.735  0.1503 -0.1797 -0.0242
29520W        W47044  16.509   2.865  13.675  0.1722  0.0485  0.1382
29521W        W47045   9.476   0.120   4.154  0.0760  0.0961 -0.1310
29522W        W47046  14.458  11.795   1.245 -0.1752  0.0404  0.0329
29523W        W47047  11.434  15.205   4.150  0.0877  0.2586 -0.2706
29524W        W47048   9.589  10.478  12.308  0.1551 -0.1047  0.0913
29525W        W47049   8.338   2.266  15.387 -0.0629  0.1621  0.1051
29526W        W47050  14.164  15.883  13.110  0.0980  0.0564 -0.0872
29527W        W47051   8.584   8.400   5.049  0.1009 -0.1772 -0.0318
29528W        W47052   7.083   3.506  12.533 -0.0139  0.0345 -0.1601
29529W        W47053  14.847   1.293  10.517 -0.1444 -0.3418  0.0494
29530W        W47054  11.856  11.638   5.336  0.1255 -0.0325  0.1053
29531W        W47055   7.275  16.022  15.975  0.0163  0.2359  0.0217
29532W        W47056  14.200  16.373   2.037  0.0751  0.1089 -0.3143
29533W        W47057  11.150   6.308  11.460 -0.3044  0.1312 -0.1297
29534W        W47058  16.228  12.021  15.417 -0.2292  0.2064 -0.0573
29535W        W47059   1.694  13.833  16.223 -0.1400 -0.3219 -0.2955
29536W        W47060  16.752  16.129  14.340  0.0776 -0.0699 -0.1358
29537W        W47061   6.281   8.115   5.126 -0.1795 -0.0941 -0.0055
29538W        W47062  11.828   7.935   1.133 -0.0333 -0.5475  0.2802
29539W        W47063  14.480   6.475   1.405  0.1565 -0.2097 -0.0673
29540W        W47064   8.830   0.215  12.160  0.3385 -0.2943 -0.1650
29541W        W47065   2.172   9.475   2.994  0.0147  0.0202 -0.0071
29542W        W47066   1.718   3.060   5.277 -0.1951 -0.3910 -0.2358
29543W        W47067  16.465   4.228   4.746 -0.1149  0.0817 -0.0555
29544W        W47068  16.739  17.913   2.688  0.1118  0.0507 -0.1349
29545W        W47069  14.568   4.030   4.436 -0.2547 -0.2900  0.0773
29546W        W47070   9.456  14.589  12.318  0.1022 -0.1792  0.0194
29547W        W47071  17.078  11.134  11.897 -0.0663 -0.1039  0.0367
29548W        W47072   7.988  14.666   0.766 -0.2294 -0.0411  0.0288
29549W        W47073   6.541   1.806   3.470  0.0567  0.0682  0.1382
29550W        W47074  10.687  10.113   1.592  0.2040  0.1012 -0.3213
29551W        W47075  11.478   8.013  13.198 -0.2546 -0.2657  0.0887
29552W        W47076   1.310   3.512  15.080  0.1268  0.1528  0.1286
29553W        W47077   3.334   7.010   4.668  0.1639 -0.0739  0.3046
29554W        W47078   5.679  17.206   2.929  0.2564 -0.0326 -0.0720
29555W        W47079   0.874   1.091   2.026 -0.0794 -0.0908  0.0951
29556W        W47080   6.732   3.573   3.690 -0.0058 -0.0244 -0.0493
29557W        W47081  16.231   4.133   0.628  0.2571  0.2243  0.0125
29558W        W47082  16.980   9.206  15.662 -0.1034  0.0233  0.2796
29559W        W47083   5.813   2.963  14.811  0.0131  0.0072 -0.2320
29560W        W47084   5.498   3.547   1.561 -0.0925  0.1738  0.0406
29561W        W47085  11.025  12.736  13.271  0.1436 -0.0294  0.1401
29562W        W47086  13.245  10.549  13.171  0.1363  0.4239 -0.3321
29563W        W47087   8.504   6.683   4.924 -0.0949 -0.0620 -0.0096
29564W        W47088   5.421   1.080   1.739 -0.0259 -0.0509  0.2815
29565W        W47089  15.188   9.830   1.357 -0.2559 -0.0020  0.2153
29566W        W47090   2.551   0.353   2.420 -0.2234 -0.0476 -0.2061
29567W        W47091   1.384  15.203  14.405 -0.0379  0.0561 -0.0005
29568W        W47092   7.884   8.480  13.571  0.1423 -0.0716  0.1808
29569W        W47093   8.113   9.364  15.769  0.2095 -0.3587  0.5284
29570W        W47094  16.741  12.799   1.349  0.0570 -0.1646  0.2406
29571W        W47095  16.930   6.442  13.011 -0.1584 -0.0556  0.1687
29572W        W47096  11.613  17.096   1.644 -0.1529  0.2069 -0.2462
29573W        W47097   0.730  14.064   1.612 -0.0204 -0.1041  0.0751
29574W        W47098  10.615  11.979   5.406  0.1430  0.1303  0.0862
29575W        W47099   9.147  15.821  13.664  0.0834 -0.1353  0.2011
29576W        W47100   3.021  12.500  14.843  0.1270  0.1606  0.1793
29577W        W47101  15.239  16.519   0.694 -0.1984  0.2346  0.3380
29578W        W47102   9.781   6.227   4.405 -0.0010 -0.2041  0.2377
29579W        W47103  13.600   6.810  13.635  0.0598 -0.0215  0.0723
29580W        W47104  17.096   5.979   1.448 -0.0661  0.0207 -0.1156
29581W        W47105   1.914  15.248   1.139  0.0687  0.1509  0.0916
29582W        W47106   6.257   0.068   2.976  0.0159  0.1191  0.0890
29583W        W47107  14.766   1.682  13.835  0.0373  0.0321 -0.1588
29584W        W47108  11.866   1.575   3.604 -0.1181 -0.1974  0.1622
29585W        W47109   4.258   1.342  15.797 -0.0109  0.1573 -0.1536
29586W        W47110   1.096   5.739   2.217  0.1657 -0.1847 -0.0142
29587W        W47111   0.412   0.117   3.484 -0.1862 -0.3426  0.0267
29588W        W47112   4.435  16.274   0.134  0.0177 -0.1612  0.2957
29589W        W47113  15.948  17.696  13.546 -0.1626 -0.0605 -0.1697
29590W        W47114   1.691   9.823  12.163  0.1041 -0.2555  0.0013
29591W        W47115   8.197  16.963  12.186 -0.1488  0.1423  0.0018
29592W        W47116   0.881   2.946  14.883  0.0444 -0.0817  0.1190
29593W        W47117   2.730  12.520  13.262  0.2027 -0.3223  0.1158
29594W        W47118   4.168  15.792   3.197  0.0005 -0.1868 -0.2153
29595W        W47119  15.374   6.501  12.650  0.3750 -0.0692 -0.0825
29596W        W47120   4.936  10.640   2.305 -0.1468  0.2841 -0.0551
29597W        W47121   5.942  16.766   3.206  0.2978  0.5484  0.0444
29598W        W47122   7.146   9.305  11.836 -0.1947 -0.1555  0.1046
29599W        W47123   3.378   0.945  12.333 -0.1547  0.0400  0.1366
29600W        W47124  10.542   2.050   5.781  0.2429  0.0570 -0.1469
29601W        W47125   0.749   6.538  12.662 -0.2488 -0.0253 -0.2840
29602W        W47126   5.638   2.826   4.631  0.0251  0.1981  0.0218
29603W        W47127  12.403   7.575  14.596 -0.2029  0.1345  0.2237
29604W        W47128  17.624  17.008   3.511 -0.2159  0.2677  0.0087
29605W        W47129   9.328  15.258  14.292  0.0221 -0.0593  0.2230
29606W        W47130  17.045   9.486  14.769  0.1930  0.2204 -0.0029
29607W        W47131  13.874  11.477  15.108  0.0267  0.0556  0.3876
29608W        W47132   2.477  13.899   2.397 -0.1172  0.1281 -0.0281
29609W        W47133   5.690  11.340  16.208  0.0633 -0.1398  0.2217
29610W        W47134   9.344  14.777   6.365 -0.0075 -0.1029 -0.1168
29611W        W47135   3.170   2.296   0.759 -0.0307  0.1386 -0.0915
29612W        W47136   9.236   2.914   4.030  0.0447 -0.1482  0.0683
29613W        W47137   6.973   3.916   3.005  0.0797 -0.4749  0.1512
29614W        W47138  10.352  14.224   2.216 -0.1989 -0.0061  0.0229
29615W        W47139   0.830   0.261   1.606 -0.3398 -0.1696  0.1055
29616W        W47140   1.382   9.939  11.295 -0.2083 -0.2025 -0.3381
29617W        W47141   5.611   9.828  15.047 -0.0459 -0.0591 -0.0398
29618W        W47142   8.859   0.229  14.023  0.1929  0.0009 -0.0670
29619W        W47143   5.569  16.165   0.123  0.0310  0.4026 -0.0603
29620W        W47144   2.527   0.036  15.574 -0.1224 -0.1908  0.0814
29621W        W47145   1.562  17.092   2.528 -0.0140 -0.1798 -0.3143
29622W        W47146   6.603   4.418  12.776  0.0165  0.3642 -0.1302
29623W        W47147  10.069  12.255   4.023 -0.1693 -0.2810  0.0079
29624W        W47148   5.460   5.576  13.872  0.1792  0.0384 -0.2821
29625W        W47149   3.665  11.239   0.853  0.2497  0.1504  0.1554
29626W        W47150   5.682  11.732  14.518  0.0283 -0.3348 -0.2568
29627W        W47151  12.204   8.677  16.446  0.0269  0.0722  0.0834
29628W        W47152  16.507   4.394   1.446  0.0492 -0.0429 -0.2291
29629W        W47153   7.524  14.850  12.220  0.1388  0.2038 -0.2500
29630W        W47154   6.644  17.622  14.443  0.0197 -0.1897 -0.0195
29631W        W47155   4.060   5.982  15.719  0.0706  0.0019  0.3972
29632W        W47156  15.200   0.483   5.722  0.0454 -0.0160 -0.1149
29633W        W47157  15.137   2.459  10.754 -0.2097  0.1837 -0.0233
29634W        W47158  10.441  16.042   3.130 -0.0819  0.3782  0.0605
29635W        W47159   1.539  12.235  11.261 -0.0418  0.2468  0.1760
29636W        W47160  13.438   5.781   4.407 -0.0543  0.2907  0.2718
29637W        W47161  13.335  11.948   0.712  0.2470 -0.1913  0.3123
29638W        W47162   1.881  12.295  16.382  0.0221 -0.1542 -0.0869
29639W        W47163  12.124   1.103   3.649 -0.2718 -0.0884  0.1357
29640W        W47164   2.700   1.776   3.353  0.0108 -0.0610 -0.1568
29641W        W47165   7.522  14.703  12.743 -0.1474  0.2232  0.0233
29642W        W47166  14.989   7.798  15.469 -0.1645 -0.0065  0.3755
29643W        W47167   0.953   7.805  10.789  0.0036 -0.1622 -0.3323
29644W        W47168   0.959   2.672   1.621  0.0389 -0.0962  0.0747
29645W        W47169   0.847  13.734   5.184  0.0917  0.2166 -0.0674
29646W        W47170  14.629  12.416   0.591  0.1343 -0.1349 -0.1551
29647W        W47171  17.503   3.706  11.406  0.2928 -0.0724  0.1339
29648W        W47172  12.166  12.635   3.632 -0.0739 -0.2792  0.1427
29649W        W47173   1.615  12.467   1.282 -0.1198 -0.0784 -0.0964
29650W        W47174   5.799   9.009  14.764 -0.1536  0.1447  0.0302
29651W        W47175   6.664  12.484  14.714  0.1952  0.0087  0.1879
29652W        W47176   4.225   7.712  14.788 -0.0384  0.0428  0.0313
29653W        W47177  14.285   6.043   3.843  0.0407  0.0707 -0.0598
29654W        W47178  11.209  10.500   2.700  0.1496  0.1312  0.1985
29655W        W47179  15.336   2.430  12.633  0.0077 -0.1720  0.4937
29656W        W47180   4.099  11.064  12.829  0.1727 -0.0062  0.0134
29657W        W47181  10.660   9.685  15.177 -0.3925 -0.1077  0.0539
29658W        W47182   9.290  14.483   2.066  0.0119  0.1303 -0.2605
29659W        W47183   8.566   6.725  13.081 -0.0824 -0.0527  0.0166
29660W        W47184  10.647  12.728   3.541 -0.0630 -0.0592 -0.4139
29661W        W47185   5.313  17.635   1.733 -0.1479 -0.0389  0.0360
29662W        W47186  15.256   7.419  11.930 -0.1311  0.0956  0.2657
29663W        W47187   4.216  16.787  11.816  0.0932  0.1728 -0.0296
29664W        W47188  12.288   0.770   4.685 -0.3084 -0.2922 -0.0678
29665W        W47189   7.338   7.055   0.787 -0.0148  0.0364 -0.1055
29666W        W47190   7.576   5.062  13.717 -0.0328  0.4060  0.5328
29667W        W47191   4.570  13.129   3.594  0.0476 -0.2365 -0.0942
29668W        W47192  16.769   3.394   3.822  0.0526  0.1171  0.0815
29669W        W47193   6.328  15.779   2.185  0.1355 -0.4182 -0.0809
29670W        W47194   7.992   5.504   5.205 -0.2469 -0.0873  0.1090
29671W        W47195   8.183   4.787   0.049  0.1446 -0.2533  0.1126
29672W        W47196  12.996   2.676  13.304 -0.0203 -0.0469  0.2814
29673W        W47197   0.929   1.476   0.342 -0.0854  0.1317  0.2053
29674W        W47198  11.791   1.901   3.181  0.2552  0.1625  0.1719
29675W        W47199  15.766   8.505  14.362  0.0499  0.1502 -0.0866
29676W        W47200  11.972  13.988  15.194  0.2400 -0.1718  0.2698
29677W        W47201  11.706  14.246  12.095 -0.4593  0.3312  0.0458
29678W        W47202   1.588  10.151   4.053 -0.0606 -0.3512  0.3519
29679W        W47203   0.730  10.520   0.280  0.2756 -0.1537 -0.1040
29680W        W47204  12.104  16.664   4.946 -0.1838  0.0945 -0.1306
29681W        W47205   9.233   5.236  12.655 -0.0816 -0.0345  0.3197
29682W        W47206   2.408   1.694   1.015  0.0100  0.1437  0.0301
29683W        W47207   6.862   0.824  15.304 -0.0336 -0.1927  0.2091
29684W        W47208   1.714  10.912  14.318 -0.2031 -0.0885 -0.1655
29685W        W47209   4.184  13.160   0.736  0.0433 -0.0722 -0.0046
29686W        W47210  13.820   6.836   4.284  0.1407 -0.0843 -0.1937
29687W        W47211   6.619   7.290   4.031 -0.5424  0.0203 -0.6760
29688W        W47212  13.838   6.977  13.168  0.2020  0.2580 -0.1724
29689W        W47213   8.847  17.011  12.793  0.1593 -0.0482  0.0344
29690W        W47214  16.175   2.774   1.634  0.0559 -0.0562 -0.1537
29691W        W47215   9.159   1.892   0.642 -0.2513  0.1049  0.2147
29692W        W47216  11.037  15.587   4.281  0.0201  0.2306 -0.0913
29693W        W47217   1.161  17.842   0.795  0.1620  0.0754  0.1029
29694W        W47218   0.181   1.867   0.766  0.0298 -0.1425  0.0454
29695W        W47219   0.260  17.694  13.762 -0.2408  0.2893  0.1519
29696W        W47220  13.706  17.610  12.533 -0.2445  0.1400 -0.1552
29697W        W47221   6.711   6.061  11.941 -0.0919 -0.1708 -0.1250
29698W        W47222   4.022   7.283  14.632 -0.2418  0.0009 -0.1075
29699W        W47223   3.642   8.799   2.022  0.1022 -0.1024 -0.1680
29700W        W47224  16.934   1.870   1.544 -0.2982 -0.3040 -0.1470
29701W        W47225   8.000   8.154   2.254 -0.1243  0.2099  0.0156
29702W        W47226   1.799   8.053  12.984 -0.2604  0.0854  0.2457
29703W        W47227  12.190  13.963   1.227  0.2870  0.0303  0.0642
29704W        W47228  11.456  13.385  12.201  0.1637  0.3104 -0.0412
29705W        W47229   8.102  11.543  15.578  0.0023  0.1947  0.0453
29706W        W47230  11.785   4.009   2.046  0.2037  0.0896 -0.0385
29707W        W47231   9.347  17.939  15.384  0.0523 -0.0777  0.0277
29708W        W47232   4.629   3.927  11.701 -0.1657 -0.0754 -0.0886
29709W        W47233  13.173   8.207   1.764 -0.0395  0.1208 -0.1987
29710W        W47234  17.549  11.021   4.183  0.2749  0.3368 -0.3917
29711W        W47235  17.692   9.501   2.787 -0.2556 -0.0754 -0.0290
29712W        W47236   2.157  16.117   4.760  0.1239 -0.1334 -0.0415
29713W        W47237  13.868  14.415   2.099 -0.2479  0.0749  0.1024
29714W        W47238  13.850   7.385   1.531  0.1947  0.2639 -0.2357
29715W        W47239   9.863  13.503   4.187  0.2304  0.0823 -0.1917
29716W        W47240   5.606   7.012   2.754 -0.0526 -0.2486  0.0739
29717W        W47241   4.191   4.383   4.496 -0.1051 -0.2381 -0.0665
29718W        W47242   3.313   4.148   2.671  0.3737 -0.0303  0.0439
29719W        W47243   0.478  12.377  15.521  0.1132 -0.0377 -0.2811
29720W        W47244  16.638   6.954   0.058 -0.0050  0.0799  0.1136
29721W        W47245   6.407  15.979  16.269 -0.0864  0.2584 -0.0397
29722W        W47246  11.396  13.699   2.168 -0.1008 -0.0622  0.2498
29723W        W47247   4.853  15.598  16.051 -0.0035 -0.1685  0.1267
29724W        W47248  10.915   6.028  14.251  0.2634  0.0714  0.1065
29725W        W47249   4.783   7.385  11.811 -0.1810 -0.1006 -0.2515
29726W        W47250   5.007   0.289   2.260 -0.0303  0.2411  0.0345
29727W        W47251   6.608  12.280  16.332 -0.1336 -0.0174 -0.1290
29728W        W47252   8.199  16.993  13.573  0.0947 -0.1669  0.0683
29729W        W47253  15.820  10.752   4.138 -0.0905 -0.1598 -0.4715
29730W        W47254   1.960   1.514   1.158  0.0585 -0.0185 -0.2328
29731W        W47255  14.702   3.602  13.252 -0.1112 -0.0144  0.1357
29732W        W47256  11.748  10.788   4.207  0.2703  0.1076  0.0413
29733W        W47257  12.114   8.163  15.693  0.3943 -0.0960  0.2964
29734W        W47258   3.323   3.835  16.393  0.2825 -0.1772 -0.0067
29735W        W47259  15.624   9.743   2.349 -0.0210 -0.1790  0.0030
29736W        W47260   5.261   6.949  14.868  0.1335  0.3453  0.0178
29737W        W47261  15.695  12.228   0.290 -0.4513 -0.0609 -0.2324
29738W        W47262   2.636  13.410   2.407 -0.2939  0.0565 -0.1635
29739W        W47263   8.301  16.537  13.834 -0.1009  0.0319 -0.1014
29740W        W47264  11.314   3.134   4.688  0.2705  0.0241  0.0443
29741W        W47265  12.082   9.028  14.360 -0.0557 -0.0242 -0.2740
29742W        W47266  13.347   3.518  13.478 -0.1253  0.3833 -0.3071
29743W        W47267   5.967   0.284   1.015 -0.0551  0.1395  0.0492
29744W        W47268   0.153   8.219   0.793  0.2620 -0.0046  0.0027
29745W        W47269   9.299  16.784  14.875 -0.3000  0.0596 -0.0553
29746W        W47270  17.798   6.238   2.613 -0.3785 -0.0847  0.1244
29747W        W47271  13.258   5.076   0.444  0.1074 -0.1281  0.2034
29748W        W47272  17.541   2.454   1.590 -0.1974 -0.2316  0.0367
29749W        W47273   3.087   2.999   1.173 -0.0019  0.2189 -0.3943
29750W        W47274  16.786   8.227   3.670 -0.1778 -0.1283  0.1603
29751W        W47275  15.936   9.142  12.190  0.0785 -0.1312 -0.2096
29752W        W47276  12.506  11.635  11.747  0.0879  0.1786 -0.0174
29753W        W47277   4.695   5.180  11.088 -0.0564  0.3831  0.1663
29754W        W47278   7.652   8.553   5.383  0.4458 -0.1367  0.1799
29755W        W47279   2.452  15.388   5.232  0.3903 -0.0204  0.0754
29756W        W47280   5.876  15.497  12.181 -0.0381 -0.1720  0.1763
29757W        W47281   9.788  16.095  15.511  0.1563 -0.0768 -0.1071
29758W        W47282  13.920  14.169   4.360  0.1300  0.0026 -0.0196
29759W        W47283   5.612  15.199   2.015  0.0610 -0.4208 -0.0425
29760W        W47284   4.726   1.108  15.935  0.1108  0.2381  0.0649
29761W        W47285  16.049   6.188   0.506  0.0690 -0.0236 -0.0627
29762W        W47286   0.760   7.593   3.101 -0.0876  0.0012  0.0042
29763W        W47287   7.055   5.210  15.455 -0.1675  0.0756  0.2547
29764W        W47288   4.254  16.980  14.474 -0.0619 -0.0720 -0.0531
29765W        W47289   3.477  13.334  15.956  0.1716 -0.0049 -0.2089
29766W        W47290   0.899   4.763  15.540  0.2273  0.2710  0.3007
29767W        W47291   3.345   9.368   0.263 -0.1258  0.0725  0.3848
29768W        W47292  11.239   0.657   4.794 -0.2463 -0.0284 -0.0157
29769W        W47293   9.200   0.045   2.741  0.2301 -0.1123  0.0661
29770W        W47294   4.280   4.487  12.476  0.2275 -0.0060  0.1629
29771W        W47295   1.484   5.398  12.254  0.2920  0.2126  0.3763
29772W        W47296  13.894  14.928  15.206  0.2719 -0.2377 -0.5093
29773W        W47297  10.044   7.410  15.048 -0.0196 -0.1613 -0.1957
29774W        W47298   3.356  11.533   3.937 -0.1098 -0.3420  0.0906
29775W        W47299  13.632  15.983  12.162  0.2501  0.2412 -0.1051
29776W        W47300   8.666  15.329  13.836  0.2083  0.1444  0.1059
29777W        W47301   7.727   9.679   4.196 -0.0174  0.3450  0.1366
29778W        W47302   7.112  17.839  11.759  0.1113  0.0753  0.1046
29779W        W47303  10.858  16.109  15.072 -0.0514 -0.2595 -0.4587
29780W        W47304   2.163   0.662  14.434  0.0192 -0.0836  0.1702
29781W        W47305   9.432  17.668   0.367 -0.0481  0.1366  0.1963
29782W        W47306   1.865   9.387  16.005  0.0065 -0.0503  0.0384
29783W        W47307   1.681  14.749   0.255  0.3235  0.0155 -0.0815
29784W        W47308  17.760   8.232   3.624  0.2645  0.1429  0.4308
29785W        W47309   5.200  12.578  14.607  0.1269  0.1375 -0.1932
29786W        W47310   5.554   4.121   2.888 -0.0360  0.1645  0.0097
29787W        W47311  16.816   5.793   2.064 -0.2781 -0.1949  0.0171
29788W        W47312  11.804   7.333  13.369 -0.0990  0.1460  0.2825
29789W        W47313   9.604   4.827   2.378  0.0598  0.0670 -0.0651
29790W        W47314   3.269  16.495   1.821  0.0057  0.2892  0.0243
29791W        W47315   5.856  11.934   5.944 -0.0304 -0.2256 -0.0534
29792W        W47316   2.250  17.910  12.175 -0.0179  0.0947  0.0056
29793W        W47317  15.031  17.693   4.372  0.1691 -0.1876 -0.0656
29794W        W47318   4.157  10.977   4.495 -0.1747 -0.3475 -0.2671
29795W        W47319  11.094  17.550  14.094 -0.0535  0.3511 -0.1365
29796W        W47320  10.712  12.752   2.543  0.1221 -0.2473  0.0619
29797W        W47321   0.720  11.722  14.032 -0.5710  0.0703 -0.1674
29798W        W47322   0.934   3.627   3.321 -0.0633 -0.1314  0.2207
29799W        W47323  15.577   2.951  16.076  0.3996  0.2865 -0.1184
29800W        W47324   8.984  17.177  15.977 -0.0205  0.0015 -0.1098
29801W        W47325   6.323   7.296  14.724 -0.2514  0.3015 -0.1383
29802W        W47326   3.136   2.332   2.673 -0.0054  0.4021 -0.2857
29803W        W47327   1.597  14.900   1.360 -0.1109  0.0322  0.0596
29804W        W47328  15.128   7.029   1.963  0.0301  0.3023 -0.0431
29805W        W47329  15.063  16.136   2.137 -0.1218  0.3619  0.5311
29806W        W47330   7.534   8.504   4.880 -0.2702 -0.0188  0.1590
29807W        W47331  12.258   5.535   3.902  0.0949 -0.0623 -0.1121
29808W        W47332  13.262  15.684  15.778  0.0858  0.0410  0.0446
29809W        W47333   5.747   2.610  11.613 -0.0281  0.1800  0.0742
29810W        W47334   9.394   0.561   0.748  0.3030  0.0459 -0.1609
29811W        W47335   0.976  11.782  14.576 -0.1090  0.0275  0.0659
29812W        W47336   8.709   3.345   1.610  0.1097 -0.1866  0.0781
29813W        W47337  13.074   1.423   2.332  0.0190 -0.1720 -0.0585
29814W        W47338   6.672  11.891  11.777 -0.0330  0.0260 -0.3238
29815W        W47339  16.336   7.981  12.974 -0.1587 -0.0458 -0.0847
29816W        W47340  15.033   7.557  11.539  0.0497  0.2780 -0.2175
29817W        W47341   0.085   5.215  13.801  0.2942  0.2953  0.0418
29818W        W47342   2.909  14.320  15.704 -0.2109  0.2591 -0.1051
29819W        W47343   4.348  11.727  11.612 -0.2134 -0.1009  0.2717
29820W        W47344  17.206   4.862  15.063  0.1989  0.0361  0.1738
29821W        W47345  11.846  11.864   1.588  0.1491 -0.2356  0.1195
29822W        W47346   5.441   4.975   2.705 -0.0315  0.2100 -0.2487
29823W        W47347   3.870   7.174   1.417  0.0176 -0.0416  0.1419
29824W        W47348  10.517   2.584   2.534 -0.2805 -0.0484  0.2659
29825W        W47349  12.955  11.851  10.327  0.1403 -0.0592  0.0578
29826W        W47350   3.729  12.098   3.099 -0.0827 -0.0724 -0.0930
29827W        W47351  13.950   8.125  11.790 -0.1656  0.1757 -0.1427
29828W        W47352   1.050   3.374  12.209  0.0302 -0.2287  0.0801
29829W        W47353  12.923  16.784  15.850  0.0896 -0.2868  0.0418
29830W        W47354  16.851   0.749  14.357 -0.0206 -0.2236 -0.1890
29831W        W47355  13.589  15.275  14.886 -0.1057  0.2725  0.0244
29832W        W47356   0.804   4.455   1.866  0.1262 -0.0349  0.0299
29833W        W47357  14.664  15.575   3.204 -0.2131 -0.1317  0.2056
29834W        W47358   5.506   5.523   0.834  0.1321  0.0308  0.0731
29835W        W47359  14.096   8.788   0.515  0.1383 -0.1362 -0.1462
29836W        W47360   7.950  13.113   2.523 -0.3901 -0.0589  0.3745
29837W        W47361   5.478   4.944   4.657  0.0013 -0.0580  0.2359
29838W        W47362  17.324   1.090  16.084  0.1128  0.2096 -0.1051
29839W        W47363   9.693  12.050  15.232  0.0366  0.0450 -0.2030
29840W        W47364   8.182  15.177   4.951  0.0549  0.0533 -0.0362
29841W        W47365  14.438   4.210   0.348 -0.0423  0.0728  0.1591
29842W        W47366  15.765   5.302  12.872  0.0633 -0.1184 -0.2852
29843W        W47367  11.369  11.918   1.631 -0.0355 -0.1181 -0.0969
29844W        W47368   9.014  14.251  10.622 -0.1189 -0.1469 -0.3446
29845W        W47369   3.712  11.918   4.059 -0.2562 -0.5624  0.1564
29846W        W47370   7.370   7.123  12.638 -0.0603  0.0503  0.3092
29847W        W47371   3.993   3.668   1.213 -0.0553  0.2769  0.0215
29848W        W47372  14.255  12.528  13.174 -0.0054  0.0319 -0.1525
29849W        W47373   0.658   1.475  13.925 -0.0488  0.1174  0.3120
29850W        W47374  12.690   2.683  12.921 -0.2873  0.0386  0.2839
29851W        W47375   5.468  16.687   2.943 -0.2470  0.1797 -0.0538
29852W        W47376  15.920   2.335   4.099  0.3453  0.1651 -0.0867
29853W        W47377   0.066   2.830   3.756  0.0946 -0.3010  0.0376
29854W        W47378  16.889   0.344  14.086  0.0864  0.1028 -0.1581
29855W        W47379  12.455   2.686   5.514  0.1169 -0.0512  0.1338
29856W        W47380  12.064  13.105  13.791 -0.1083  0.0002 -0.0179
29857W        W47381   9.310  15.904  12.682  0.1066 -0.2237 -0.0761
29858W        W47382  10.934  13.168  11.860 -0.1613  0.0799 -0.3856
29859W        W47383   8.273   4.754  14.622 -0.1544  0.0865  0.2871
29860W        W47384   4.381  10.506  14.023  0.0043  0.0712 -0.3019
29861W        W47385   7.380   3.576  11.519  0.1840 -0.0880 -0.0746
29862W        W47386  10.389  15.433   0.266  0.1457  0.1087  0.0528
29863W        W47387   9.556  14.943   4.147  0.0263  0.0736 -0.0577
29864W        W47388   6.923  13.704  13.484 -0.0293  0.2091  0.1752
29865W        W47389   9.276  16.666   2.452  0.1005 -0.0831  0.1895
29866W        W47390   1.703  16.801   3.383 -0.2092 -0.0531 -0.2086
29867W        W47391  12.587   1.096   1.221 -0.1129 -0.0512  0.1510
29868W        W47392  10.002  13.383   1.219  0.1653  0.2524 -0.1411
29869W        W47393   2.822  15.837   0.808 -0.1453  0.0047  0.0483
29870W        W47394  15.864   8.676  13.900  0.0335  0.1110 -0.1420
29871W        W47395  16.389  11.011   2.816  0.0164  0.1067 -0.0080
29872W        W47396  11.552   2.294  13.293  0.1850  0.1548 -0.0633
29873W        W47397   3.477   6.648   3.228 -0.0781 -0.0079  0.1049
29874W        W47398  13.314  16.483   4.612 -0.1904 -0.1327  0.0546
29875W        W47399  17.477  14.852   0.739 -0.1127  0.0013  0.0606
29876W        W47400   0.320  11.124  15.936  0.0604  0.1129 -0.0414
29877W        W47401   7.050   5.655   0.976 -0.0711  0.2644 -0.3084
29878W        W47402   5.856  13.365  15.406 -0.2024  0.0392 -0.1981
29879W        W47403   8.447  11.372   2.599 -0.0887  0.0780  0.0549
29880W        W47404   4.970  13.545   0.234 -0.3345 -0.2425  0.1339
29881W        W47405   6.252  16.961  15.941  0.0491  0.0944  0.2884
29882W        W47406   9.885   7.242  14.571  0.1365 -0.0968  0.2146
29883W        W47407   1.888  11.960   2.112 -0.0104 -0.1163  0.1209
29884W        W47408  13.205  15.247   3.474  0.0937 -0.1631 -0.2983
29885W        W47409   1.243   2.352  15.762 -0.0267 -0.1804 -0.0864
29886W        W47410   1.901  13.853   2.215 -0.0401  0.0937  0.0824
29887W        W47411   9.124   7.451   6.047 -0.0736  0.1276 -0.2099
29888W        W47412   2.346   5.943   1.270  0.0087 -0.1561  0.1882
29889W        W47413  14.986  10.284   5.550 -0.0941  0.1427  0.0234
29890W        W47414  12.101  15.210  14.354 -0.0568  0.1839 -0.2414
29891W        W47415   2.259  16.549  16.412 -0.1070  0.1526  0.1693
29892W        W47416  17.181  12.230  13.929 -0.1656 -0.0797  0.0143
29893W        W47417  16.507   1.615   0.196  0.1144  0.0574 -0.2324
29894W        W47418  13.253   8.454   0.913 -0.2962  0.2002  0.1776
29895W        W47419   4.916   7.140   0.483 -0.1844 -0.1761 -0.1238
29896W        W47420   5.509   3.732   4.669  0.0294 -0.1613 -0.3388
29897W        W47421   5.215   6.160  12.652 -0.1631 -0.0470 -0.0320
29898W        W47422   0.258   7.824  12.840 -0.0530 -0.0570  0.1776
29899W        W47423   4.540  10.961  11.431 -0.0463 -0.2499 -0.3283
29900W        W47424   1.072  15.678   1.065 -0.0973  0.3731 -0.1887
29901W        W47425   4.693  17.039  13.193  0.1474  0.2298 -0.2122
29902W        W47426  16.083   1.443   0.299 -0.1727  0.1273 -0.0283
29903W        W47427   7.912   5.365  15.625  0.1045  0.0960 -0.0544
29904W        W47428   0.715   2.267  15.994  0.2176  0.0645 -0.1189
29905W        W47429   8.728   1.670   4.249  0.0201  0.1428 -0.1723
29906W        W47430  10.547   7.993   3.197 -0.0997  0.1251  0.2571
29907W        W47431  12.840  16.471  13.224 -0.2324 -0.3616  0.1074
29908W        W47432  12.712   6.465   1.808 -0.3507 -0.2118 -0.1951
29909W        W47433  14.827  15.623  16.281 -0.3322  0.1293 -0.2648
29910W        W47434   7.210   7.763   1.304 -0.0891 -0.0956  0.0712
29911W        W47435  13.807  15.657   4.992  0.0253 -0.0601  0.3269
29912W        W47436   4.982   5.350  14.565 -0.0602 -0.0870 -0.0257
29913W        W47437   9.523   2.715  16.442  0.3664 -0.1746 -0.1725
29914W        W47438   5.889   9.150   1.751  0.0466 -0.1398 -0.0016
29915W        W47439   8.606   5.530   2.938 -0.0278 -0.1446  0.0027
29916W        W47440   0.685  15.087   3.538  0.3181  0.0907 -0.0263
29917W        W47441   8.883   4.715   3.883 -0.0598 -0.2807  0.3051
29918W        W47442   9.876   5.080  14.276  0.1001  0.2773 -0.0724
29919W        W47443   3.795   4.378   2.649 -0.0700  0.1863 -0.2078
29920W        W47444   8.440  14.489  13.983  0.0481 -0.2199  0.4434
29921W        W47445  13.933  10.571  15.417  0.1536 -0.2492  0.1710
29922W        W47446  16.195   7.470  13.723 -0.1827 -0.4100 -0.1115
29923W        W47447  13.405  10.046   0.422 -0.0358  0.0458 -0.1174
29924W        W47448   5.389   5.460   0.365  0.3073  0.0404 -0.4068
29925W        W47449   9.979  16.034   3.492 -0.0282 -0.1114  0.1455
29926W        W47450  11.552   4.860   0.884 -0.0746 -0.1585  0.0606
29927W        W47451  11.990   4.928   5.245  0.2061  0.2174 -0.2032
29928W        W47452   2.776   2.750  15.967  0.1822  0.0242 -0.2555
29929W        W47453   3.965   0.864   1.136 -0.0957 -0.0957  0.0451
29930W        W47454   5.097  17.753   0.934 -0.2689  0.1668 -0.2596
29931W        W47455  13.029  10.368  16.086  0.2995 -0.2967  0.2127
29932W        W47456  17.719   2.175   0.663 -0.1709 -0.0154  0.1851
29933W        W47457   4.430  15.114   3.539  0.2667 -0.0331  0.1883
29934W        W47458  17.374   6.394   0.247  0.0754 -0.1569 -0.0124
29935W        W47459  11.954  15.385  15.180  0.2384 -0.1517  0.0822
29936W        W47460  16.246  17.216  12.215 -0.2728 -0.1882  0.0492
29937W        W47461   1.605   5.495  16.003  0.0176  0.1059 -0.3845
29938W        W47462  16.518   7.133  15.997 -0.1215  0.0473 -0.1979
29939W        W47463   5.680   6.529  13.130  0.1905 -0.0522  0.1809
29940W        W47464   3.492   6.189   3.533  0.2426 -0.2746 -0.0887
29941W        W47465  14.601  12.566   3.765  0.1308 -0.3614  0.0526
29942W        W47466   5.565   4.415   2.098  0.2580  0.0189  0.2423
29943W        W47467   5.571   6.099   2.335 -0.0297  0.2580  0.0487
29944W        W47468   5.880   0.632  15.144 -0.0539 -0.1243 -0.1414
29945W        W47469  17.074  16.166  13.454 -0.1179 -0.3233 -0.0948
29946W        W47470  11.103   4.815   0.261  0.2263  0.1219 -0.2615
29947W        W47471   7.358  15.104  15.524  0.1427  0.3433 -0.3207
29948W        W47472  16.357   8.473   3.600  0.0027  0.1437  0.3614
29949W        W47473   4.317   8.527  11.384  0.1619 -0.0305  0.0919
29950W        W47474   1.563   1.949   1.213  0.0362 -0.0155 -0.0784
29951W        W47475   5.960   7.690  13.202  0.1799 -0.1013  0.0485
29952W        W47476  10.232  12.221   0.256 -0.0542 -0.1992 -0.1888
29953W        W47477  14.612  16.526   1.632  0.0153  0.0821 -0.0781
29954W        W47478  16.835   6.371  15.805 -0.1198  0.3312 -0.0956
29955W        W47479   3.576   3.499   3.601 -0.0254 -0.1649  0.0510
29956W        W47480   7.601   9.511   0.022 -0.1624  0.1924 -0.3013
29957W        W47481   5.459   1.430  12.731 -0.2770 -0.0223  0.0364
29958W        W47482  16.196  13.353   1.905  0.2138 -0.1769  0.1271
29959W        W47483   5.655   3.451   0.304  0.3115  0.0586  0.0923
29960W        W47484   5.428  12.359   3.236 -0.3081 -0.2785 -0.1556
29961W        W47485   9.753  11.187  13.363 -0.0907  0.0465 -0.0561
29962W        W47486   9.659   7.700  12.940 -0.2739 -0.0867  0.2374
29963W        W47487  16.870   1.949  15.364 -0.3119 -0.0400 -0.1412
29964W        W47488  11.498   2.270  12.421  0.3560  0.2411  0.0927
29965W        W47489   1.724  16.709   1.491 -0.0344  0.0233 -0.0365
29966W        W47490  16.382  11.165   1.749 -0.0446 -0.2940  0.0337
29967W        W47491   9.002   2.908   4.418 -0.1489  0.1290 -0.3584
29968W        W47492   0.283  11.715  11.173  0.1711 -0.4200 -0.1037
29969W        W47493  15.936  13.871   5.645  0.4829  0.0865  0.1386
29970W        W47494   7.093  10.346   3.994 -0.2194  0.0641  0.0415
29971W        W47495  12.352   6.266   4.875 -0.2673 -0.2038  0.1087
29972W        W47496  16.941  16.457  15.201 -0.2611  0.2991 -0.0493
29973W        W47497  10.549  13.827   0.679  0.1364  0.3016  0.0917
29974W        W47498   5.397   5.598   3.325 -0.1711 -0.2537 -0.2693
29975W        W47499   6.278  15.008   2.539  0.2958 -0.2838  0.2377
29976W        W47500  10.212   6.188  15.646 -0.0103  0.2928  0.1167
29977W        W47501  15.953   3.703  13.718 -0.1257 -0.0211 -0.1183
29978W        W47502  11.204   0.704   2.652  0.1611  0.0369  0.0468
29979W        W47503  10.950  13.256   4.677 -0.1131 -0.0920  0.0612
29980W        W47504  16.673  15.565   0.331 -0.0682 -0.0119  0.2313
29981W        W47505  16.921   4.008  15.088  0.1005  0.0727  0.0562
29982W        W47506  16.847   7.974  12.577 -0.0293  0.0653 -0.0022
29983W        W47507   6.681   0.815   3.834 -0.1908  0.0915 -0.0098
29984W        W47508  10.075   8.684   1.162  0.0102  0.0172  0.0872
29985W        W47509  11.791   3.655  14.169 -0.0928 -0.3997  0.1082
29986W        W47510   3.365   9.773   2.338  0.4131 -0.0437  0.0746
29987W        W47511   4.966   7.568  15.740 -0.2344  0.2124 -0.1793
29988W        W47512   7.117  15.070  16.184 -0.3663  0.0243 -0.0820
29989W        W47513  17.968   2.814  13.323  0.2434 -0.0049 -0.3627
29990W        W47514   2.614  16.557   5.525  0.4260 -0.0956 -0.3458
29991W        W47515  12.371   7.730  12.918 -0.0917 -0.0469  0.0362
29992W        W47516   5.527   8.488  11.775  0.3561  0.0300  0.0112
29993W        W47517  14.005   9.294  13.849 -0.1947 -0.1161  0.1067
29994W        W47518  10.971   6.073   0.793  0.2153  0.0759 -0.1310
29995W        W47519  10.309  16.482   2.893  0.1813 -0.1102  0.0008
29996W        W47520   3.522   0.270   0.765 -0.1035  0.1797 -0.3625
29997W        W47521   5.497   4.966   0.893 -0.0814 -0.3053  0.0061
29998W        W47522   8.854   9.776   0.152 -0.2558 -0.0089 -0.0330
29999W        W47523   0.406   1.403   3.490  0.2662  0.2897  0.0211
30000W        W47524   7.477   6.691  13.310  0.1912 -0.3764 -0.1671
30001W        W47525  13.106   5.082   1.884  0.1393 -0.2901  0.2650
30002W        W47526  11.725  14.514   3.654 -0.0916  0.0300 -0.0907
30003W        W47527   5.395   2.238   0.898 -0.0761 -0.1671 -0.1902
30004W        W47528  14.066  13.946   2.310  0.1250 -0.0202 -0.3845
30005W        W47529   6.217  13.547   0.040 -0.1868 -0.2080  0.0328
30006W        W47530   6.287   5.028  11.945 -0.0990 -0.0492 -0.2492
30007W        W47531   1.401  15.657  11.532  0.0115  0.1199 -0.0497
30008W        W47532  12.858   4.676   5.276 -0.0687 -0.1629  0.1129
30009W        W47533  14.173   6.187  12.990 -0.0098 -0.1896  0.2235
30010W        W47534   4.557   4.560   1.205 -0.1275 -0.0806  0.2321
30011W        W47535  10.278   2.520   3.868 -0.3437 -0.0526  0.0286
30012W        W47536  14.954   7.888   0.402 -0.1011  0.1606  0.2820
30013W        W47537  12.696   2.818  15.497  0.0871  0.1807  0.0756
30014W        W47538   7.044   9.359   3.766 -0.2316 -0.0548  0.1145
30015W        W47539   6.239   8.642   3.738 -0.1357 -0.1243 -0.1012
30016W        W47540   6.486  11.623   3.653  0.0130 -0.2158  0.0293
30017W        W47541   3.678  12.700  13.493  0.0594 -0.1825  0.1490
30018W        W47542  14.240   9.320   4.282  0.0077 -0.0506 -0.1137
30019W        W47543   9.950  14.287   1.102  0.2922 -0.0703  0.2402
30020W        W47544  14.375   2.848  15.028 -0.0835  0.1404 -0.1260
30021W        W47545  12.377  12.386  12.677 -0.1653  0.0739  0.0835
30022W        W47546   3.014  10.044   0.666  0.2158 -0.1945 -0.1286
30023W        W47547  15.652   6.349  14.190  0.2617 -0.0147  0.1770
30024W        W47548   3.992   8.003   0.137  0.1378  0.0551 -0.0208
30025W        W47549  10.508   0.929  11.728  0.0092 -0.2747  0.1118
30026W        W47550   9.913   1.292  13.232  0.1342  0.2701  0.4341
30027W        W47551   5.245  17.599  11.796 -0.0190 -0.1088  0.3938
30028W        W47552   0.587   9.643  14.891 -0.0275 -0.2027  0.0109
30029W        W47553   0.562   2.745   3.614 -0.1513 -0.3000  0.2053
30030W        W47554   9.602  11.920  12.335 -0.0080 -0.3321  0.0110
30031W        W47555   6.366   1.025   0.828  0.2543  0.1415 -0.0653
30032W        W47556   4.234  10.278  11.992  0.1152  0.1729  0.2262
30033W        W47557   9.392   4.294   2.568  0.1344  0.1929  0.3588
30034W        W47558  17.105   7.892   1.299 -0.2871 -0.0010 -0.3314
30035W        W47559  11.230  17.745  16.071  0.2993  0.0366 -0.1502
30036W        W47560   4.410   8.277  12.581 -0.0161 -0.0213 -0.0759
30037W        W47561   4.430  10.456  11.538 -0.1169  0.0120 -0.1065
30038W        W47562  14.783  16.917   6.593 -0.0311 -0.1678  0.0775
30039W        W47563   7.587   5.192  12.785 -0.0563 -0.0238 -0.0045
30040W        W47564   8.988   4.730   0.149 -0.1670 -0.0247 -0.0238
30041W        W47565  10.173  16.431   1.446  0.2464  0.0198  0.1015
30042W        W47566  16.648   3.197  15.658  0.0063 -0.0747 -0.1153
30043W        W47567  11.422  17.427   3.958 -0.0268 -0.0971  0.5973
30044W        W47568   2.635   5.602   2.968  0.0242 -0.0115 -0.0147
30045W        W47569  10.543  11.741   4.551  0.0567 -0.1180  0.1581
30046W        W47570   0.626  12.538  13.489  0.0748 -0.0371  0.1378
30047W        W47571  13.140  12.335   1.109 -0.0379 -0.1153  0.3366
30048W        W47572   3.043  17.295  15.344 -0.2803 -0.0856 -0.1767
30049W        W47573   6.667   1.102  11.661  0.2550 -0.3070 -0.2072
30050W        W47574   7.689  17.673  14.689  0.1477  0.1978  0.2631
30051W        W47575  13.153  14.452  13.274 -0.6742 -0.1328 -0.0266
30052W        W47576   6.421   5.405  14.271  0.0611  0.0141  0.1443
30053W        W47577   6.241  13.629   5.044  0.1778  0.0920  0.0485
30054W        W47578   4.921  12.393   2.091  0.3177  0.0778 -0.2769
30055W        W47579   4.897   8.152   4.751 -0.0341  0.2292  0.1345
30056W        W47580  10.683  10.974   5.085 -0.0366 -0.3489  0.2497
30057W        W47581  11.280  15.855   4.685  0.2196  0.4480 -0.2539
30058W        W47582  11.538   6.515  15.307  0.1169 -0.1025  0.3549
30059W        W47583   6.824   1.226   0.684 -0.0327 -0.0206 -0.0475
30060W        W47584  11.055   6.533   2.609 -0.1660 -0.1415  0.0673
30061W        W47585   5.955   3.789  12.162  0.0384 -0.3627  0.0886
30062W        W47586   6.204   2.409  15.018 -0.0033  0.0298 -0.1922
30063W        W47587  13.266  11.156   1.875  0.4112  0.0229  0.1739
30064W        W47588   0.525  13.426   2.090 -0.1614  0.0865 -0.4332
30065W        W47589   7.360   4.436   0.259  0.1685  0.2079 -0.2209
30066W        W47590  11.526  14.364   5.491 -0.2076 -0.2945  0.0004
30067W        W47591  13.083   8.010   4.022  0.0593  0.0816  0.3029
30068W        W47592  11.505   4.058  14.298  0.0668  0.2908  0.0653
30069ION     NA47593   3.327   7.785   5.968  0.1087  0.0259 -0.1641
30070ION     NA47594   8.878   7.794  14.665  0.0971 -0.0328  0.1879
30071ION     NA47595   6.982   2.047   6.189  0.0886 -0.1397 -0.1829
30072ION     NA47596   9.551   5.327   4.505 -0.0676  0.0807  0.0599
30073ION     NA47597   9.279  12.175   1.296 -0.1254 -0.2872  0.1060
30074ION     NA47598   6.127  14.387  10.994  0.0970  0.2945  0.0647
30075ION     NA47599   5.910   9.127   5.188 -0.2078  0.1392  0.2825
30076ION     NA47600   3.466  14.114   5.828 -0.0548  0.1898 -0.0728
30077ION     NA47601   9.764   5.943   5.690 -0.1234 -0.1465 -0.0177
30078ION     NA47602   5.373  10.613  14.243  0.0263 -0.0831 -0.1681
30079ION     NA47603  14.211   6.584  11.296 -0.0878  0.1078 -0.0576
30080ION     NA47604  15.042  15.267  10.972  0.0966  0.2097  0.0079
30081ION     NA47605   2.773  11.953  10.707  0.0688 -0.1690  0.0857
30082ION     NA47606  15.564   0.573  11.896 -0.2613  0.1400  0.1544
30083ION     NA47607   2.827   8.012   0.719 -0.1780 -0.1894  0.1127
30084ION     NA47608   1.408   7.652   1.871 -0.1111 -0.1092 -0.1226
30085ION     NA47609  14.815   8.697   1.716  0.2206 -0.3318  0.2462
30086ION     NA47610   0.174   5.663  10.520  0.1962  0.2927  0.0655
30087ION     NA47611   3.938  11.450   4.240 -0.1123 -0.2883  0.0166
30088ION     NA47612   9.870   6.875   5.815  0.0504 -0.2679 -0.2920
30089ION     NA47613  17.719  16.701  10.887  0.4453  0.1319  0.1575
30090ION     NA47614   9.126   6.043  10.689  0.0407  0.1660  0.0006
30091ION     NA47615   9.995   7.071   1.240 -0.3118 -0.2420  0.0967
30092ION     NA47616   2.812   5.209   1.037 -0.1409 -0.0848  0.2174
30093ION     NA47617  12.325  12.309   5.968 -0.0320  0.0934 -0.1106
30094ION     NA47618   7.377   2.930   5.905  0.0102 -0.0553 -0.2509
30095ION     NA47619   9.912  15.571  10.896  0.2305 -0.0292 -0.0008
30096ION     NA47620  10.111  11.825  12.199 -0.0407 -0.2563  0.1513
30097ION     NA47621   8.204   8.272   6.012 -0.0297 -0.0033 -0.1345
30098ION     NA47622   7.498   7.611   5.902  0.2506 -0.0869  0.1149
30099ION     NA47623  13.865  12.460  11.091  0.0514  0.0409  0.1511
30100ION     NA47624  13.969  15.056  10.875  0.1019 -0.0593 -0.2485
30101ION     NA47625  16.697  16.677  10.759 -0.0638  0.0143  0.0359
30102ION     NA47626   0.601  15.806   4.359  0.2833  0.0200 -0.4964
30103ION     NA47627   4.823   5.456   5.687  0.0368 -0.0201 -0.0925
30104ION     NA47628  11.554  11.692   6.174  0.0030  0.0027 -0.0831
30105ION     NA47629   3.857   5.700  10.642  0.1452  0.2668  0.1256
30106ION     NA47630   6.533   9.694   5.961  0.1930  0.1392 -0.0690
30107ION     NA47631  13.711  17.947   5.925  0.0535  0.1052 -0.2768
30108ION     NA47632  12.105  13.640  10.689 -0.0481 -0.0155 -0.1260
30109ION     NA47633  15.923   7.711   5.875 -0.3213 -0.2387  0.1681
30110ION     NA47634  11.256   4.060  14.800 -0.2017  0.0700  0.2271
30111ION     NA47635  13.113  12.398  10.885  0.1947 -0.2237 -0.2146
30112ION     NA47636   2.908   0.056   2.142 -0.0822 -0.0191  0.2206
30113ION     NA47637   9.180  17.066  10.932 -0.3303 -0.0470 -0.2971
30114ION     NA47638  13.348   8.814  15.898 -0.0960 -0.1130 -0.2127
30115ION     NA47639   8.261  13.898   4.082 -0.2142 -0.3249 -0.0663
30116ION     NA47640   7.864   6.402   5.496 -0.0354 -0.1673  0.0172
30117ION     NA47641   8.037  13.037  10.814  0.3422  0.0384 -0.1323
30118ION     NA47642   3.716   7.331  13.841  0.2792  0.2735  0.1746
30119ION     NA47643  14.740  15.488   6.037 -0.0380 -0.0946 -0.0727
30120ION     NA47644  11.914  17.511   5.990  0.0719  0.2484  0.0360
30121ION     NA47645  15.233   4.930  10.751  0.1986 -0.0302  0.0521
30122ION     NA47646   2.585  10.169  11.848  0.0023  0.0561  0.3038
30123ION     NA47647   5.143   6.339  10.618 -0.0292 -0.0738 -0.1551
30124ION     NA47648   1.466  16.851   5.594  0.2259  0.2520 -0.2023
30125ION     NA47649   4.138  14.608  13.770  0.0118 -0.0648  0.3787
30126ION     NA47650   2.437   6.319   0.995  0.1535 -0.0302 -0.0122
30127ION     NA47651   9.352   3.786  10.299  0.0715  0.1043 -0.1288
30128ION     NA47652  16.376  11.448  15.833  0.1619  0.3410  0.1553
30129ION     NA47653  11.525  15.436   1.746 -0.2904  0.1833 -0.2290
30130ION     NA47654   9.595  11.047   6.252 -0.1214 -0.0184  0.1448
30131ION     NA47655  14.543   0.504   5.982  0.0113  0.1633  0.0738
30132ION     NA47656  10.783  14.430   6.038  0.2923  0.2712  0.0178
30133ION     NA47657   0.695  14.466   5.601 -0.0753  0.0823  0.2181
30134ION     NA47658   5.731   6.825  10.551  0.0894 -0.0141 -0.0843
30135ION     NA47659   5.627   7.761   6.022  0.1873  0.2543 -0.1219
30136ION     NA47660   1.594   8.953   5.438  0.1767 -0.0523  0.0906
30137ION     NA47661   5.749   8.225   5.862  0.0209 -0.1117  0.0643
30138ION     NA47662   1.008   6.538   3.182  0.0280  0.1592 -0.2775
30139ION     NA47663   1.685   4.895   0.111  0.3361  0.1407  0.0966
30140ION     NA47664   4.707   3.212  12.223 -0.1207 -0.0612 -0.0108
30141ION     NA47665   1.202  12.545   5.376  0.0230 -0.1076 -0.0915
30142ION     NA47666  14.589   8.435  10.631 -0.2716 -0.2458  0.0699
30143ION     NA47667  12.874  13.880  10.751 -0.1251  0.0700  0.0189
30144ION     NA47668  12.353  15.878  10.915 -0.0539  0.0753  0.1820
30145ION     NA47669  15.660  12.761  13.400 -0.0437  0.1963  0.1448
30146ION     NA47670   5.502   4.749  10.610 -0.0942  0.1547 -0.0916
30147ION     NA47671  15.428   5.165   5.997 -0.1832  0.3270 -0.1010
30148ION     NA47672  14.107  17.679   6.203  0.3606 -0.3416 -0.0175
30149ION     NA47673  12.755   3.201   5.454  0.1553  0.2504 -0.0932
30150ION     NA47674   1.562   2.711   5.978  0.0771 -0.1891 -0.0744
30151ION     NA47675   1.706   6.073  10.644  0.2111 -0.3186  0.0208
30152ION     NA47676  14.781   9.437  10.400 -0.2047 -0.2983  0.0982
30153ION     NA47677   7.970  12.224   4.186  0.0704 -0.3760 -0.0907
30154ION     NA47678   8.900   3.204  10.278  0.2733  0.3131 -0.0152
30155ION     NA47679  11.108   8.840   5.873  0.0097 -0.1770  0.1986
30156ION     NA47680   3.376   8.362  10.556 -0.0435  0.0871  0.1750
30157ION     NA47681   1.113   1.242  13.641 -0.0596 -0.0431  0.1646
30158ION     NA47682   2.213  17.379   5.789  0.4252 -0.0816  0.2876
30159ION     NA47683  11.782  15.079  10.785  0.0527 -0.1337  0.1969
30160ION     NA47684  11.072   3.579   5.637 -0.0413  0.0233  0.1856
30161ION     NA47685   8.834   5.624   1.878  0.2896 -0.0709 -0.1797
30162ION     NA47686   5.993   1.998   6.276 -0.0127 -0.0468  0.1219
30163ION     NA47687  12.410   9.801   4.757  0.0712  0.3391 -0.0407
30164ION     NA47688   4.323   9.696  14.994 -0.3087  0.2506 -0.0621
30165ION     NA47689   1.466   7.819  10.547 -0.2184 -0.2219 -0.0202
30166ION     NA47690   3.536  11.133  10.609 -0.0847 -0.4522  0.2586
30167ION     NA47691   6.868   8.692  10.486  0.1570 -0.2131 -0.1660
30168ION     NA47692   5.610   7.149  16.227  0.0349 -0.3181 -0.1861
30169ION     NA47693   8.859   9.357  11.190  0.2574 -0.0513  0.2111
30170ION     NA47694  14.501   5.069   5.918  0.2149  0.0075  0.2062
30171ION     NA47695   5.481   1.778   1.232 -0.2006 -0.0324 -0.1479
30172ION     NA47696  16.480  10.576  10.077 -0.0273  0.1869 -0.1610
30173ION     NA47697  13.533   6.312  13.491 -0.1799  0.0435  0.2765
30174ION     NA47698   7.109   5.027  13.822  0.0952  0.0551  0.0929
30175ION     NA47699   6.247   4.830   5.539 -0.1315 -0.0666  0.4241
30176ION     NA47700  16.060   7.379  10.494 -0.2726 -0.0309  0.0124
30177ION     NA47701  12.213   8.501  10.798 -0.3727 -0.3472 -0.0231
30178ION     NA47702  11.076   8.106   5.588  0.1636 -0.2151  0.2900
30179ION     NA47703  15.465  14.949   5.695  0.2078  0.1241  0.3995
30180ION     NA47704   9.518  11.425  10.559  0.1930 -0.1098 -0.2606
30181ION     NA47705  15.570   5.322  10.721 -0.0869 -0.0496 -0.0962
30182ION     NA47706   7.308  10.028  10.627  0.3745  0.2093 -0.0516
30183ION     NA47707  15.400   5.852   4.680 -0.0393  0.2822 -0.1849
30184ION     NA47708  10.535  16.178   5.955 -0.2860  0.1716  0.2453
30185ION     NA47709  11.710  12.981   6.139 -0.0387  0.0637 -0.2209
30186ION     NA47710  16.160  17.866   2.846 -0.1036 -0.0494 -0.0841
30187ION     NA47711  14.822  11.722  10.430 -0.4956 -0.1245 -0.3712
30188ION     NA47712   6.848  16.322  10.696  0.0079 -0.2777 -0.1899
30189ION     NA47713  17.439  16.323  11.020 -0.1060 -0.3702 -0.0151
30190ION     NA47714  12.348  12.255   0.732  0.0187  0.0845 -0.1633
30191ION     NA47715   8.064   4.650   5.973 -0.0205 -0.3013 -0.0753
30192ION     NA47716  17.884   4.779  11.762 -0.1972  0.0897 -0.0697
30193ION     NA47717   4.866  10.693  10.450  0.1614 -0.0702  0.2074
30194ION     NA47718   8.210   9.445  10.868 -0.1681 -0.2341 -0.3355
30195ION     NA47719   5.835   1.876  11.635 -0.0034 -0.0052 -0.2810
30196ION     NA47720  12.890   7.314   5.680 -0.1676  0.1117 -0.0706
30197ION     NA47721  13.929   1.780   5.914  0.3197 -0.0689  0.0051
30198ION     NA47722   3.807   1.184  11.124 -0.0130  0.0841  0.2100
30199ION     NA47723  10.003   8.145  12.628 -0.1048  0.2591  0.2075
30200ION     NA47724   2.755   0.243  11.360 -0.0666  0.0907 -0.0559
30201ION     NA47725   3.870  17.118  11.116  0.1194  0.1714  0.3814
30202ION     NA47726  13.767   9.051  10.836 -0.1416 -0.2504  0.0528
30203ION     NA47727  10.391   0.513   5.890  0.3580  0.1479  0.0342
30204ION     NA47728  16.440   6.151   5.309  0.0553  0.1882 -0.0265
30205ION     NA47729   2.720  17.545  10.785  0.3520 -0.1759 -0.1095
30206ION     NA47730   1.412  10.819  10.371 -0.0573 -0.2688  0.4051
30207ION     NA47731   7.282   4.094  10.334  0.1240  0.0547  0.2059
30208ION     NA47732  17.899   4.258  10.728 -0.0349 -0.2066 -0.1447
30209ION     NA47733   8.980  13.827  15.400  0.0727  0.0581  0.1373
30210ION     NA47734  12.158  10.927   5.937 -0.0379  0.1705 -0.0534
30211ION     NA47735   3.120  12.938  10.998 -0.2377 -0.4946 -0.0352
30212ION     NA47736   9.065  10.091  11.759 -0.0147  0.1277 -0.0778
30213ION     NA47737   0.521  13.935  10.992 -0.1242  0.0007  0.2466
30214ION     NA47738   4.067   9.275   5.710 -0.0953 -0.0155  0.1216
30215ION     NA47739   4.812   9.292   0.448  0.0048 -0.0198 -0.2798
30216ION     NA47740   7.441  16.326  12.147  0.0688 -0.1380 -0.0222
30217ION     NA47741   6.505  10.010  10.486  0.0419  0.0509 -0.3007
30218ION     NA47742   8.512  13.906   1.319 -0.0858 -0.1752 -0.2756
30219ION     NA47743   9.850   1.127  10.470 -0.2407 -0.0193  0.1229
30220ION     NA47744   3.556   9.589   0.991  0.1100 -0.3510  0.3152
30221ION     NA47745   1.321   8.136   0.190  0.0826  0.0789 -0.1809
30222ION     NA47746  16.360   0.846   4.147 -0.2237  0.0454  0.2157
30223ION     NA47747   8.231   0.563  10.531 -0.1123 -0.0096 -0.1406
30224ION     NA47748   1.338   8.560   1.713  0.1401  0.0796  0.0718
30225ION     NA47749   0.072  15.800  10.808 -0.0741  0.2217  0.1034
30226ION     NA47750  14.614  16.569  11.063 -0.0944  0.1454  0.6664
30227ION     NA47751   4.860   3.914   5.693  0.0137 -0.1814  0.3584
30228ION     NA47752   9.202  13.655  16.465 -0.1461  0.1016 -0.0419
30229ION     NA47753   6.028  14.081  11.997 -0.1495 -0.1502  0.4038
30230ION     NA47754   1.588  13.612  10.606  0.2426 -0.0597  0.1683
30231ION     NA47755  17.701   5.970   4.097 -0.0882 -0.0681  0.3041
30232ION     NA47756  13.292   0.873   6.088  0.0240 -0.3862  0.3471
30233ION     NA47757  17.906   0.484  11.076 -0.0929  0.1935  0.1080
30234ION     NA47758   8.898  10.468   5.871 -0.2800 -0.5830 -0.0812
30235ION     NA47759  14.481  13.361   2.980 -0.0626 -0.0235  0.0433
30236ION     NA47760   1.063   5.756   5.643  0.1843  0.1028 -0.1186
30237ION     NA47761   0.442   8.357   3.489  0.0118 -0.1653  0.0950
30238ION     NA47762   8.194   8.560  13.154  0.4728  0.1259 -0.1584
30239ION     NA47763   3.854  13.425   5.841 -0.0300  0.1756  0.1828
30240ION     NA47764  17.187   8.204  10.428 -0.3325  0.1215  0.2346
30241ION     NA47765  10.746   7.108   5.535  0.1374 -0.2622  0.0963
30242ION     NA47766  10.822   8.687  10.970 -0.1824 -0.3580 -0.0082
30243ION     NA47767   3.322  16.457  10.941  0.1646 -0.1251  0.2615
30244ION     NA47768   7.373   9.452   5.107  0.0009 -0.0176 -0.0590
30245ION     NA47769   0.104  14.702   5.035  0.3002 -0.1655 -0.1581
30246ION     NA47770  15.818  14.209   5.285 -0.0209  0.4479 -0.2763
30247ION     NA47771   5.348   6.310   5.780 -0.1354 -0.0414  0.1218
30248ION     NA47772   5.532   3.375   6.015  0.3091 -0.1379 -0.2711
30249ION     NA47773   4.520  17.623  10.764 -0.1960 -0.2619  0.1654
30250ION     NA47774   3.764   0.013   5.915  0.0984 -0.2322 -0.1822
30251ION     NA47775   5.701  16.481   5.899  0.0467 -0.1697 -0.0402
30252ION     NA47776   2.996  14.727   5.812 -0.1168 -0.0509  0.2826
30253ION     NA47777   4.689   5.628  10.321 -0.0426 -0.2638 -0.3472
30254ION     NA47778   7.946   4.421   0.887  0.3084 -0.1108  0.0035
30255ION     NA47779   6.387  13.566   5.978  0.5414  0.0752 -0.0002
30256ION     NA47780   5.558  15.645  14.029 -0.1105  0.2851 -0.0062
30257ION     NA47781  12.892  11.491   5.849 -0.0100  0.0789 -0.0398
30258ION     NA47782  15.072  12.235   5.614 -0.2768  0.0723 -0.0959
30259ION     NA47783  15.391  15.524  11.278 -0.0107  0.2716  0.0838
30260ION     NA47784   1.634   9.320  10.341 -0.1754 -0.0076 -0.1550
30261ION     NA47785  12.163   6.333  16.098  0.0982  0.0490  0.1683
30262ION     NA47786   6.525  11.136   0.481  0.2113  0.1829 -0.1093
30263ION     NA47787   2.598  12.028   5.481 -0.0264 -0.1577  0.1665
30264ION     NA47788   1.140   2.495   5.890 -0.0860  0.0033 -0.0547
30265ION     NA47789   3.678   4.291  10.759  0.2119 -0.5099 -0.1633
30266ION     NA47790   9.974   4.257   5.787  0.0498 -0.1443 -0.1636
30267ION     NA47791   6.546  13.437  11.130 -0.1474 -0.0522  0.1702
30268ION     NA47792   7.125   1.348   5.606  0.0064 -0.2808  0.3004
30269ION     NA47793  17.326  14.210   5.632 -0.2805 -0.0547  0.1592
30270ION     NA47794   8.189  15.463  10.697 -0.3320  0.2069  0.0900
30271ION     NA47795   4.028   9.147  10.399 -0.5165  0.0768 -0.0149
30272ION     NA47796  10.833   1.311   5.610 -0.1027 -0.3271  0.0203
30273ION     NA47797   4.068   2.048  10.904 -0.2007 -0.2440  0.3857
30274ION     NA47798   4.965  16.546  11.222 -0.4435 -0.1348 -0.3082
30275ION     NA47799  11.895   7.268   5.470 -0.3448 -0.1334  0.1460
30276ION     NA47800   1.398   0.265  11.084 -0.3148 -0.0805 -0.1934
30277ION     NA47801  12.885  17.840   4.462 -0.0991  0.0911  0.2005
30278ION     NA47802   2.925   1.983   6.058  0.1707  0.2181  0.1447
30279ION     NA47803   6.886   9.202  10.559  0.0235  0.1774  0.1545
30280ION     NA47804  13.605  14.560  10.748 -0.1508 -0.3361  0.1534
30281ION     NA47805  16.659  10.067   0.592  0.1487 -0.1476  0.1754
30282ION     NA47806   1.848   0.222  14.131  0.4428 -0.0486 -0.1375
30283ION     NA47807  14.552  10.090   5.398 -0.0259  0.0642 -0.1599
30284ION     NA47808   9.709  13.664  13.101 -0.1037 -0.0981  0.2616
30285ION     NA47809   8.997  10.507  10.714  0.1287  0.0234 -0.0161
30286ION     NA47810   1.689  16.944  14.660  0.0248 -0.1174 -0.0207
30287ION     NA47811   9.001  16.892   5.802  0.0055 -0.1459  0.1609
30288ION     NA47812   8.361   3.860   5.824 -0.1484  0.0791 -0.2528
30289ION     NA47813   2.176  15.738   5.667  0.3766  0.0760  0.0517
30290ION     NA47814   8.603   8.393  12.046 -0.0175  0.0326  0.1050
30291ION     NA47815  15.756  14.616  10.877 -0.0817  0.3284 -0.2518
30292ION     NA47816   5.366   6.844   5.923 -0.1596  0.3510  0.0734
30293ION     NA47817   8.295   3.773  12.573  0.2020 -0.1054  0.2270
30294ION     NA47818  13.105  10.661  10.655 -0.0820 -0.1450  0.0311
30295ION     NA47819  11.376   4.335   5.877 -0.0227 -0.2476  0.1078
30296ION     NA47820  10.603  10.293   5.610 -0.0100  0.0523 -0.1358
30297ION     NA47821  12.409   2.520  10.917  0.1556 -0.0338  0.2507
30298ION     NA47822   7.506   6.692  10.595  0.4198 -0.0064 -0.0911
30299ION     NA47823  14.279   3.479  10.908  0.1844  0.1008 -0.0833
30300ION     NA47824   8.419  12.220   6.243  0.1275  0.1461  0.2814
30301ION     NA47825   5.615   0.717   6.253 -0.0650 -0.0589 -0.0053
30302ION     NA47826  14.683   7.434  10.907 -0.1858 -0.1922 -0.0502
30303ION     NA47827  13.183   8.420  10.695 -0.0132 -0.2111 -0.0789
30304ION     NA47828  12.383   5.630   5.625 -0.0016 -0.0021  0.0100
30305ION     NA47829  15.450   7.523  10.538 -0.0781 -0.2027 -0.2028
30306ION     NA47830   9.665   1.698  10.357 -0.0583  0.0474  0.0912
30307ION     NA47831  13.725   5.732   5.354 -0.0082  0.2855  0.0842
30308ION     NA47832   0.043  16.835   5.692 -0.1063  0.3956 -0.0242
30309ION     NA47833  13.375   7.719   5.565 -0.0034 -0.1027 -0.0330
30310ION     NA47834  16.787   0.398   5.652 -0.0674 -0.1129 -0.1838
30311ION     NA47835   9.294   3.581  12.870 -0.0499  0.0303 -0.3112
30312ION     NA47836   5.911   4.906   3.770 -0.3319  0.1957  0.0246
30313ION     NA47837   5.222   1.109   5.970 -0.0189 -0.0553  0.3943
30314ION     NA47838  16.093  17.593  14.108  0.3318  0.2573  0.0382
30315ION     NA47839  11.709   9.844  13.403 -0.0045 -0.1215  0.0244
30316ION     NA47840   8.315  11.507   5.817  0.0677  0.0845  0.2396
30317ION     NA47841   3.842   2.442  15.342 -0.0875 -0.1244 -0.1693
30318ION     NA47842  17.200  17.494   5.756  0.2407  0.2225 -0.2563
30319ION     NA47843  17.798   6.894  15.307 -0.0571  0.1622  0.1661
30320ION     NA47844  11.166   1.264  14.219 -0.0826  0.4064  0.5221
30321ION     NA47845  13.046  15.192   6.335 -0.0377  0.0074 -0.1092
30322ION     NA47846   4.001   6.281  11.024  0.2255  0.1704  0.3989
30323ION     NA47847   4.955   8.694   6.016 -0.0181  0.0352  0.0959
30324ION     NA47848   2.189   7.311  14.782 -0.3023 -0.1107 -0.2978
30325ION     NA47849  17.736  13.370   5.578 -0.4993  0.2168 -0.2130
30326ION     NA47850   9.227  17.725   5.682 -0.0268  0.1420  0.6768
30327ION     NA47851   7.331   9.136  13.997  0.5131 -0.2221  0.1267
30328ION     NA47852   7.252  13.383  10.804  0.5930  0.0376 -0.1420
30329ION     NA47853  17.052  14.455  10.784  0.0634  0.0590  0.0404
30330ION     NA47854   9.945  13.017   0.861  0.0669  0.1615  0.1293
30331ION     NA47855  17.458   2.473   2.649  0.0393 -0.0343  0.1536
30332ION     NA47856   2.289   2.681   0.986 -0.0535 -0.2788 -0.0061
30333ION     NA47857   6.612   3.573   5.301 -0.1284  0.0424 -0.2879
30334ION     NA47858   4.898  14.648   6.222  0.0596 -0.0060 -0.1685
30335ION     NA47859   9.796   9.614   5.817  0.0281  0.0446 -0.1223
30336ION     NA47860  17.318   6.786   5.695 -0.1523 -0.0148 -0.0127
30337ION     NA47861  16.071  13.887  14.229 -0.2826  0.0575  0.1247
30338ION     NA47862   9.616   8.334  10.458 -0.0366  0.0867 -0.0134
30339ION     NA47863   5.626   1.862  10.594  0.2119 -0.1111  0.1765
30340ION     NA47864  14.343  14.967  13.123  0.0357 -0.0063  0.3235
30341ION     NA47865  17.189   5.995   0.531  0.2391  0.0318  0.1288
30342ION     NA47866  16.927  17.582  12.868  0.0637 -0.1241 -0.3117
30343ION     NA47867   7.846   2.081   5.642 -0.0291 -0.2593 -0.1893
30344ION     NA47868   2.848   7.405   0.044 -0.0562  0.2053  0.1973
30345ION     NA47869   3.192  14.239  10.800 -0.1986  0.2223 -0.1865
30346ION     NA47870   7.079   0.017   5.841  0.0029  0.1168 -0.2260
30347ION     NA47871   2.037   5.171  10.650 -0.1314 -0.0527 -0.0534
30348ION     NA47872  17.856  14.013  13.786  0.0462 -0.1239 -0.0104
30349ION     NA47873   7.653   2.942  10.846 -0.0724  0.0248 -0.3122
30350ION     NA47874  14.855   3.999   5.834 -0.0099 -0.2409 -0.0548
30351ION     NA47875  13.649  16.429  10.906  0.2255  0.1053 -0.1979
30352ION     NA47876   9.956   7.817   5.589  0.2596  0.1309  0.0608
30353ION     NA47877   3.162  17.364  10.740 -0.1431  0.1138 -0.0028
30354ION     NA47878   4.214   2.351   6.216 -0.0964  0.3546 -0.0332
30355ION     NA47879   6.820  13.585  12.954  0.1497 -0.0502  0.0824
30356ION     NA47880   5.689  14.150   3.762 -0.1035 -0.0604  0.0519
30357ION     NA47881   2.587  16.151  10.596  0.3307 -0.0878  0.1581
30358ION     NA47882  15.678  11.821  10.427 -0.0046  0.3201  0.0056
30359ION     NA47883   3.819   4.317  15.629 -0.2899  0.2848  0.2899
30360ION     NA47884  11.683  17.232  10.567  0.0436 -0.2661 -0.2363
30361ION     NA47885   7.413   7.628  10.638 -0.0893  0.0574  0.0837
30362ION     NA47886   3.437  10.263  10.715  0.0463  0.0320  0.0882
30363ION     NA47887  13.722   5.380   5.784 -0.1193 -0.1019  0.2295
30364ION     NA47888   8.997  11.467  10.698 -0.1053 -0.0693 -0.3074
30365ION     NA47889  13.120  14.691  10.784 -0.1049 -0.1070 -0.3832
30366ION     NA47890   6.523   0.572   6.129 -0.1861  0.1050  0.0981
30367ION     NA47891   8.572   8.574   3.184  0.2445 -0.0544 -0.2874
30368ION     NA47892   7.672  16.391  10.749 -0.2883 -0.0869 -0.0302
30369ION     NA47893  14.708   5.621  11.115 -0.1179  0.1991  0.2170
30370ION     NA47894  11.644  12.540   3.473  0.0566 -0.1484 -0.1435
30371ION     NA47895   3.910  13.349   3.223  0.2145 -0.1175 -0.0304
30372ION     NA47896  10.791  17.078  10.645  0.4224 -0.2643  0.2217
30373ION     NA47897  16.185  11.688   5.364  0.0625  0.0805  0.2554
30374ION     NA47898   1.501   0.129   5.855  0.0851 -0.0105  0.0196
30375ION     NA47899  11.708   2.934   5.030  0.0010 -0.2933 -0.4044
30376ION     NA47900   5.512   9.453   5.951 -0.2338  0.2837  0.0627
30377ION     NA47901   5.632  10.278  10.442 -0.0912  0.1921 -0.0064
30378ION     NA47902   7.647  14.112   1.758  0.0879  0.3638 -0.2030
30379ION     NA47903   8.996  15.937  10.911  0.3912 -0.1635  0.0561
30380ION     NA47904   4.156   4.104  10.703  0.0712  0.2180 -0.3478
30381ION     NA47905   0.708   6.169   5.751 -0.1648  0.0627  0.0622
30382ION     NA47906   9.919  17.092   5.885 -0.3130 -0.2657 -0.0042
30383ION     NA47907  13.594  14.554   6.050  0.0094 -0.3232 -0.1867
30384ION     NA47908   8.821   2.120  12.043 -0.0287  0.0259 -0.0217
30385ION     NA47909   1.881   0.430  11.039  0.1948  0.2647 -0.0222
30386ION     NA47910   6.496   3.423   6.094  0.0608  0.2779 -0.4679
30387ION     NA47911  16.498   9.609   5.388  0.1969  0.0755  0.2443
30388ION     NA47912  11.639   2.743   0.796 -0.1942 -0.1333 -0.2309
30389ION     NA47913  17.366   9.807   5.074  0.1260  0.0873 -0.0279
30390ION     NA47914   8.808   5.130  10.842  0.2400  0.0233  0.1221
30391ION     NA47915   9.638   0.304   4.638 -0.3920 -0.0577  0.2598
30392ION     NA47916  12.830  14.304   6.379  0.0417  0.0956  0.2399
30393ION     NA47917   4.162   8.180  10.332  0.0134 -0.1304  0.1371
30394ION     NA47918  12.348   8.025  11.107 -0.0257 -0.0614 -0.1123
30395ION     NA47919   4.412   3.285  10.619  0.1283 -0.3363 -0.2199
30396ION     NA47920   5.160  15.693   6.296  0.3082 -0.1193 -0.1520
30397ION     NA47921   0.922   7.571   5.911 -0.0998  0.2871 -0.2013
30398ION     NA47922  13.111  15.652  10.779  0.1510  0.1976 -0.0258
30399ION     NA47923  13.792   7.429   5.779  0.1059 -0.2312  0.0380
30400ION     NA47924   3.604   0.007  10.989  0.1838 -0.3686 -0.0326
30401ION     NA47925  15.375   0.035   6.411 -0.0398  0.0051 -0.4042
30402ION     NA47926   2.276   7.584  10.679  0.1629 -0.3344 -0.2119
30403ION     NA47927  10.925  12.052   4.172  0.0131  0.0465 -0.0024
30404ION     NA47928   5.815   4.089   6.002 -0.2120  0.0340 -0.0688
30405ION     NA47929  13.027  17.873  11.810 -0.0426 -0.0643 -0.0756
30406ION     NA47930   8.528   2.777  10.353  0.0334  0.0298 -0.0866
30407ION     NA47931   4.943  11.342  10.965 -0.0578  0.1338 -0.1252
30408ION     NA47932  16.371   0.357  11.001  0.0282 -0.1093 -0.3235
30409ION     NA47933  10.727  11.544   5.868  0.0311  0.2631 -0.3568
30410ION     NA47934  10.592   2.609  10.568 -0.0581 -0.1383  0.0794
30411ION     NA47935  11.086   4.223  10.870  0.1585  0.0329 -0.0156
30412ION     NA47936   2.867   8.154  14.191  0.4320 -0.0371  0.0255
30413ION     NA47937  14.335  17.484   3.146  0.1589 -0.0480 -0.1402
30414ION     NA47938  15.271   0.497  10.880  0.1529  0.0424  0.0410
30415ION     NA47939   9.874   4.903   5.929  0.0951  0.0290  0.3058
30416ION     NA47940  10.518   2.662   5.757  0.1600  0.0199 -0.3983
30417ION     NA47941   9.386  15.546  13.263  0.0100 -0.2880 -0.1365
30418ION     NA47942  11.093   6.262   5.953  0.1659  0.2901 -0.3965
30419ION     NA47943  11.985   1.169  10.450  0.1595 -0.0937 -0.2981
30420ION     NA47944  13.651   9.835   5.488 -0.1842 -0.0256 -0.2017
30421ION     NA47945  12.113  16.671   2.447 -0.2587 -0.2783  0.0054
30422ION     NA47946  11.450  15.854  10.866 -0.1576 -0.1380  0.0345
30423ION     NA47947   6.753  13.008   6.158 -0.2159 -0.2070  0.0013
30424ION     NA47948  16.021   0.606   6.109 -0.4371 -0.1062  0.1496
30425ION     NA47949  15.750   3.839   5.943  0.1974 -0.0625  0.2940
30426ION     NA47950  13.882   2.505   2.976  0.2011 -0.1899 -0.3030
30427ION     NA47951   3.855   5.798  13.699  0.1460  0.2569 -0.2091
30428ION     NA47952   1.857  13.966  12.819  0.0455  0.0231  0.2400
30429ION     NA47953  13.836   7.124  10.933 -0.3075 -0.2831 -0.0468
30430ION     NA47954   3.111   8.785   2.726  0.1031 -0.0829  0.1733
30431ION     NA47955   3.853   7.364  10.383 -0.4078 -0.1081 -0.0486
30432ION     NA47956   4.339   3.679  13.852 -0.1485  0.3031 -0.2813
30433ION     NA47957  15.820   1.277  10.826  0.0760  0.2297  0.3053
30434ION     NA47958  16.992   4.667   1.203  0.2898 -0.0075  0.2684
30435ION     NA47959   0.359  13.059  10.660  0.1519  0.0016  0.3749
30436ION     NA47960   3.712  15.584  11.820 -0.2344  0.1121 -0.1386
30437ION     NA47961   6.868  16.973   5.760  0.1113  0.1749  0.0939
30438ION     NA47962  10.840   7.249  13.276 -0.0564  0.1969 -0.1229
30439ION     NA47963   6.956   8.923   5.862 -0.1214  0.0445  0.0257
30440ION     NA47964   3.291   9.457   5.545 -0.1945  0.0414 -0.0719
30441ION     NA47965   6.017  11.886   5.507 -0.2466  0.1838  0.1947
30442ION     NA47966  13.224   6.259   5.685 -0.1001 -0.1489 -0.0216
30443ION     NA47967   0.508   1.589  15.885  0.1198  0.0030 -0.0415
30444ION     NA47968   8.705   8.112  10.573 -0.0421 -0.1948  0.0039
30445ION     NA47969   2.270   3.654  10.747 -0.3248  0.1152 -0.0926
30446ION     NA47970  14.370  11.070  10.770  0.0068 -0.3097 -0.2159
30447ION     NA47971  10.496   1.608  10.564 -0.3345 -0.0190 -0.0967
30448ION     NA47972  17.182  10.468  10.160  0.0766 -0.2670  0.0652
30449ION     NA47973   1.189   7.909   4.584  0.2624  0.0063 -0.3296
30450ION     NA47974   7.983  16.423   5.833  0.0003 -0.1029 -0.1239
30451ION     NA47975  13.238  11.129  11.444 -0.1268  0.0558 -0.0239
30452ION     NA47976   3.377   4.878   5.551 -0.3118  0.1455  0.3726
30453ION     NA47977  15.936   2.746   5.973  0.1501  0.0061  0.0151
30454ION     NA47978  17.442  12.449   5.442 -0.3673  0.0329 -0.1120
30455ION     NA47979  11.184   4.669   5.519  0.2690  0.1726 -0.0498
30456ION     NA47980   9.514   0.737  15.050  0.3920 -0.1734 -0.2838
30457ION     NA47981   5.924  11.445   5.972  0.1425  0.0349  0.2026
30458ION     NA47982  11.544  15.905  11.361  0.1073 -0.0852  0.1915
30459ION     NA47983  12.831   7.072  11.052  0.1504 -0.2684 -0.1701
30460ION     NA47984   0.374   1.811   1.264 -0.2655 -0.0088 -0.0214
30461ION     NA47985   3.540  16.106   5.915  0.3282  0.2494  0.3818
30462ION     NA47986   4.246   8.277   5.733  0.2343 -0.0154 -0.1524
30463ION     NA47987   6.458   3.698  10.363  0.1326 -0.0428 -0.3954
30464ION     NA47988   2.969   5.438  10.946 -0.1804 -0.0020 -0.0105
30465ION     NA47989  17.701   4.545   5.927  0.0334 -0.3155 -0.0315
30466ION     NA47990   7.698  17.816  10.672 -0.1396  0.1141  0.0979
30467ION     NA47991  10.400  12.314  10.728  0.2902  0.1253  0.3052
30468ION     NA47992  17.745   2.605   5.835 -0.0574 -0.1068 -0.1188
30469ION     NA47993  15.740   6.112   5.843  0.1764  0.3002 -0.0327
30470ION     NA47994   3.810   1.929   6.314 -0.2418 -0.2575 -0.1464
30471ION     NA47995   0.360  11.890   5.494 -0.0405 -0.0902 -0.0202
30472ION     NA47996   5.748   0.521   5.082 -0.0016 -0.3593  0.0667
30473ION     NA47997  14.169   0.725   6.404 -0.0596 -0.1899  0.0412
30474ION     NA47998  10.973  17.421  16.338 -0.2307 -0.0524 -0.1610
30475ION     NA47999  14.983   0.800   6.069  0.0277  0.0037  0.0412
30476ION     NA48000  12.838  16.923   3.688  0.0842  0.0912 -0.6059
30477ION     NA48001   1.775   4.503  12.015 -0.0689 -0.1594 -0.0656
30478ION     NA48002  11.074  14.232  11.234 -0.0409 -0.3050  0.1563
30479ION     NA48003  15.104   2.973   1.433 -0.0847  0.0553 -0.3103
30480ION     NA48004   9.599  15.815   1.821 -0.0429  0.0439 -0.1494
30481ION     NA48005   4.112  15.075  15.831  0.1274  0.4459  0.0275
30482ION     NA48006  10.858  10.605  10.862  0.1180  0.3441 -0.0946
30483ION     NA48007  16.772   9.661  10.146  0.0359 -0.2873 -0.2558
30484ION     NA48008  17.496  13.405   1.746 -0.1436 -0.1187 -0.0880
30485ION     NA48009   5.390  13.905  11.106 -0.2261 -0.1462 -0.0976
30486ION     NA48010  14.890  16.905   1.870  0.0799  0.3458 -0.0334
30487ION     NA48011   7.763  17.431   5.282  0.0649  0.1867  0.0094
30488ION     NA48012  14.945  14.140  10.899  0.2865 -0.1921 -0.0756
30489ION     NA48013  12.576   4.356   5.624  0.1531 -0.2959  0.0638
30490ION     NA48014  13.160  17.115   5.927 -0.0256 -0.0050 -0.0734
30491ION     NA48015   0.196   0.889  12.570  0.1503 -0.1151  0.0356
30492ION     NA48016  10.690   5.322   5.806  0.1364 -0.0874  0.3347
30493ION     NA48017  12.640  14.762   6.384 -0.4193  0.1357  0.0235
30494ION     NA48018  10.769   3.516  10.516  0.0198  0.1702  0.3899
30495ION     NA48019   2.417  14.236  13.437 -0.0525 -0.2430 -0.2429
30496ION     NA48020   0.836   1.653  10.980  0.0598 -0.0831 -0.0329
30497ION     NA48021  14.436   1.494   1.167 -0.4692 -0.1436  0.1208
30498ION     NA48022   9.301   4.341  15.568 -0.0968 -0.2369 -0.1042
30499ION     NA48023   4.392   1.269   6.430 -0.0818  0.0094 -0.1881
30500ION     NA48024   6.917   6.780   5.711  0.0469  0.0909 -0.0042
30501ION     NA48025  17.311   3.012  15.651 -0.4668  0.0762  0.2703
30502ION     NA48026  12.336   7.656  10.613  0.0368 -0.1180  0.1799
30503ION     NA48027   4.416   3.848   3.285  0.0589 -0.0694  0.0410
30504ION     NA48028   6.097  13.508  10.862 -0.1494 -0.2627 -0.0871
30505ION     NA48029   5.956   9.105   6.067 -0.2540  0.0133  0.1765
30506ION     NA48030   2.817   8.908  14.963  0.0071  0.1618 -0.0694
30507ION     NA48031   5.650   2.432   6.069 -0.2275 -0.1208 -0.1633
30508ION     NA48032   1.853  13.618   4.003 -0.1321 -0.0772 -0.0577
30509ION     NA48033   5.074  14.751  15.665 -0.1412  0.1719 -0.1618
30510ION     NA48034   8.192   5.850  10.668  0.1730  0.0923 -0.2307
30511ION     NA48035  16.386   5.368   5.242  0.3430  0.2052 -0.0565
30512ION     NA48036  16.223   9.418  10.778  0.0069 -0.4154  0.0742
30513ION     NA48037   7.106  14.622  10.889  0.0332 -0.0061  0.1055
30514ION     NA48038  17.878   1.287   5.861 -0.0114 -0.0052  0.1258
30515ION     NA48039  12.065   0.267   1.179  0.1513 -0.4146  0.2322
30516ION     NA48040   3.912  11.831  10.748 -0.0830 -0.0070 -0.0893
30517ION     NA48041   3.345   0.755  13.785 -0.1851 -0.2036 -0.1784
30518ION     NA48042   2.745  15.023  10.740  0.1377  0.1779 -0.2538
30519ION     NA48043  14.811  12.254  10.842 -0.1279 -0.0724  0.1698
30520ION     NA48044  11.607   7.686  10.814 -0.0739 -0.0637  0.1569
30521ION     NA48045   0.081   9.838   5.261  0.1003 -0.0311  0.2722
30522ION     NA48046  12.992  13.634   5.985 -0.1242 -0.0814  0.1024
30523ION     NA48047  10.520  16.042  10.940 -0.0930 -0.1004  0.0796
30524ION     NA48048   2.115   1.729   6.122 -0.2488  0.1495  0.0421
30525ION     NA48049  12.149   4.740   5.739 -0.1607  0.0605 -0.1325
30526ION     NA48050   6.896   2.734   4.092 -0.1515  0.1677  0.1829
30527ION     NA48051  17.927  14.699  11.572  0.1960  0.2446 -0.1971
30528ION     NA48052  10.774  11.759  14.124  0.1320 -0.1546 -0.2623
30529ION     NA48053   1.318   1.508   6.057 -0.2274 -0.0280 -0.2224
30530ION     NA48054  14.101  11.937  10.907 -0.2837  0.1281 -0.1185
30531ION     NA48055   2.519   7.303   5.720  0.0546 -0.0543 -0.0684
30532ION     NA48056   3.032   3.079  15.706  0.2623 -0.1854 -0.0968
30533ION     NA48057  12.656   4.073  14.667  0.1046 -0.1491 -0.1404
30534ION     NA48058  11.711   4.067  10.830 -0.1086 -0.0202  0.1314
30535ION     NA48059  16.110   5.925  11.660  0.2908  0.3737 -0.0662
30536ION     NA48060   7.069  11.507  11.619 -0.0812  0.2070  0.1190
30537ION     NA48061  10.328   8.704   5.914 -0.1427 -0.1368  0.0804
30538ION     NA48062   1.618   8.017   5.786  0.1533 -0.0155  0.3442
30539ION     NA48063  11.488  10.545   6.029 -0.3152  0.0268 -0.1509
30540ION     NA48064   1.297   5.123   0.869  0.5766 -0.3343 -0.0810
30541ION     NA48065  15.553   8.170   2.161  0.1824  0.1772 -0.1548
30542ION     NA48066  13.613  17.489  10.943  0.0184 -0.0120 -0.0448
30543ION     NA48067  16.764   6.924  10.510 -0.0765 -0.1482  0.2294
30544ION     NA48068   7.713  13.095   6.061  0.0241 -0.2636  0.1873
30545ION     NA48069   9.660   1.609   5.733  0.0533  0.2123  0.2370
30546ION     NA48070   0.526   3.114   5.533 -0.0642  0.3811  0.0350
30547ION     NA48071   4.798   7.281  10.564  0.2842  0.1371  0.0590
30548ION     NA48072   6.937   1.961  12.175  0.2245 -0.0832  0.3829
30549ION     NA48073  17.864  11.583  10.731  0.0522  0.0322 -0.0456
30550ION     NA48074  17.302  11.295   4.850  0.0743  0.0255 -0.0888
30551ION     NA48075  16.577  15.080  10.909  0.3262  0.1268 -0.2124
30552ION     NA48076  14.100   1.354   6.083  0.1016  0.1466 -0.1669
30553ION     NA48077   5.480   7.070   5.521  0.0452 -0.1772  0.2199
30554ION     NA48078  15.054  10.320   9.955 -0.0709 -0.1120  0.1887
30555ION     NA48079  10.772   6.274  11.168 -0.1077  0.1151 -0.2842
30556ION     NA48080  12.130  13.272   6.238 -0.2647 -0.3014  0.0339
30557ION     NA48081  12.354   9.582   1.390 -0.1118  0.0315 -0.2111
30558ION     NA48082   0.082   2.400   4.496 -0.1676 -0.0672  0.0740
30559ION     NA48083  17.670  12.773  10.497 -0.3035  0.3370  0.3596
30560ION     NA48084   1.556  15.099   5.639  0.3121  0.0919  0.0208
30561ION     NA48085   3.601  17.035   5.926 -0.0371 -0.0465 -0.0447
30562ION     NA48086   8.684   0.601  16.292  0.1525  0.0054  0.0240
30563ION     NA48087  16.534   1.924   4.006  0.0041 -0.0524  0.0261
30564ION     NA48088   1.207   3.391  13.883  0.0066  0.0460 -0.3454
30565ION     NA48089   6.353   4.579  10.660 -0.0553  0.2415  0.2097
30566ION     NA48090  11.909  14.545   5.730 -0.1290 -0.0616 -0.0072
30567ION     NA48091   1.886   6.551   5.336 -0.2038  0.1023  0.3924
30568ION     NA48092   2.977   4.147   4.339 -0.2475 -0.1975 -0.1379
30569ION     NA48093   5.307   9.912   0.841 -0.1741 -0.1754  0.0684
30570ION     NA48094  17.062   5.016  10.567  0.0711  0.1582  0.0651
30571ION     NA48095   1.683   1.293  10.883 -0.4716 -0.0431 -0.3402
30572ION     NA48096  15.477   9.945  10.010  0.0622  0.0909  0.1830
30573ION     NA48097   6.401   5.677  10.562  0.0813 -0.0330  0.0102
30574ION     NA48098  10.441  10.462  16.396  0.2015  0.1988  0.1863
30575ION     NA48099   8.836   6.979   4.617  0.0968  0.1553 -0.1738
30576ION     NA48100   0.667   1.111  10.969 -0.0535  0.0132 -0.0144
30577ION     NA48101  14.366   2.623   6.079  0.0910  0.0689  0.4032
30578ION     NA48102  11.136  11.972  10.781 -0.1523 -0.1797 -0.1128
30579ION     NA48103   3.805   9.318  10.853 -0.0175  0.1590  0.0294
30580ION     NA48104  13.946  10.710  10.646  0.4256  0.0746  0.0492
30581ION     NA48105  13.110   4.998  11.041  0.1955 -0.1630 -0.1101
30582ION     NA48106   0.248   6.913   5.907 -0.3202 -0.1008 -0.0227
30583ION     NA48107  10.029   6.068  16.307  0.0348  0.0849  0.3499
30584ION     NA48108  12.226   6.097   5.769  0.1718 -0.0612 -0.1976
30585ION     NA48109   4.094  15.018  11.103 -0.2154  0.0946  0.1039
30586ION     NA48110   3.145  11.625   5.457 -0.2469 -0.0939 -0.0721
30587ION     NA48111  17.022  15.660   3.475 -0.1453  0.1545  0.2105
30588ION     NA48112  15.322   8.448   5.545 -0.2024  0.1723 -0.0100
30589ION     NA48113   2.236  14.408  15.149  0.2373  0.1768  0.1103
30590ION     NA48114   5.660  13.537  12.578 -0.0719  0.1095 -0.2070
30591ION     NA48115   6.262   0.775  10.892  0.0956 -0.2000  0.0426
30592ION     NA48116   5.687  10.437   5.902 -0.0535  0.3789  0.1229
30593ION     NA48117   0.008   7.561   5.747 -0.3263  0.0972 -0.1434
30594ION     NA48118  13.808  15.383   6.023 -0.2143  0.1179 -0.1338
30595ION     NA48119   2.704   8.509  11.436 -0.2186 -0.3206  0.2478
30596ION     NA48120   6.211  12.512  11.063 -0.0874 -0.1123 -0.0223
30597ION     NA48121  15.884   6.435  10.601  0.0894  0.3474 -0.1921
30598ION     NA48122  16.150   8.237  10.349 -0.2438 -0.3795 -0.0370
30599ION     NA48123  16.018   4.181   6.033 -0.0180 -0.1272 -0.4787
30600ION     NA48124  13.519   1.700  12.520 -0.1561  0.3513  0.1464
30601ION     NA48125   2.709   4.661  10.802  0.0912  0.0956  0.3662
30602ION     NA48126  12.633  16.360   0.843  0.2907 -0.1102 -0.2032
30603ION     NA48127   4.183   3.521   0.008  0.0378 -0.0737 -0.0943
30604ION     NA48128   2.475   6.465  15.733  0.2442 -0.1180  0.0704
30605ION     NA48129  10.023  10.761   6.228  0.1159  0.0681  0.2191
30606ION     NA48130   1.533   8.532  10.458 -0.1087  0.0335  0.1026
30607ION     NA48131   6.262   5.736   5.866  0.0469 -0.3008 -0.0119
30608ION     NA48132  10.824   7.276  10.901 -0.2229 -0.0631 -0.2213
30609ION     NA48133   1.025  13.690  12.977  0.1280  0.1854  0.2569
30610ION     NA48134  15.972  10.631  10.218  0.3904  0.3472  0.0303
30611ION     NA48135   8.559  16.525   4.143 -0.1918  0.0175 -0.0971
30612ION     NA48136  17.144   5.914  10.552  0.1342 -0.0049  0.0775
30613ION     NA48137  13.911   1.991  11.767 -0.0783  0.2224  0.0196
30614ION     NA48138   6.699  12.104   6.006  0.1967 -0.1957 -0.1071
30615ION     NA48139  17.048   2.153   5.555  0.1705 -0.4076  0.3101
30616ION     NA48140   2.654   8.733  10.473  0.0502 -0.1429 -0.0190
30617ION     NA48141  16.007   2.415  11.331  0.2067  0.2990 -0.0998
30618ION     NA48142   9.498   2.193   4.726  0.2725 -0.2632 -0.0433
30619ION     NA48143   0.667  11.952  10.904 -0.1193  0.0248 -0.2046
30620ION     NA48144   0.497   4.394   5.255  0.6108  0.1990  0.1946
30621ION     NA48145  13.666   4.860  12.691 -0.0917  0.0009  0.0120
30622ION     NA48146  11.128   6.104   2.217 -0.0109  0.1776  0.0359
30623ION     NA48147   4.896   2.802   5.963  0.4944 -0.3671  0.1985
30624ION     NA48148  10.779   0.732  10.548  0.1911 -0.0799  0.0736
30625ION     NA48149  11.942   0.120  13.058 -0.2729 -0.0283  0.0967
30626ION     NA48150   2.078  16.758  10.742 -0.0808 -0.0603 -0.1981
30627ION     NA48151  13.459   4.242  10.831 -0.2713 -0.1180 -0.3501
30628ION     NA48152  17.039   3.122   6.080  0.0166 -0.0381  0.1134
30629ION     NA48153  15.527  16.885  10.880  0.0820  0.0031  0.0240
30630ION     NA48154  12.969   4.929   4.709 -0.0872 -0.0310 -0.0687
30631ION     NA48155   1.780   5.759  13.491 -0.0702  0.0637  0.0223
30632ION     NA48156   5.417   7.589  11.048 -0.1260  0.0407  0.3063
30633ION     NA48157  17.139   2.391  11.090  0.1225 -0.0247  0.1768
30634ION     NA48158   1.640  12.008  10.634 -0.3917  0.2639  0.2110
30635ION     NA48159   6.610   0.587  13.052 -0.3031  0.1253  0.1224
30636ION     NA48160   0.152  17.621  11.176  0.0304 -0.0558 -0.0331
30637ION     NA48161   3.922   2.601  10.433 -0.2000  0.1443  0.0248
30638ION     NA48162  14.992  13.990   5.794 -0.0863 -0.0127  0.0372
30639ION     NA48163   4.954  14.181  11.151  0.0894  0.0108  0.0671
30640ION     NA48164  17.944   2.808  12.783  0.1949 -0.2547 -0.0641
30641ION     NA48165   7.216   1.166  10.682  0.2849  0.1600 -0.2278
30642ION     NA48166   2.765  16.537   6.011 -0.0256 -0.2732 -0.0462
30643ION     NA48167  16.982   1.555   6.019  0.2507  0.1490  0.1413
30644ION     NA48168   1.649   3.613  10.586 -0.0447  0.0808 -0.1261
30645ION     NA48169  11.193  15.547   5.635 -0.2503 -0.2125  0.2205
30646ION     NA48170  17.137   9.416   5.353  0.2931  0.2159  0.0345
30647ION     NA48171   2.598  10.871   5.472 -0.2788  0.0383 -0.2414
30648ION     NA48172  14.650   6.479  12.171  0.0404  0.0888 -0.2222
30649ION     NA48173  16.388   7.312  12.088  0.1804 -0.2442  0.0975
30650ION     NA48174   4.536   0.649   5.988 -0.1478 -0.2160  0.0275
30651ION     NA48175   9.045  15.182  11.190 -0.2993  0.1350 -0.1468
30652ION     NA48176  10.498   6.246   4.353  0.0116  0.0585 -0.0319
30653ION     NA48177  17.405   2.860  11.209  0.0320 -0.0797 -0.3252
30654ION     NA48178  16.233   7.017   5.876 -0.1410 -0.1801  0.3848
30655ION     NA48179   2.989  17.304   5.613 -0.0470 -0.1522 -0.3268
30656ION     NA48180  15.178   3.201   6.029  0.1126  0.4281 -0.1459
30657ION     NA48181   2.526   8.184   5.864 -0.1860  0.2681 -0.3023
30658ION     NA48182  12.102   6.061  10.722 -0.0316 -0.2759 -0.3224
30659ION     NA48183   2.095  12.450   2.239 -0.1057  0.2170 -0.0172
30660ION     NA48184   4.708  13.677   6.032  0.2415 -0.1149  0.0817
30661ION     NA48185  15.985   8.887   5.474 -0.2123 -0.1118  0.1585
30662ION     NA48186   6.567   7.581   6.083 -0.2140  0.2665 -0.0996
30663ION     NA48187  14.838   6.658   5.758 -0.2034  0.2574 -0.3193
30664ION     NA48188  16.974   8.957  10.952 -0.0002  0.3378  0.0193
30665ION     NA48189  15.548   2.823   4.051 -0.2811  0.2904  0.1461
30666ION     NA48190   0.035  14.807  10.872 -0.2281 -0.3053 -0.0904
30667ION     NA48191  11.192  13.161   6.126  0.1316  0.1906 -0.2718
30668ION     NA48192  16.711  11.644   0.204  0.4350  0.2809 -0.0670
30669ION     NA48193   6.125  12.628   6.021  0.1396 -0.1332 -0.3250
30670ION     NA48194  16.263   4.722  10.840 -0.2401  0.3096  0.0342
30671ION     NA48195   7.697  12.145  10.881 -0.0202  0.1117  0.1480
30672ION     NA48196  16.253   5.421   5.747 -0.1742  0.3799 -0.2493
30673ION     NA48197   6.311  14.537   5.899 -0.0468  0.1291  0.1507
30674ION     NA48198   5.544  13.967   6.173 -0.0727 -0.0760  0.1702
30675ION     NA48199   5.715  10.528  16.097 -0.0869  0.1387 -0.1566
30676ION     NA48200  13.333  15.600  14.090  0.0499  0.1646  0.0644
30677ION     NA48201  11.412   6.144  12.789  0.3837 -0.0610 -0.2681
30678ION     NA48202  16.965   4.180  10.677  0.0984 -0.0397 -0.0808
30679ION     NA48203   9.720   9.222  10.848 -0.0728  0.1229  0.3122
30680ION     NA48204  13.793   2.302  10.861 -0.0351  0.0259  0.2483
30681ION     NA48205   2.492   4.327   5.681  0.2611 -0.0002 -0.0448
30682ION     NA48206  11.912   2.119  10.988  0.0390 -0.2020  0.0455
30683ION     NA48207  17.792   3.564   5.855 -0.1715  0.2226  0.0372
30684ION     NA48208  11.808   8.182   5.534  0.0126 -0.1378  0.0757
30685ION     NA48209  10.265   3.330  13.124 -0.1375  0.0804 -0.2559
30686ION     NA48210   8.355   1.133  13.105 -0.0213 -0.0563 -0.0312
30687ION     NA48211  12.111   2.478  12.166  0.1351 -0.4704 -0.0183
30688ION     NA48212  15.073  17.441  10.933 -0.0104  0.0123 -0.0663
30689ION     NA48213   1.593   7.586  16.079 -0.1305  0.0669  0.1423
30690ION     NA48214  11.834   6.767  10.955 -0.0711 -0.0064  0.4365
30691ION     NA48215   4.354   9.637   5.592 -0.2398 -0.0508  0.3585
30692ION     NA48216  16.864  12.588  10.707  0.1267  0.0379 -0.0855
30693ION     NA48217  15.416   2.081  10.656 -0.1063  0.1160  0.2038
30694ION     NA48218  15.449   3.684  13.837 -0.0600 -0.3458  0.0038
30695ION     NA48219  13.312   3.696   5.847 -0.1467 -0.0559  0.0769
30696ION     NA48220   4.810   6.124   0.841  0.0775 -0.0433 -0.1761
30697ION     NA48221  13.190  16.748  16.358  0.2093 -0.1100 -0.0393
30698ION     NA48222  14.852  13.248  10.911 -0.2860 -0.3479  0.1328
30699ION     NA48223   9.575   2.343   2.343  0.1342 -0.1375  0.0516
30700ION     NA48224   2.393   6.110  11.651  0.0472 -0.2633 -0.2587
30701ION     NA48225   1.221   1.142   1.322  0.0812  0.0720 -0.2734
30702ION     NA48226  15.309   9.941   4.323  0.0880 -0.1783  0.2070
30703ION     NA48227  14.474  14.706   5.799 -0.1855 -0.2321 -0.1116
30704ION     NA48228   4.893  11.364   5.796 -0.1574 -0.0245  0.2016
30705ION     NA48229   9.352  17.459  10.675  0.0182  0.0885 -0.3721
30706ION     NA48230  16.548  15.877  11.075  0.2640  0.2516  0.2194
30707ION     NA48231   5.380  17.858  10.798 -0.0988 -0.0040  0.0271
30708ION     NA48232  12.590   0.007   5.818 -0.2234 -0.0366 -0.2447
30709ION     NA48233   7.988  15.530   6.014 -0.3124  0.0862  0.2268
30710ION     NA48234   9.742   2.371   5.532 -0.0672  0.0810 -0.0557
30711ION     NA48235  13.148  12.683   5.995  0.0079 -0.1994  0.1033
30712ION     NA48236   2.168   3.413   5.907 -0.1950 -0.2962  0.1443
30713ION     NA48237   6.106  17.893   6.224 -0.4924  0.1357  0.5295
30714ION     NA48238   4.141   5.129  11.871 -0.0582 -0.0708 -0.2804
30715ION     NA48239   2.537   2.757   5.899  0.1164  0.0624  0.0547
30716ION     NA48240  16.934  13.584  10.619  0.0777 -0.1930 -0.5121
30717ION     NA48241  17.326  15.393  10.857 -0.3133  0.0868  0.0301
30718ION     NA48242  12.305   4.716   3.556  0.0238  0.1759 -0.0761
30719ION     NA48243  11.631  14.838   6.252 -0.4010  0.1481  0.2763
30720ION     NA48244   2.902   6.791  10.570 -0.0410  0.0361  0.0766
30721ION     NA48245   9.298   0.418  10.661 -0.1759 -0.0846  0.0026
30722ION     NA48246  17.839   3.775  16.129 -0.0865  0.1224 -0.2005
30723ION     NA48247  12.111  16.196  15.663 -0.1100 -0.0518 -0.0923
30724ION     NA48248  15.852   6.849  11.727  0.1598 -0.0714 -0.0175
30725ION     NA48249   2.938  13.795   5.587 -0.0423 -0.0446  0.3731
30726ION     NA48250  10.559   6.215   5.891 -0.3533  0.1959 -0.1165
30727ION     NA48251  11.351   7.529   4.225 -0.0820 -0.0282 -0.0092
30728ION     NA48252  16.900   3.350  10.696  0.3845  0.0437  0.0036
30729ION     NA48253   0.331   5.187   5.664  0.0669  0.3301 -0.2626
30730ION     NA48254  16.754  14.073   0.735  0.1816  0.1420  0.0359
30731ION     NA48255   8.038  10.472  10.801  0.0619 -0.1112  0.0843
30732ION     NA48256  14.979  17.036   4.972  0.1580  0.0530  0.0030
30733ION     NA48257   7.915   3.393  10.278 -0.1258 -0.3165  0.1539
30734ION     NA48258   0.366  12.674   5.523  0.2050  0.0155  0.1551
30735ION     NA48259   0.073   3.378  10.646 -0.0440 -0.1617  0.1105
30736ION     NA48260   9.352  15.364   5.780  0.0401 -0.1151  0.1682
30737ION     NA48261  16.087  17.884   5.240 -0.0584 -0.2168  0.1441
30738ION     NA48262  12.978   0.117  10.802  0.1987 -0.2100 -0.1500
30739ION     NA48263   2.552   3.229  16.408 -0.0765  0.0968 -0.5112
30740ION     NA48264   2.472  12.981   5.505 -0.2778  0.1793  0.0258
30741ION     NA48265   8.197   7.791   6.011 -0.0928 -0.0328 -0.2527
30742ION     NA48266  15.913  13.758  10.702  0.3954  0.0288  0.2610
30743ION     NA48267  15.696  15.721   6.146  0.1497  0.0255  0.0472
30744ION     NA48268   1.197  14.776  11.259 -0.2478  0.0342 -0.0738
30745ION     NA48269   8.847   2.603   5.832 -0.2248  0.2593 -0.2731
30746ION     NA48270   9.912  13.135  10.983 -0.0071 -0.0386 -0.0194
30747ION     NA48271   9.127   5.176  16.176  0.0574  0.0325 -0.1131
30748ION     NA48272   6.500  13.182  11.618  0.0868  0.0326 -0.0396
30749ION     NA48273   9.556  16.492  10.748  0.0733  0.0396  0.0683
30750ION     NA48274  15.755   2.558   3.217 -0.1015 -0.0148 -0.0629
30751ION     NA48275  14.523  14.141   1.362  0.2104  0.0770 -0.1281
30752ION     NA48276   4.565  10.703   4.443  0.1939  0.0552  0.0366
30753ION     NA48277  14.113   3.573   5.745  0.0469  0.0035  0.0640
30754ION     NA48278   6.796  11.377   5.838  0.1375  0.1886 -0.1024
30755ION     NA48279   6.249  12.597  13.490  0.1127  0.0955 -0.0148
30756ION     NA48280   5.524  12.072  10.973 -0.0149  0.1153 -0.0585
30757ION     NA48281   1.439  14.087  10.670 -0.0721  0.1341 -0.0574
30758ION     NA48282   3.492   1.562   5.534 -0.0722 -0.0246  0.0289
30759ION     NA48283   0.030   8.413   2.261 -0.2485 -0.1857  0.1268
30760ION     NA48284   3.745   3.237  11.146  0.3598 -0.0779  0.1750
30761ION     NA48285   9.125   2.196  10.377 -0.0904 -0.2921  0.2222
30762ION     NA48286   0.905   5.113  10.702 -0.1376  0.1853  0.1138
30763ION     NA48287   1.094  10.114  10.800 -0.1567  0.1344 -0.0214
30764ION     NA48288  14.291  13.459   5.609 -0.0502  0.1218 -0.1356
30765ION     NA48289   0.487  14.305   2.275 -0.0461 -0.1623 -0.0502
30766ION     NA48290  10.405  11.459  10.926 -0.0335  0.1838 -0.2552
30767ION     NA48291  17.083   6.232  10.181  0.5679  0.2836 -0.2065
30768ION     NA48292   6.144  17.501  10.899 -0.2438 -0.0421 -0.0015
30769ION     NA48293   9.799   8.149   0.335  0.0864 -0.1760  0.5752
30770ION     NA48294  14.307   8.257   5.487  0.2770 -0.0414 -0.2974
30771ION     NA48295   2.284   1.887  10.668  0.0556  0.4436 -0.0277
30772ION     NA48296  11.142   6.554  10.831 -0.1544  0.0486  0.0087
30773ION     NA48297  10.573   4.894   6.105 -0.1235 -0.1369  0.0991
30774ION     NA48298   1.374  16.161  10.744  0.2878  0.0934  0.0287
30775ION     NA48299   9.321  13.878  10.823 -0.0153 -0.1356 -0.1090
30776ION     NA48300   5.251  12.685  11.541 -0.1722  0.0930 -0.2037
30777ION     NA48301  17.617  17.301  14.207  0.0530  0.0783  0.0379
30778ION     NA48302  12.404  11.102  10.914  0.0380 -0.1262  0.2415
30779ION     NA48303  15.004  15.171   1.750  0.1082  0.0530  0.1932
30780ION     NA48304  12.894   5.954  10.822  0.0449  0.1145 -0.1891
30781ION     NA48305   7.418   1.215  10.218 -0.0954  0.0661 -0.1417
30782ION     NA48306  11.056  12.859   0.483  0.1671 -0.0370  0.0581
30783ION     NA48307  11.884   9.868   5.549 -0.0897 -0.1715  0.0530
30784ION     NA48308   7.460  10.575   5.673  0.1220 -0.0828  0.2117
30785ION     NA48309   0.640   9.154   5.204  0.2433 -0.2078 -0.0224
30786ION     NA48310  16.061   1.637   6.032  0.1465 -0.1067 -0.2550
30787ION     NA48311   7.994   7.611  10.839 -0.0283 -0.2281  0.0750
30788ION     NA48312   0.008   8.555  10.375 -0.3814 -0.1829  0.0247
30789ION     NA48313   5.632  14.927   5.962 -0.3505  0.0986  0.2760
30790ION     NA48314   1.941   0.807   6.000  0.0842 -0.0343 -0.1615
30791ION     NA48315  16.444  13.463  12.352  0.4122  0.2036  0.1878
30792ION     NA48316   9.395   3.465   5.859 -0.1425 -0.0060 -0.2973
30793ION     NA48317   9.394   8.413  15.118  0.2835  0.2293  0.1051
30794ION     NA48318  11.847  14.426   6.475  0.3554  0.1676  0.0706
30795ION     NA48319  13.713   5.819  11.059  0.0187 -0.1910 -0.1885
30796ION     NA48320  17.527   3.850   6.185 -0.2646 -0.3202  0.1391
30797ION     NA48321   2.253  14.256   4.785 -0.0302 -0.0843 -0.0515
30798ION     NA48322  14.099   8.260  10.665 -0.1737  0.0120  0.0891
30799ION     NA48323   4.713   8.759   5.590  0.0171 -0.0649 -0.2548
30800ION     NA48324   9.121  11.458   6.140  0.3436  0.0388 -0.0969
30801ION     NA48325   4.481  15.710  10.903 -0.0794  0.5797 -0.2237
30802ION     NA48326   7.460   7.072   5.928 -0.3333 -0.1073  0.2306
30803ION     NA48327   9.919  14.584  10.923 -0.0516 -0.1296  0.2520
30804ION     NA48328   3.013  16.536  11.419 -0.0532 -0.1342  0.2409
30805ION     NA48329   9.897   7.559  10.819  0.1306  0.0461  0.0421
30806ION     NA48330  17.774  17.728  11.722  0.1694 -0.0834 -0.0018
30807ION     NA48331  10.712   0.461   2.828 -0.0140  0.2019 -0.1754
30808ION     NA48332   7.677  16.023   5.976 -0.3624 -0.0672 -0.0938
30809ION     NA48333   2.171   6.301   5.774 -0.5152  0.0718  0.0379
30810ION     NA48334   7.267  15.659  10.815  0.1449  0.1667  0.5260
30811ION     NA48335  11.500  10.786  10.968 -0.0547  0.0425  0.0006
30812ION     NA48336   4.560  12.415  10.902 -0.0574  0.2705  0.0335
30813ION     NA48337  11.368  16.684   5.770  0.1524  0.1280  0.0816
30814ION     NA48338   0.250   9.980  10.241 -0.1024  0.4976 -0.0642
30815ION     NA48339   8.260   1.262   5.568  0.1612 -0.0640 -0.2004
30816ION     NA48340   3.348   8.684   5.893 -0.1560  0.2370 -0.2082
30817ION     NA48341   6.120   6.645   5.190  0.0777  0.1106 -0.0508
30818ION     NA48342  13.484  13.713   5.904 -0.1286  0.1314  0.0252
30819ION     NA48343   3.299  13.463  11.392 -0.1957  0.1762 -0.0910
30820ION     NA48344  11.072   6.196  16.345 -0.3412 -0.0309 -0.2035
30821ION     NA48345  12.156  12.076  11.029  0.1363  0.1908 -0.2011
30822ION     NA48346   6.068   2.152  10.775  0.3219 -0.1036 -0.0089
30823ION     NA48347  10.600  13.378   5.792 -0.1345  0.0166 -0.0072
30824ION     NA48348   0.200   0.409   5.947  0.4296  0.0146 -0.0992
30825ION     NA48349  17.588   7.963  10.211  0.0088 -0.1706 -0.0839
30826ION     NA48350  11.353  12.932  10.932  0.0492 -0.1755 -0.1350
30827ION     NA48351  13.318   9.853   3.733  0.1640 -0.0999 -0.3444
30828ION     NA48352  14.223  14.182  12.287  0.1457  0.0331 -0.0405
30829ION     NA48353   1.713  17.691   1.705  0.0261  0.0828 -0.1147
30830ION     NA48354   5.443  16.915  14.038  0.0922  0.2604 -0.0260
30831ION     NA48355   7.394   9.546   5.992 -0.0798 -0.0433 -0.1826
30832ION     NA48356   3.480   2.754   5.972  0.3157 -0.2295 -0.3422
30833ION     NA48357  17.570  13.349  12.353  0.0335  0.1605 -0.4612
30834ION     NA48358  12.283  16.711   5.574 -0.1168  0.0109  0.2596
30835ION     NA48359  17.308  17.497  10.803  0.1201  0.0556  0.1913
30836ION     NA48360  10.351   9.037  12.238 -0.2829 -0.0628 -0.0863
30837ION     NA48361   4.486   9.867  10.480 -0.0986 -0.0097 -0.0949
30838ION     NA48362   6.318   8.007  11.156 -0.1731 -0.3359  0.0619
30839ION     NA48363   9.374   0.556  11.166 -0.4654  0.1384 -0.1016
30840ION     NA48364   3.218   2.349  10.660 -0.0313  0.0393  0.1073
30841ION     NA48365   7.938   0.531   4.439  0.0637 -0.0239  0.1007
30842ION     NA48366   4.850  12.688   4.570  0.1896  0.1665 -0.0927
30843ION     NA48367   1.302   6.680   5.833 -0.0752 -0.0443 -0.1231
30844ION     NA48368  13.738  11.647   5.365  0.0750 -0.0308 -0.1057
30845ION     NA48369   9.006   3.569   4.868 -0.1753  0.2830 -0.0644
30846ION     NA48370   8.545  13.084   6.055  0.0571  0.1621 -0.2039
30847ION     NA48371   1.390  17.276  11.180  0.0597 -0.1663 -0.5118
30848ION     NA48372   7.193   4.739   5.902 -0.1874 -0.1304  0.0523
30849ION     NA48373   1.983  10.152  10.579  0.0093 -0.0381 -0.2478
30850ION     NA48374   8.951   4.687   5.755 -0.2566 -0.2514 -0.1483
30851ION     NA48375   4.809   7.801  10.508 -0.0545  0.1078  0.2316
30852ION     NA48376   3.003   3.604   5.861 -0.3122  0.0453  0.3092
30853ION     NA48377   1.651  10.607   5.605  0.4962 -0.1800 -0.1721
30854ION     NA48378   0.503  13.635   5.668  0.0936  0.0758 -0.3129
30855ION     NA48379   4.849  12.815   6.006 -0.1303  0.0050 -0.0539
30856ION     NA48380   3.311   6.744   5.922  0.4554  0.0877 -0.0493
30857ION     NA48381   7.951   8.869   1.643  0.4365  0.0504  0.1319
30858ION     NA48382   8.384   9.932   5.637 -0.0950 -0.2620  0.1318
30859ION     NA48383   1.249  15.473  13.580 -0.0038  0.5599 -0.2115
30860ION     NA48384   3.451   4.333   5.503  0.3067  0.1455  0.0376
30861ION     NA48385  13.188   9.191   5.238 -0.2387  0.1635 -0.1393
30862ION     NA48386  12.530   0.295  14.929  0.1512 -0.4801 -0.0405
30863ION     NA48387   2.449   9.682   5.401  0.1942 -0.2047  0.0403
30864ION     NA48388   6.064  12.750   4.551  0.0421 -0.0861  0.0477
30865ION     NA48389  14.974  15.493   0.419  0.1473 -0.1324  0.0121
30866ION     NA48390   8.872  12.182  10.649 -0.2249 -0.0654 -0.2334
30867ION     NA48391   6.704   7.156  10.585 -0.1345  0.2314  0.0234
30868ION     NA48392  11.205  17.749  10.781  0.0175  0.0856 -0.0112
30869ION     NA48393   9.085   7.757  10.549 -0.2610 -0.0062  0.0692
30870ION     NA48394   9.405  13.938   5.681 -0.1783  0.0686 -0.0944
30871ION     NA48395  15.235   4.733   6.166  0.1171  0.0793 -0.1372
30872ION     NA48396  14.094   3.689   5.167  0.0489  0.3177  0.0951
30873ION     NA48397  17.751  10.694  10.209 -0.0428  0.2256 -0.1179
30874ION     NA48398  17.749   1.745   5.953 -0.0138  0.3181 -0.2571
30875ION     NA48399   3.516   1.997  13.085 -0.0635  0.2879  0.1574
30876ION     NA48400  15.679  13.417   5.490 -0.2582 -0.2286 -0.0764
30877ION     NA48401  16.777   4.640   6.058 -0.0899  0.0791 -0.0132
30878ION     NA48402  14.007   1.366   3.271 -0.0951 -0.1937 -0.1892
30879ION     NA48403  11.851   3.116  10.698 -0.0062  0.1010 -0.1308
30880ION     NA48404   2.088  13.814   5.573 -0.2098  0.2796  0.2996
30881ION     NA48405   9.837   4.886   4.248 -0.0429 -0.0060 -0.0109
30882ION     NA48406   5.346   4.547   5.564 -0.1318 -0.0235 -0.0004
30883ION     NA48407  11.508   9.816  10.787  0.2287  0.0456 -0.0221
30884ION     NA48408   8.973   8.445   5.853 -0.2276 -0.1462 -0.0877
30885ION     NA48409   5.070   3.008  10.608  0.4924 -0.2699  0.2039
30886ION     NA48410   0.699   6.266  10.315 -0.0225 -0.0473 -0.3696
30887ION     NA48411   8.677   0.381   5.400  0.3466 -0.2197 -0.1443
30888ION     NA48412  17.712   8.879   4.572  0.1450  0.0299  0.0101
30889ION     NA48413   4.464  13.170   1.731  0.0130  0.1397  0.1444
30890ION     NA48414   5.458  17.360   5.885  0.1806  0.2318  0.0120
30891ION     NA48415   8.433  13.869   5.901  0.1192  0.0549  0.1872
30892ION     NA48416  16.537  15.920   4.821 -0.0584  0.2805  0.0110
30893ION     NA48417   5.944   2.734  10.767  0.1593  0.3920 -0.3972
30894ION     NA48418  12.306   9.074   5.634  0.0702 -0.1847 -0.0160
30895ION     NA48419  17.743   5.108  10.444 -0.2927 -0.1323 -0.0348
30896ION     NA48420   1.265   4.656   1.743 -0.0215  0.1425  0.2074
30897ION     NA48421   4.484   0.589  10.831 -0.5331 -0.0221  0.4036
30898ION     NA48422   8.111   5.629   5.971 -0.0443  0.0647  0.0116
30899ION     NA48423   7.205  16.040   4.333  0.0730  0.2561  0.1557
30900ION     NA48424  15.954  10.284   5.391 -0.2741 -0.1718 -0.1775
30901ION     NA48425   3.777  10.431  14.770 -0.0058 -0.1029 -0.0487
30902ION     NA48426  11.023  17.212   5.918  0.4810 -0.0648  0.3929
30903ION     NA48427  12.539   1.534  10.718  0.2026 -0.0787 -0.1024
30904ION     NA48428   6.255   1.069   3.830  0.3712 -0.0402 -0.2171
30905ION     NA48429  17.703  13.730  10.678 -0.0125  0.1016  0.2427
30906ION     NA48430  15.763  13.172   5.070  0.2111 -0.1013 -0.0132
30907ION     NA48431   9.960   8.484  10.760 -0.2050 -0.4915 -0.3465
30908ION     NA48432   6.726   9.305  16.460  0.1765 -0.2521  0.1627
30909ION     NA48433  16.051  17.465  11.310 -0.0708  0.1432  0.1248
30910ION     NA48434   9.757  10.095   5.904  0.2919 -0.0539  0.0231
30911ION     NA48435   2.223   6.193  10.783  0.2014 -0.1705 -0.0028
30912ION     NA48436   6.999   8.005   2.045 -0.1080  0.1065 -0.4495
30913ION     NA48437  13.220  16.141   6.334  0.0438 -0.2679 -0.4402
30914ION     NA48438   5.058   8.783  10.976 -0.2887 -0.1360 -0.0427
30915ION     NA48439   6.869   1.986  10.624 -0.0069 -0.2895 -0.0941
30916ION     NA48440  17.138   7.700   5.789 -0.1406  0.2048  0.1781
30917ION     NA48441  15.521   8.848  10.359 -0.4893 -0.0555 -0.0513
30918ION     NA48442   1.703  12.215   5.472 -0.0413  0.0675 -0.0664
30919ION     NA48443  16.655  14.359   2.640 -0.0353 -0.1117 -0.0089
30920ION     NA48444   0.784  17.352   5.615 -0.0391  0.2579  0.0924
30921ION     NA48445  16.840   1.405  12.327 -0.2354 -0.1311  0.2215
30922ION     NA48446   6.526   6.471  10.576 -0.1285  0.1058 -0.4977
30923ION     NA48447  15.738  12.742  10.599  0.1081  0.2439 -0.0688
30924ION     NA48448  16.061  16.551   5.860 -0.0718 -0.1253  0.0699
30925ION     NA48449  10.190   3.394  15.298  0.0132  0.0841  0.0200
30926ION     NA48450  17.163  17.791   1.976 -0.2415 -0.2298  0.0991
30927ION     NA48451  11.762   1.564   5.633 -0.1244 -0.1696  0.1721
30928ION     NA48452   6.956   7.381  12.161 -0.0670  0.1123 -0.1233
30929ION     NA48453   5.001   9.671  10.486  0.1139 -0.1706  0.0310
30930ION     NA48454   6.439   4.363   5.944 -0.2508  0.1587 -0.0792
30931ION     NA48455   2.472   2.685   3.342 -0.0292  0.1901 -0.1386
30932ION     NA48456  13.155  11.822  13.845 -0.2891 -0.0314 -0.1259
30933ION     NA48457   3.550  15.691  10.920 -0.0421  0.0137  0.1758
30934ION     NA48458  17.288   8.914  10.073  0.3220  0.1858  0.2130
30935ION     NA48459   2.306   5.324   5.778  0.2187 -0.0484  0.0773
30936ION     NA48460  13.122  12.271   4.409  0.1252  0.1254  0.0597
30937ION     NA48461   3.763  13.648  11.171  0.2925 -0.1873  0.3859
30938ION     NA48462  16.639  11.282  10.398 -0.1561  0.0649 -0.1210
30939ION     NA48463   8.822   8.581  10.775 -0.0029 -0.0785 -0.1074
30940ION     NA48464   4.612   4.816  10.733  0.2335  0.0706  0.3930
30941ION     NA48465   8.149   8.548   5.428  0.0895  0.2523 -0.3605
30942ION     NA48466  11.165   5.565  10.724 -0.1330 -0.0908 -0.2299
30943ION     NA48467   8.698   3.050   5.999  0.0458  0.0699  0.2577
30944ION     NA48468   9.458  17.431  16.239 -0.1271 -0.0854 -0.1515
30945ION     NA48469  10.525   9.712  10.908  0.0948 -0.0386  0.1653
30946ION     NA48470   3.205  15.632   6.096 -0.1226  0.1155  0.0656
30947ION     NA48471   1.561  13.502   5.500 -0.0101 -0.0834  0.0694
30948ION     NA48472  12.722  17.483  10.546 -0.2158  0.0997  0.2751
30949ION     NA48473  16.798  16.807  11.275  0.5794 -0.0388  0.0948
30950ION     NA48474  10.984   1.783   5.727 -0.1527 -0.1822  0.2940
30951ION     NA48475  13.071  11.931  15.318  0.0912 -0.1071  0.0659
30952ION     NA48476  12.582   4.090   1.692 -0.2915  0.2546  0.2787
30953ION     NA48477   4.547  11.662   5.525  0.0233  0.0329  0.0482
30954ION     NA48478   2.208   2.716  10.716 -0.0430  0.2872  0.3211
30955ION     NA48479  14.824   1.553   5.709  0.0641 -0.1155 -0.2237
30956ION     NA48480  13.921   1.269  10.834  0.0336  0.3033 -0.4276
30957ION     NA48481   2.300  11.192  10.695 -0.1617  0.0502  0.2470
30958ION     NA48482  17.192   5.379   5.716  0.1595  0.2467  0.0280
30959ION     NA48483  13.432   3.582  10.655 -0.2779  0.0115  0.0893
30960ION     NA48484  16.390   1.901  10.684 -0.1519 -0.0086 -0.0093
30961ION     NA48485   6.544  16.121   5.766 -0.2710 -0.0263  0.0173
30962ION     NA48486   3.131   9.503   4.211 -0.0860  0.0319 -0.1354
30963ION     NA48487  15.657  16.379  10.984  0.1516  0.1485  0.2097
30964ION     NA48488  13.011   2.714  10.887  0.2758 -0.0186 -0.2462
30965ION     NA48489   0.424   7.253  10.309 -0.1703 -0.2302 -0.0693
30966ION     NA48490   6.822  14.534   6.054 -0.1695  0.0519  0.3744
30967ION     NA48491  13.813  16.703   1.866  0.2525 -0.0446  0.0653
30968ION     NA48492  13.396   9.854  10.689 -0.2870 -0.0604 -0.1373
30969ION     NA48493  13.500   3.283   0.044  0.0508  0.0402  0.2480
30970ION     NA48494  10.885  12.316   6.261  0.1029  0.0070  0.2679
30971ION     NA48495   8.268   7.039   6.087  0.1439  0.1336  0.0137
30972ION     NA48496  17.691   9.707  10.323 -0.0816 -0.0083  0.0218
30973ION     NA48497   3.427  10.861   5.463 -0.3025  0.2529 -0.1209
30974ION     NA48498   4.992   3.973  10.409  0.0537  0.1990  0.0928
30975ION     NA48499   2.965   5.066   5.618 -0.0673  0.1541 -0.1411
30976ION     NA48500   8.316  11.583  12.166 -0.2045  0.2141 -0.0245
30977ION     NA48501  12.451   0.925   5.746  0.1299 -0.0572 -0.4254
30978ION     NA48502   6.192   1.510   6.110  0.0629  0.1189  0.0042
30979ION     NA48503   4.323   1.849   5.022  0.1797  0.1327 -0.1243
30980ION     NA48504   5.168   1.642   6.534  0.4823  0.2365  0.3966
30981ION     NA48505  10.880   2.263   2.816 -0.0627 -0.2383  0.1218
30982ION     NA48506   1.515   4.324  10.734 -0.4213  0.0917  0.0241
30983ION     NA48507   8.546  17.836  10.670  0.0764  0.2213  0.0355
30984ION     NA48508   6.347  10.775  10.717  0.4253  0.1620  0.0591
30985ION     NA48509   8.614  16.325  10.940 -0.0104  0.0353 -0.0415
30986ION     NA48510   9.201  16.973   2.888  0.0449 -0.3172  0.1147
30987ION     NA48511   6.068  10.051   5.983  0.0405 -0.4309  0.0737
30988ION     NA48512  11.108  13.610  13.029  0.2055 -0.0976 -0.0407
30989ION     NA48513   1.408   6.764  10.313 -0.3586  0.1759 -0.0387
30990ION     NA48514   6.677  15.033   1.864  0.1888  0.0896 -0.1899
30991ION     NA48515   7.754   5.353  10.257 -0.0169  0.3271  0.1523
30992ION     NA48516   7.712  14.659   6.158 -0.0911  0.0640 -0.0639
30993ION     NA48517  13.893   4.433   5.717  0.0287 -0.1379 -0.0547
30994ION     NA48518   1.026   0.375   5.671 -0.1705  0.0518 -0.3644
30995ION     NA48519  15.208  10.681   5.321 -0.5318  0.1258  0.1654
30996ION     NA48520  16.800  17.595  10.718 -0.0665  0.1769 -0.0805
30997ION     NA48521  12.966   6.604  10.880 -0.2843  0.1717 -0.1215
30998ION     NA48522   4.006  10.012   5.620 -0.1124  0.3359  0.1437
30999ION     NA48523   4.339   2.925   5.385  0.0803 -0.1629  0.0519
31000ION     NA48524   0.704  11.081   5.554  0.0606  0.0230 -0.0053
31001ION     NA48525  12.494  10.095  10.725 -0.1559  0.2574  0.0985
31002ION     NA48526  12.885   1.715   5.552 -0.1612 -0.1739  0.1465
31003ION     NA48527   6.270   6.784   5.773 -0.0451 -0.3023  0.1219
31004ION     NA48528   7.968   4.918  10.431 -0.0111 -0.1694 -0.0781
31005ION     NA48529  10.212  17.700   5.839 -0.3155  0.1120  0.0489
31006ION     NA48530   5.548  13.322   5.915  0.1117 -0.0887 -0.4214
31007ION     NA48531  16.311   8.618   5.210 -0.1303  0.1209 -0.3550
31008ION     NA48532  17.900   6.054   5.698 -0.1177 -0.3101 -0.1428
31009ION     NA48533  13.251   7.931  10.952  0.1707  0.0663 -0.1167
31010ION     NA48534   7.370  17.072   6.049 -0.0945  0.2004 -0.2270
31011ION     NA48535  16.634  14.862   5.569  0.0711 -0.0250  0.0302
31012ION     NA48536  17.074  16.564   5.707  0.0974  0.2792 -0.1512
31013ION     NA48537   0.302   2.618  11.209  0.0048  0.1617 -0.1404
31014ION     NA48538   3.929   8.603   4.894 -0.1508  0.0738  0.2413
31015ION     NA48539   9.559  12.741   5.370 -0.1841 -0.0234 -0.1440
31016ION     NA48540  10.816  14.978  10.652  0.3231 -0.5198  0.1714
31017ION     NA48541  10.350  13.808  10.828 -0.0622  0.1856 -0.2762
31018ION     NA48542  16.546  13.738   5.130  0.2549  0.0435 -0.1070
31019ION     NA48543  16.114   3.768  10.793 -0.2578 -0.5538  0.3660
31020ION     NA48544   1.383  11.486  10.594 -0.2794 -0.0550 -0.0144
31021ION     NA48545   0.662   9.055  10.372 -0.4673 -0.0625 -0.2670
31022ION     NA48546   6.901  11.690  10.775  0.1090 -0.0528 -0.1491
31023ION     NA48547   2.792   4.190  10.793  0.0804  0.2967  0.1328
31024ION     NA48548  15.240  17.212   6.343 -0.0605 -0.0145 -0.2280
31025ION     NA48549   1.694   2.677  10.887  0.0192 -0.3038 -0.2896
31026ION     NA48550   6.300  16.634  10.788 -0.1724  0.1892 -0.0242
31027ION     NA48551   0.543  13.296   3.298 -0.0945  0.1569 -0.2152
31028ION     NA48552  10.465   0.032  10.916  0.0833  0.0356 -0.0134
31029ION     NA48553   4.115  15.798   5.669 -0.1764 -0.0148 -0.2789
31030ION     NA48554   0.556  10.984  10.233 -0.0202 -0.0872 -0.1676
31031ION     NA48555  13.572  15.285  15.872  0.1321 -0.1583 -0.1750
31032ION     NA48556  17.736   8.784   5.479  0.3674  0.0855  0.2158
31033ION     NA48557  14.531   4.477  12.654  0.0899  0.0718 -0.2842
31034ION     NA48558  17.266   8.276   2.095 -0.4482  0.0919 -0.2162
31035ION     NA48559  12.368  14.825  10.767 -0.0559  0.0849  0.4364
31036ION     NA48560  15.160  10.412  10.788  0.1858 -0.2094 -0.0664
31037ION     NA48561   2.376  12.500  10.462 -0.1615  0.1642 -0.2571
31038ION     NA48562   5.257   0.857  10.906 -0.0772  0.0506 -0.2198
31039ION     NA48563   1.901  11.947  12.862 -0.0747  0.1114 -0.1457
31040ION     NA48564   0.958   3.184  10.798 -0.1693  0.1882 -0.0522
31041ION     NA48565  16.598  11.005   5.163  0.1777 -0.3959  0.1314
31042ION     NA48566  10.248  17.281  10.726 -0.2904 -0.0603  0.0547
31043ION     NA48567   8.081  13.938  10.838 -0.0844  0.0087  0.1235
31044ION     NA48568  15.745   9.136  13.332 -0.2377  0.2349 -0.2223
31045ION     NA48569   4.796  16.780   5.988 -0.1921 -0.3476 -0.0120
31046ION     NA48570  13.980  12.356   5.837  0.0625  0.0322  0.5310
31047ION     NA48571  13.998   0.329  10.920 -0.3655 -0.1089  0.1482
31048ION     NA48572  14.564  14.466  10.973  0.1247  0.0484 -0.0632
31049ION     NA48573   6.926   4.993  10.531 -0.0349  0.1072 -0.0253
31050ION     NA48574   7.584  14.808  10.845 -0.3515 -0.0071  0.5471
31051ION     NA48575  15.190   8.138   5.924  0.1350  0.1888  0.1238
31052ION     NA48576   9.827   2.247  10.991 -0.0424  0.4269  0.1843
31053ION     NA48577  17.287  10.436   5.225 -0.2363 -0.0025 -0.1614
31054ION     NA48578  14.585   8.762   5.721  0.1354  0.1790 -0.0258
31055ION     NA48579  17.339   0.487  11.064  0.4594  0.0019 -0.1734
31056ION     NA48580   6.606   2.856  10.521 -0.1009 -0.2211  0.2785
31057ION     NA48581   1.320   4.814   5.606  0.2088  0.2140 -0.0043
31058ION     NA48582   1.191  14.566   0.276  0.2123  0.0219  0.0522
31059ION     NA48583   3.847  15.006   6.055  0.2687 -0.0433 -0.1780
31060ION     NA48584  14.388  13.339  11.646  0.1076 -0.0345 -0.1994
31061ION     NA48585   0.549   1.946   5.946 -0.0129 -0.0550  0.2592
31062ION     NA48586  16.126  15.548   5.796 -0.1099  0.2666  0.2625
31063ION     NA48587   6.727  17.754  10.759 -0.1085  0.0588  0.1539
31064ION     NA48588   2.165  11.660   5.590  0.0578 -0.1184 -0.1643
31065ION     NA48589  15.269  14.190   2.078 -0.1228 -0.3304 -0.0305
31066ION     NA48590   7.295  16.522   3.396  0.0411 -0.2208  0.1579
31067ION     NA48591  16.392   5.572  10.438  0.1144  0.0449 -0.1669
31068ION     NA48592  15.749  15.454  10.873  0.0482  0.0788 -0.0502
31069ION     NA48593   4.117  12.328   5.816  0.0367  0.1844  0.1489
31070ION     NA48594   7.842  11.213  10.682 -0.2886 -0.2004  0.2824
31071ION     NA48595   4.682   1.479  10.738 -0.2558 -0.0474 -0.0756
31072ION     NA48596  16.785  15.210  14.716  0.0841 -0.0434 -0.0223
31073ION     NA48597  10.342   5.465  10.829  0.1711 -0.0714 -0.1523
31074ION     NA48598  14.819   0.819  15.800  0.3092  0.2018  0.3577
31075ION     NA48599   6.074   8.717  10.761  0.0380  0.0365  0.2149
31076ION     NA48600  11.408   2.616   5.509  0.2623  0.0268 -0.1813
31077ION     NA48601  12.577   0.850  11.007 -0.1047 -0.0301  0.0229
31078ION     NA48602   3.579   4.873  10.771  0.1132 -0.1843 -0.0582
31079ION     NA48603  15.905  13.125  15.579  0.0062  0.1324 -0.0872
31080ION     NA48604  14.284  16.452   6.209 -0.0492 -0.2556  0.2615
31081ION     NA48605   8.509   0.942  10.711  0.1753 -0.0066  0.0399
31082ION     NA48606  12.387   9.605  10.811  0.3621  0.0591 -0.0814
31083ION     NA48607  14.842   8.276  11.365  0.1916 -0.1573 -0.3351
31084ION     NA48608  16.096   2.810  10.939 -0.0356 -0.0232  0.2178
31085ION     NA48609  11.907  13.160   2.121 -0.1118 -0.0315  0.1118
31086ION     NA48610  13.872  15.986  10.905 -0.2216  0.2023 -0.1644
31087ION     NA48611   8.502  14.874   5.854  0.1978 -0.3426 -0.0454
31088ION     NA48612   7.458  15.714   1.080 -0.0672  0.0947 -0.1337
31089ION     NA48613   6.260  12.484   1.611 -0.1069  0.2034 -0.1118
31090ION     NA48614  17.049  11.926   5.439 -0.1219 -0.4355 -0.2655
31091ION     NA48615   4.057  10.827  10.657  0.1025  0.2539  0.0299
31092ION     NA48616   1.196   4.140   5.704  0.3995 -0.0153 -0.0684
31093ION     NA48617   4.243  16.297  10.878 -0.3639  0.0397 -0.2653
31094ION     NA48618   1.061   5.622  13.069 -0.0401  0.2151 -0.0155
31095ION     NA48619   6.915   4.772   2.431  0.0921 -0.0702  0.4534
31096ION     NA48620   6.129  15.518   5.992 -0.0511 -0.1467 -0.0639
31097ION     NA48621   4.151   3.179   5.828 -0.0186 -0.2150  0.0942
31098ION     NA48622   0.813   4.209  10.696 -0.0650 -0.1077  0.4078
31099ION     NA48623   7.895  10.405  14.741  0.0404  0.1727  0.0129
31100ION     NA48624   9.922   3.200  10.547 -0.0480  0.2001 -0.2716
31101ION     NA48625  10.012  10.416  11.003 -0.3603  0.1378  0.1273
31102ION     NA48626   7.857  16.570  16.395 -0.1374  0.0312  0.1428
31103ION     NA48627  12.415   3.876   5.766 -0.0749 -0.0037  0.1118
31104ION     NA48628   8.773  13.837   5.027  0.0952  0.1763  0.0841
31105ION     NA48629   1.514  17.725   3.128 -0.1166  0.0020 -0.0331
31106ION     NA48630  16.692   4.768  13.811 -0.0708  0.1041  0.0143
31107ION     NA48631   1.030  15.542  10.609  0.0700 -0.2353 -0.1531
31108ION     NA48632   3.391   1.841  10.728 -0.0245  0.3165 -0.1470
31109ION     NA48633   1.688  14.970  10.511 -0.2708 -0.3723  0.1190
31110ION     NA48634   1.614   2.188  15.429 -0.1326 -0.0174  0.0202
31111ION     NA48635  12.610  12.925  10.906  0.1667  0.1892  0.0870
31112ION     NA48636   1.999   2.042  13.745 -0.1058 -0.0911  0.1526
31113ION     NA48637   8.917   6.402   5.950  0.4773 -0.0130 -0.0906
31114ION     NA48638   0.662   2.586  10.790 -0.2185 -0.3085 -0.0523
31115ION     NA48639  13.177   2.186   5.629 -0.0132 -0.1836 -0.0088
31116ION     NA48640   5.487  12.492  12.237  0.2751  0.0227 -0.0054
31117ION     NA48641  15.339   6.674  10.640  0.1243 -0.1853  0.1858
31118ION     NA48642   7.225  13.883   5.916  0.1266  0.0797 -0.2947
31119ION     NA48643  11.625   1.072   5.559  0.1115  0.1484  0.1629
31120ION     NA48644  16.418  11.990  10.304  0.1355  0.1268  0.0293
31121ION     NA48645   0.554  15.678  10.698  0.1186  0.0170 -0.3152
31122ION     NA48646  10.247  12.495   1.621  0.0853 -0.0606 -0.0142
31123ION     NA48647  10.015   9.916  14.017  0.3328  0.0849 -0.2039
31124ION     NA48648   4.557  13.581  10.968  0.0146 -0.0377 -0.4394
31125ION     NA48649  10.602   9.533   5.850 -0.1153 -0.1184 -0.1717
31126ION     NA48650   6.077   9.786  10.748  0.3107  0.1386  0.0686
31127ION     NA48651   2.622   1.141  11.001  0.2571  0.1875  0.1973
31128ION     NA48652  14.654   1.678  10.868 -0.0535 -0.0847 -0.0305
31129ION     NA48653   0.169  10.825   5.555 -0.1856  0.0683  0.0790
31130ION     NA48654   4.117  14.363  11.093 -0.1890  0.0186  0.1858
31131ION     NA48655   3.530   2.466   2.076  0.0241 -0.0773  0.1431
31132ION     NA48656  17.608  14.414  10.776  0.1083  0.0635 -0.1892
31133ION     NA48657   5.685  11.636  10.911 -0.0462 -0.2657  0.0393
31134ION     NA48658  15.562   9.702   5.238 -0.2129 -0.2513 -0.2064
31135ION     NA48659   3.148   5.911  12.055  0.1396 -0.0287 -0.0766
31136ION     NA48660  12.630   3.563  10.921 -0.0071  0.0644  0.2032
31137ION     NA48661   2.285  14.207  10.888 -0.0839  0.0191 -0.0349
31138ION     NA48662   7.770   8.653  10.923 -0.4171  0.0458  0.0225
31139ION     NA48663  14.238   6.008   5.966 -0.0249 -0.2097  0.1194
31140ION     NA48664  12.768   9.750   5.511  0.2197 -0.1046  0.0054
31141ION     NA48665   7.327   3.874   6.038 -0.0242  0.0903  0.5524
31142ION     NA48666  15.398   3.299  11.354  0.0013  0.1056 -0.0207
31143ION     NA48667  17.788  11.723   0.589 -0.1256 -0.0404 -0.0118
31144ION     NA48668  15.450  17.508   2.297  0.0629 -0.1851  0.0402
31145ION     NA48669  13.907   2.786   5.783 -0.1802 -0.1743  0.2711
31146ION     NA48670  11.977   8.947  15.603  0.2427 -0.1544  0.1599
  17.97232  17.97232  16.46499
